********************************************************************************
*                       GENERAL UTILITY LATTICE PROGRAM                        *
*                                 Julian Gale                                  *
*                      Nanochemistry Research Institute                        *
*                           Department of Chemistry                            *
*                    Curtin University, Western Australia                      *
********************************************************************************
* Version = 4.2.0 * Last modified =  20th January 2014                         *
********************************************************************************
*  optimise     - perform optimisation run                                     *
*  conp         - constant pressure calculation                                *
*  qok          - running with non charge neutral cell is OK                   *
********************************************************************************

  Job Started  at 01:38.31 30th October    2016                               

  Number of CPUs =     1


  Total number of configurations input =   1

********************************************************************************
*  Input for Configuration =   1                                               *
********************************************************************************

  Formula = Ge3Si57O120F6                                               

  Number of irreducible atoms/shells =     312


  Total number atoms/shells =     312

  Dimensionality = 3               :  Bulk   


  Charge on solid   =  -6.000000 =>neutralising background added


  Cartesian lattice vectors (Angstroms) :

       11.950468    0.000000    0.000000
       -6.056172   10.370065    0.000000
        0.090839    0.007404   29.518422

  Cell parameters (Angstroms/Degrees):

  a =      11.9505    alpha =  90.0765
  b =      12.0090    beta  =  89.8237
  c =      29.5186    gamma = 120.2852

  Initial cell volume =        3658.133218 Angs**3

  Temperature of configuration =  0.000     K 

  Pressure of configuration =         0.000 GPa 

  Fractional coordinates of asymmetric unit :

--------------------------------------------------------------------------------
   No.  Atomic       x           y          z         Charge      Occupancy
        Label      (Frac)      (Frac)     (Frac)        (e)         (Frac)  
--------------------------------------------------------------------------------
      1 Ge    c    0.699600    0.375700    0.033890     4.00000    1.000000    
      2 Si    c    0.619400 *  0.325775 *  0.364651 *   4.00000    1.000000    
      3 Si    c    0.685940 *  0.304414 *  0.698288 *   4.00000    1.000000    
      4 Si    c    0.297432 *  0.622024 *  0.533654 *   4.00000    1.000000    
      5 Si    c    0.381463 *  0.675066 *  0.865508 *   4.00000    1.000000    
      6 Si    c    0.320926 *  0.703050 *  0.200892 *   4.00000    1.000000    
      7 Si    c    0.375581 *  0.702273 *  0.301208 *   4.00000    1.000000    
      8 Si    c    0.329309 *  0.616806 *  0.965560 *   4.00000    1.000000    
      9 Si    c    0.300156 *  0.677780 *  0.635739 *   4.00000    1.000000    
     10 Si    c    0.626474 *  0.296987 *  0.799690 *   4.00000    1.000000    
     11 Si    c    0.675838 *  0.379853 *  0.464831 *   4.00000    1.000000    
     12 Si    c    0.694996 *  0.321984 *  0.135054 *   4.00000    1.000000    
     13 Si    c    0.528994 *  0.408598 *  0.965645 *   4.00000    1.000000    
     14 Si    c    0.581920 *  0.112178 *  0.302304 *   4.00000    1.000000    
     15 Ge    c    0.904852 *  0.471733 *  0.630934 *   4.00000    1.000000    
     16 Si    c    0.467793 *  0.582431 *  0.467131 *   4.00000    1.000000    
     17 Si    c    0.420053 *  0.886134 *  0.800745 *   4.00000    1.000000    
     18 Si    c    0.112869 *  0.531435 *  0.134307 *   4.00000    1.000000    
     19 Si    c    0.414503 *  0.531148 *  0.365815 *   4.00000    1.000000    
     20 Si    c    0.119404 *  0.585019 *  0.030680 *   4.00000    1.000000    
     21 Si    c    0.474008 *  0.890907 *  0.699676 *   4.00000    1.000000    
     22 Si    c    0.584933 *  0.467313 *  0.864131 *   4.00000    1.000000    
     23 Si    c    0.876256 *  0.408941 *  0.531924 *   4.00000    1.000000    
     24 Si    c    0.529477 *  0.111245 *  0.201277 *   4.00000    1.000000    
     25 Si    c    0.303573 *  0.397694 *  0.849732 *   4.00000    1.000000    
     26 Si    c    0.601410 *  0.903944 *  0.186341 *   4.00000    1.000000    
     27 Si    c    0.091288 *  0.696896 *  0.519143 *   4.00000    1.000000    
     28 Si    c    0.696210 *  0.603519 *  0.351026 *   4.00000    1.000000    
     29 Si    c    0.404280 *  0.099408 *  0.685602 *   4.00000    1.000000    
     30 Si    c    0.903153 *  0.299798 *  0.016189 *   4.00000    1.000000    
     31 Si    c    0.396975 *  0.302782 *  0.480734 *   4.00000    1.000000    
     32 Si    c    0.898908 *  0.604415 *  0.149253 *   4.00000    1.000000    
     33 Si    c    0.702017 *  0.095670 *  0.814484 *   4.00000    1.000000    
     34 Si    c    0.606817 *  0.691293 *  0.981085 *   4.00000    1.000000    
     35 Si    c    0.099022 *  0.393363 *  0.653421 *   4.00000    1.000000    
     36 Si    c    0.299620 *  0.903347 *  0.316331 *   4.00000    1.000000    
     37 Si    c    0.251130 *  0.336458 *  0.949715 *   4.00000    1.000000    
     38 Si    c    0.658681 *  0.911508 *  0.286909 *   4.00000    1.000000    
     39 Si    c    0.086511 *  0.751617 *  0.621128 *   4.00000    1.000000    
     40 Si    c    0.747641 *  0.660688 *  0.451552 *   4.00000    1.000000    
     41 Si    c    0.343646 *  0.087103 *  0.785847 *   4.00000    1.000000    
     42 Si    c    0.910044 *  0.250378 *  0.118538 *   4.00000    1.000000    
     43 Si    c    0.337687 *  0.252802 *  0.380347 *   4.00000    1.000000    
     44 Ge    c    0.909106 *  0.653592 *  0.047244 *   4.00000    1.000000    
     45 Si    c    0.753699 *  0.092012 *  0.713749 *   4.00000    1.000000    
     46 Si    c    0.662734 *  0.745332 *  0.880411 *   4.00000    1.000000    
     47 Si    c    0.082756 *  0.335820 *  0.550449 *   4.00000    1.000000    
     48 Si    c    0.248720 *  0.910932 *  0.215873 *   4.00000    1.000000    
     49 Si    c    0.971807 *  0.119448 *  0.966453 *   4.00000    1.000000    
     50 Si    c    0.877538 *  0.851714 *  0.301200 *   4.00000    1.000000    
     51 Si    c    0.159024 *  0.035351 *  0.634492 *   4.00000    1.000000    
     52 Si    c    0.027828 *  0.879530 *  0.468241 *   4.00000    1.000000    
     53 Si    c    0.124750 *  0.147256 *  0.801131 *   4.00000    1.000000    
     54 Si    c    0.847689 *  0.969953 *  0.133991 *   4.00000    1.000000    
     55 Si    c    0.120196 *  0.971923 *  0.366997 *   4.00000    1.000000    
     56 Si    c    0.854364 *  0.878309 *  0.032912 *   4.00000    1.000000    
     57 Si    c    0.033810 *  0.147309 *  0.700785 *   4.00000    1.000000    
     58 Si    c    0.879697 *  0.025819 *  0.865772 *   4.00000    1.000000    
     59 Si    c    0.151127 *  0.122950 *  0.533462 *   4.00000    1.000000    
     60 Si    c    0.969563 *  0.851019 *  0.200256 *   4.00000    1.000000    
     61 O2    c    0.926234 *  0.003819 *  0.001425 *   0.87073    1.000000    
     62 O2    c    0.997638 *  0.928734 *  0.334767 *   0.87073    1.000000    
     63 O2    c    0.072669 *  0.068198 *  0.667003 *   0.87073    1.000000    
     64 O2    c    0.068481 *  0.999358 *  0.501610 *   0.87073    1.000000    
     65 O2    c    0.005127 *  0.069077 *  0.834882 *   0.87073    1.000000    
     66 O2    c    0.928500 *  0.929447 *  0.166759 *   0.87073    1.000000    
     67 O2    c    0.336935 *  0.579197 *  0.333771 *   0.87073    1.000000    
     68 O2    c    0.424798 *  0.765150 *  0.666828 *   0.87073    1.000000    
     69 O2    c    0.248474 *  0.656240 *  0.999949 *   0.87073    1.000000    
     70 O2    c    0.663550 *  0.420256 *  0.832049 *   0.87073    1.000000    
     71 O2    c    0.579255 *  0.238566 *  0.170557 *   0.87073    1.000000    
     72 O2    c    0.761946 *  0.338088 *  0.494532 *   0.87073    1.000000    
     73 O3    c    0.567698 *  0.326885 *  0.997411 *   1.33043    1.000000    
     74 O3    c    0.767944 *  0.422803 *  0.666624 *   1.33043    1.000000    
     75 O2    c    0.659104 *  0.240225 *  0.333307 *   0.87073    1.000000    
     76 O2    c    0.418225 *  0.657626 *  0.500225 *   0.87073    1.000000    
     77 O2    c    0.236495 *  0.581060 *  0.167552 *   0.87073    1.000000    
     78 O2    c    0.343685 *  0.760473 *  0.833235 *   0.87073    1.000000    
     79 O2    c    0.126769 *  0.208514 *  0.970226 *   0.87073    1.000000    
     80 O2    c    0.785506 *  0.913355 *  0.307258 *   0.87073    1.000000    
     81 O2    c    0.099007 *  0.883207 *  0.639497 *   0.87073    1.000000    
     82 O2    c    0.872677 *  0.787575 *  0.472236 *   0.87073    1.000000    
     83 O2    c    0.217515 *  0.086655 *  0.806687 *   0.87073    1.000000    
     84 O2    c    0.908802 *  0.124789 *  0.139019 *   0.87073    1.000000    
     85 O2    c    0.210781 *  0.125926 *  0.360614 *   0.87073    1.000000    
     86 O3    c    0.929201 *  0.802820 *  0.028700 *   1.33043    1.000000    
     87 O2    c    0.880858 *  0.092312 *  0.693744 *   0.87073    1.000000    
     88 O2    c    0.788818 *  0.871890 *  0.859901 *   0.87073    1.000000    
     89 O2    c    0.088237 *  0.214177 *  0.529032 *   0.87073    1.000000    
     90 O2    c    0.124723 *  0.914092 *  0.195386 *   0.87073    1.000000    
     91 O2    c    0.931442 *  0.868879 *  0.250649 *   0.87073    1.000000    
     92 O2    c    0.144150 *  0.074276 *  0.583971 *   0.87073    1.000000    
     93 O2    c    0.926744 *  0.061539 *  0.916935 *   0.87073    1.000000    
     94 O2    c    0.066365 *  0.125957 *  0.751178 *   0.87073    1.000000    
     95 O2    c    0.856895 *  0.930266 *  0.083561 *   0.87073    1.000000    
     96 O2    c    0.070429 *  0.934414 *  0.418036 *   0.87073    1.000000    
     97 O2    c    0.908314 *  0.206640 *  0.977915 *   0.87073    1.000000    
     98 O2    c    0.794445 *  0.699627 *  0.312428 *   0.87073    1.000000    
     99 O2    c    0.310425 *  0.106395 *  0.646984 *   0.87073    1.000000    
    100 O2    c    0.094761 *  0.795305 *  0.480662 *   0.87073    1.000000    
    101 O2    c    0.206126 *  0.300320 *  0.811127 *   0.87073    1.000000    
    102 O2    c    0.696438 *  0.900574 *  0.147817 *   0.87073    1.000000    
    103 O2    c    0.201773 *  0.902072 *  0.354918 *   0.87073    1.000000    
    104 O2    c    0.702507 *  0.785775 *  0.020252 *   0.87073    1.000000    
    105 O2    c    0.115796 *  0.299636 *  0.689081 *   0.87073    1.000000    
    106 O2    c    0.800234 *  0.096867 *  0.852712 *   0.87073    1.000000    
    107 O2    c    0.301708 *  0.204235 *  0.519206 *   0.87073    1.000000    
    108 O2    c    0.901727 *  0.698578 *  0.189951 *   0.87073    1.000000    
    109 O2    c    0.319274 *  0.644635 *  0.250930 *   0.87073    1.000000    
    110 O2    c    0.349029 *  0.676351 *  0.584087 *   0.87073    1.000000    
    111 O2    c    0.324092 *  0.674341 *  0.915950 *   0.87073    1.000000    
    112 O2    c    0.684244 *  0.353686 *  0.749932 *   0.87073    1.000000    
    113 O3    c    0.628906 *  0.313244 *  0.087201 *   1.33043    1.000000    
    114 O2    c    0.674811 *  0.324321 *  0.414576 *   0.87073    1.000000    
    115 O2    c    0.371665 *  0.323694 *  0.966934 *   0.87073    1.000000    
    116 O2    c    0.669326 *  0.043757 *  0.305387 *   0.87073    1.000000    
    117 O3    c    0.955315 *  0.638246 *  0.640323 *   1.33043    1.000000    
    118 O2    c    0.624524 *  0.669567 *  0.470365 *   0.87073    1.000000    
    119 O2    c    0.332380 *  0.954523 *  0.804335 *   0.87073    1.000000    
    120 O2    c    0.040668 *  0.375357 *  0.136925 *   0.87073    1.000000    
    121 O2    c    0.326526 *  0.374835 *  0.362849 *   0.87073    1.000000    
    122 O3    c    0.056960 *  0.674620 *  0.028052 *   1.33043    1.000000    
    123 O2    c    0.630548 *  0.957867 *  0.695919 *   0.87073    1.000000    
    124 O2    c    0.671552 *  0.623665 *  0.861111 *   0.87073    1.000000    
    125 O2    c    0.951251 *  0.325835 *  0.531477 *   0.87073    1.000000    
    126 O2    c    0.372899 *  0.041966 *  0.197405 *   0.87073    1.000000    
    127 O3    c    0.767204 *  0.290112 *  0.009118 *   1.33043    1.000000    
    128 O2    c    0.695050 *  0.469552 *  0.342771 *   0.87073    1.000000    
    129 O2    c    0.538350 *  0.232166 *  0.678344 *   0.87073    1.000000    
    130 O2    c    0.224690 *  0.693925 *  0.513442 *   0.87073    1.000000    
    131 O2    c    0.306261 *  0.532680 *  0.842143 *   0.87073    1.000000    
    132 O2    c    0.464888 *  0.771571 *  0.178645 *   0.87073    1.000000    
    133 O2    c    0.299523 *  0.769521 *  0.323451 *   0.87073    1.000000    
    134 O2    c    0.472730 *  0.692555 *  0.987963 *   0.87073    1.000000    
    135 O2    c    0.232560 *  0.532764 *  0.655832 *   0.87073    1.000000    
    136 O2    c    0.700166 *  0.228185 *  0.822451 *   0.87073    1.000000    
    137 O2    c    0.532701 *  0.306162 *  0.487990 *   0.87073    1.000000    
    138 O2    c    0.766187 *  0.467374 *  0.156074 *   0.87073    1.000000    
    139 O1    c    0.770790 *  0.540616 *  0.021696 *   1.73396    1.000000    
    140 O2    c    0.462850 *  0.252957 *  0.359660 *   0.87073    1.000000    
    141 O2    c    0.753302 *  0.215493 *  0.693421 *   0.87073    1.000000    
    142 O2    c    0.206231 *  0.467610 *  0.532653 *   0.87073    1.000000    
    143 O2    c    0.538296 *  0.749445 *  0.861620 *   0.87073    1.000000    
    144 O2    c    0.245238 *  0.783155 *  0.196641 *   0.87073    1.000000    
    145 O2    c    0.532200 *  0.784873 *  0.306237 *   0.87073    1.000000    
    146 O2    c    0.249858 *  0.460505 *  0.970570 *   0.87073    1.000000    
    147 O2    c    0.210365 *  0.742163 *  0.638707 *   0.87073    1.000000    
    148 O2    c    0.469782 *  0.214032 *  0.804802 *   0.87073    1.000000    
    149 O2    c    0.750545 *  0.536042 *  0.470299 *   0.87073    1.000000    
    150 O2    c    0.786113 *  0.257226 *  0.135853 *   0.87073    1.000000    
    151 O2    c    0.229304 *  0.321823 *  0.895521 *   0.87073    1.000000    
    152 O2    c    0.675809 *  0.908511 *  0.232685 *   0.87073    1.000000    
    153 O2    c    0.087889 *  0.763181 *  0.566026 *   0.87073    1.000000    
    154 O2    c    0.767114 *  0.678585 *  0.397293 *   0.87073    1.000000    
    155 O2    c    0.325510 *  0.089953 *  0.731646 *   0.87073    1.000000    
    156 O2    c    0.912356 *  0.239695 *  0.064437 *   0.87073    1.000000    
    157 O2    c    0.321946 *  0.232261 *  0.434535 *   0.87073    1.000000    
    158 O3    c    0.903248 *  0.682550 *  0.105444 *   1.33043    1.000000    
    159 O2    c    0.773359 *  0.094225 *  0.767985 *   0.87073    1.000000    
    160 O2    c    0.682408 *  0.761473 *  0.934691 *   0.87073    1.000000    
    161 O2    c    0.085162 *  0.322213 *  0.604489 *   0.87073    1.000000    
    162 O2    c    0.229785 *  0.909114 *  0.270184 *   0.87073    1.000000    
    163 O2    c    0.585801 *  0.549589 *  0.989282 *   0.87073    1.000000    
    164 O2    c    0.440225 *  0.027826 *  0.325656 *   0.87073    1.000000    
    165 O3    c    0.974820 *  0.400163 *  0.666156 *   1.33043    1.000000    
    166 O2    c    0.407729 *  0.440707 *  0.489801 *   0.87073    1.000000    
    167 O2    c    0.562492 *  0.969128 *  0.823456 *   0.87073    1.000000    
    168 O2    c    0.022418 *  0.584260 *  0.154066 *   0.87073    1.000000    
    169 O2    c    0.556320 *  0.589373 *  0.342551 *   0.87073    1.000000    
    170 O2    c    0.024783 *  0.443721 *  0.009069 *   0.87073    1.000000    
    171 O2    c    0.414515 *  0.971925 *  0.675906 *   0.87073    1.000000    
    172 O2    c    0.442972 *  0.410400 *  0.841372 *   0.87073    1.000000    
    173 O2    c    0.969624 *  0.554773 *  0.511782 *   0.87073    1.000000    
    174 O2    c    0.589709 *  0.030454 *  0.177777 *   0.87073    1.000000    
    175 O2    c    0.582014 *  0.164567 *  0.251788 *   0.87073    1.000000    
    176 O3    c    0.812637 *  0.401222 *  0.579706 *   1.33043    1.000000    
    177 O2    c    0.584941 *  0.414688 *  0.914702 *   0.87073    1.000000    
    178 O2    c    0.417914 *  0.832305 *  0.749779 *   0.87073    1.000000    
    179 O2    c    0.160813 *  0.578649 *  0.083070 *   0.87073    1.000000    
    180 O2    c    0.414677 *  0.584432 *  0.416660 *   0.87073    1.000000    
    181 F     c    0.450202 *  0.904084 *  0.251113 *   0.56000    1.000000    
    182 F     c    0.051871 *  0.526884 *  0.593644 *   0.56000    1.000000    
    183 F     c    0.450106 *  0.545179 *  0.915128 *   0.56000    1.000000    
    184 F     c    0.547351 *  0.088599 *  0.749923 *   0.56000    1.000000    
    185 F     c    0.877741 *  0.464383 *  0.074865 *   0.56000    1.000000    
    186 F     c    0.545493 *  0.454590 *  0.416031 *   0.56000    1.000000    
    187 O2    s    0.923486 *  0.003254 *  0.000876 *  -2.87073    1.000000    
    188 O2    s    0.997952 *  0.924957 *  0.334626 *  -2.87073    1.000000    
    189 O2    s    0.078116 *  0.073430 *  0.667110 *  -2.87073    1.000000    
    190 O2    s    0.072992 *  0.999569 *  0.501383 *  -2.87073    1.000000    
    191 O2    s    0.004457 *  0.073006 *  0.834557 *  -2.87073    1.000000    
    192 O2    s    0.924205 *  0.925270 *  0.166867 *  -2.87073    1.000000    
    193 O2    s    0.348874 *  0.586900 *  0.333709 *  -2.87073    1.000000    
    194 O2    s    0.416289 *  0.768221 *  0.666720 *  -2.87073    1.000000    
    195 O2    s    0.242922 *  0.644605 *  0.999715 *  -2.87073    1.000000    
    196 O2    s    0.651642 *  0.412493 *  0.832046 *  -2.87073    1.000000    
    197 O2    s    0.586094 *  0.233748 *  0.170096 *  -2.87073    1.000000    
    198 O2    s    0.764506 *  0.349681 *  0.495193 *  -2.87073    1.000000    
    199 O3    s    0.573553 *  0.338775 *  0.996913 *  -3.33043    1.000000    
    200 O3    s    0.768446 *  0.413184 *  0.667613 *  -3.33043    1.000000    
    201 O2    s    0.646965 *  0.235818 *  0.333350 *  -2.87073    1.000000    
    202 O2    s    0.410468 *  0.646280 *  0.500416 *  -2.87073    1.000000    
    203 O2    s    0.232174 *  0.588292 *  0.167486 *  -2.87073    1.000000    
    204 O2    s    0.355366 *  0.764553 *  0.833234 *  -2.87073    1.000000    
    205 O2    s    0.122892 *  0.212145 *  0.967712 *  -2.87073    1.000000    
    206 O2    s    0.782091 *  0.906626 *  0.304526 *  -2.87073    1.000000    
    207 O2    s    0.104445 *  0.885865 *  0.636922 *  -2.87073    1.000000    
    208 O2    s    0.876258 *  0.784235 *  0.469694 *  -2.87073    1.000000    
    209 O2    s    0.220619 *  0.093182 *  0.803967 *  -2.87073    1.000000    
    210 O2    s    0.902676 *  0.122094 *  0.136384 *  -2.87073    1.000000    
    211 O2    s    0.214305 *  0.122729 *  0.363310 *  -2.87073    1.000000    
    212 O3    s    0.919617 *  0.800518 *  0.030457 *  -3.33043    1.000000    
    213 O2    s    0.884164 *  0.098150 *  0.696505 *  -2.87073    1.000000    
    214 O2    s    0.785486 *  0.875226 *  0.862623 *  -2.87073    1.000000    
    215 O2    s    0.094289 *  0.217136 *  0.531693 *  -2.87073    1.000000    
    216 O2    s    0.121284 *  0.907105 *  0.198011 *  -2.87073    1.000000    
    217 O2    s    0.929597 *  0.864954 *  0.250744 *  -2.87073    1.000000    
    218 O2    s    0.146610 *  0.075582 *  0.583738 *  -2.87073    1.000000    
    219 O2    s    0.926556 *  0.064091 *  0.916773 *  -2.87073    1.000000    
    220 O2    s    0.069213 *  0.130793 *  0.751033 *  -2.87073    1.000000    
    221 O2    s    0.855555 *  0.929417 *  0.084101 *  -2.87073    1.000000    
    222 O2    s    0.071215 *  0.932450 *  0.417953 *  -2.87073    1.000000    
    223 O2    s    0.914658 *  0.207158 *  0.980749 *  -2.87073    1.000000    
    224 O2    s    0.793197 *  0.705936 *  0.315193 *  -2.87073    1.000000    
    225 O2    s    0.303346 *  0.098004 *  0.649458 *  -2.87073    1.000000    
    226 O2    s    0.087385 *  0.794071 *  0.483282 *  -2.87073    1.000000    
    227 O2    s    0.207384 *  0.294019 *  0.813960 *  -2.87073    1.000000    
    228 O2    s    0.702580 *  0.908285 *  0.150371 *  -2.87073    1.000000    
    229 O2    s    0.203126 *  0.909609 *  0.352244 *  -2.87073    1.000000    
    230 O2    s    0.708164 *  0.785489 *  0.017513 *  -2.87073    1.000000    
    231 O2    s    0.105624 *  0.293281 *  0.686685 *  -2.87073    1.000000    
    232 O2    s    0.798689 *  0.089171 *  0.850203 *  -2.87073    1.000000    
    233 O2    s    0.295445 *  0.205763 *  0.516718 *  -2.87073    1.000000    
    234 O2    s    0.908601 *  0.705405 *  0.187071 *  -2.87073    1.000000    
    235 O2    s    0.325130 *  0.656408 *  0.250915 *  -2.87073    1.000000    
    236 O2    s    0.338745 *  0.670783 *  0.583936 *  -2.87073    1.000000    
    237 O2    s    0.330369 *  0.668581 *  0.915864 *  -2.87073    1.000000    
    238 O2    s    0.678323 *  0.342799 *  0.750078 *  -2.87073    1.000000    
    239 O3    s    0.640741 *  0.318775 *  0.088058 *  -3.33043    1.000000    
    240 O2    s    0.669050 *  0.330313 *  0.414573 *  -2.87073    1.000000    
    241 O2    s    0.374656 *  0.333852 *  0.964894 *  -2.87073    1.000000    
    242 O2    s    0.659176 *  0.036998 *  0.303132 *  -2.87073    1.000000    
    243 O3    s    0.966095 *  0.639263 *  0.637583 *  -3.33043    1.000000    
    244 O2    s    0.621013 *  0.659584 *  0.468061 *  -2.87073    1.000000    
    245 O2    s    0.342534 *  0.961299 *  0.802035 *  -2.87073    1.000000    
    246 O2    s    0.034498 *  0.378414 *  0.134742 *  -2.87073    1.000000    
    247 O2    s    0.336720 *  0.378142 *  0.364994 *  -2.87073    1.000000    
    248 O3    s    0.051947 *  0.663798 *  0.029806 *  -3.33043    1.000000    
    249 O2    s    0.627021 *  0.964708 *  0.698144 *  -2.87073    1.000000    
    250 O2    s    0.661724 *  0.620395 *  0.863458 *  -2.87073    1.000000    
    251 O2    s    0.957866 *  0.334941 *  0.533538 *  -2.87073    1.000000    
    252 O2    s    0.375967 *  0.035229 *  0.199774 *  -2.87073    1.000000    
    253 O3    s    0.776348 *  0.297581 *  0.011782 *  -3.33043    1.000000    
    254 O2    s    0.687351 *  0.468784 *  0.345924 *  -2.87073    1.000000    
    255 O2    s    0.538321 *  0.224754 *  0.681171 *  -2.87073    1.000000    
    256 O2    s    0.218425 *  0.686712 *  0.516153 *  -2.87073    1.000000    
    257 O2    s    0.313621 *  0.532963 *  0.845342 *  -2.87073    1.000000    
    258 O2    s    0.464268 *  0.778367 *  0.181801 *  -2.87073    1.000000    
    259 O2    s    0.307336 *  0.776654 *  0.320383 *  -2.87073    1.000000    
    260 O2    s    0.471861 *  0.684578 *  0.984884 *  -2.87073    1.000000    
    261 O2    s    0.226148 *  0.533877 *  0.653442 *  -2.87073    1.000000    
    262 O2    s    0.692834 *  0.221279 *  0.819268 *  -2.87073    1.000000    
    263 O2    s    0.533003 *  0.313420 *  0.484800 *  -2.87073    1.000000    
    264 O2    s    0.772808 *  0.466983 *  0.153202 *  -2.87073    1.000000    
    265 O1    s    0.777190 *  0.538284 *  0.024598 *  -3.73396    1.000000    
    266 O2    s    0.465653 *  0.260635 *  0.362378 *  -2.87073    1.000000    
    267 O2    s    0.746417 *  0.210460 *  0.696132 *  -2.87073    1.000000    
    268 O2    s    0.202789 *  0.470195 *  0.534658 *  -2.87073    1.000000    
    269 O2    s    0.535316 *  0.741079 *  0.864053 *  -2.87073    1.000000    
    270 O2    s    0.253556 *  0.788535 *  0.199122 *  -2.87073    1.000000    
    271 O2    s    0.529532 *  0.790058 *  0.303645 *  -2.87073    1.000000    
    272 O2    s    0.258221 *  0.463415 *  0.967865 *  -2.87073    1.000000    
    273 O2    s    0.207189 *  0.735970 *  0.636579 *  -2.87073    1.000000    
    274 O2    s    0.472370 *  0.208749 *  0.802237 *  -2.87073    1.000000    
    275 O2    s    0.742453 *  0.533442 *  0.467742 *  -2.87073    1.000000    
    276 O2    s    0.790402 *  0.263214 *  0.133872 *  -2.87073    1.000000    
    277 O2    s    0.239324 *  0.331280 *  0.896459 *  -2.87073    1.000000    
    278 O2    s    0.666187 *  0.908342 *  0.233581 *  -2.87073    1.000000    
    279 O2    s    0.088092 *  0.754792 *  0.566443 *  -2.87073    1.000000    
    280 O2    s    0.757669 *  0.668887 *  0.398211 *  -2.87073    1.000000    
    281 O2    s    0.335551 *  0.090600 *  0.732566 *  -2.87073    1.000000    
    282 O2    s    0.911183 *  0.246996 *  0.065460 *  -2.87073    1.000000    
    283 O2    s    0.331508 *  0.241868 *  0.433617 *  -2.87073    1.000000    
    284 O3    s    0.903130 *  0.672163 *  0.105726 *  -3.33043    1.000000    
    285 O2    s    0.763804 *  0.094138 *  0.767151 *  -2.87073    1.000000    
    286 O2    s    0.672495 *  0.752472 *  0.933792 *  -2.87073    1.000000    
    287 O2    s    0.086186 *  0.330595 *  0.603326 *  -2.87073    1.000000    
    288 O2    s    0.239084 *  0.908698 *  0.269278 *  -2.87073    1.000000    
    289 O2    s    0.582038 *  0.550620 *  0.985983 *  -2.87073    1.000000    
    290 O2    s    0.439900 *  0.023081 *  0.322223 *  -2.87073    1.000000    
    291 O3    s    0.983896 *  0.404420 *  0.662433 *  -3.33043    1.000000    
    292 O2    s    0.412990 *  0.440946 *  0.486454 *  -2.87073    1.000000    
    293 O2    s    0.562643 *  0.974251 *  0.820112 *  -2.87073    1.000000    
    294 O2    s    0.018997 *  0.580582 *  0.151428 *  -2.87073    1.000000    
    295 O2    s    0.556526 *  0.584622 *  0.345902 *  -2.87073    1.000000    
    296 O2    s    0.021491 *  0.443147 *  0.012089 *  -2.87073    1.000000    
    297 O2    s    0.419690 *  0.977069 *  0.679362 *  -2.87073    1.000000    
    298 O2    s    0.442789 *  0.415147 *  0.844654 *  -2.87073    1.000000    
    299 O2    s    0.974005 *  0.556132 *  0.514594 *  -2.87073    1.000000    
    300 O2    s    0.584582 *  0.025154 *  0.181128 *  -2.87073    1.000000    
    301 O2    s    0.576415 *  0.153312 *  0.251810 *  -2.87073    1.000000    
    302 O3    s    0.825403 *  0.406626 *  0.577978 *  -3.33043    1.000000    
    303 O2    s    0.579287 *  0.419605 *  0.914608 *  -2.87073    1.000000    
    304 O2    s    0.423901 *  0.843833 *  0.749811 *  -2.87073    1.000000    
    305 O2    s    0.151597 *  0.574210 *  0.083356 *  -2.87073    1.000000    
    306 O2    s    0.420156 *  0.578772 *  0.416691 *  -2.87073    1.000000    
    307 F     s    0.449984 *  0.903728 *  0.251086 *  -1.56000    1.000000    
    308 F     s    0.041914 *  0.522958 *  0.596078 *  -1.56000    1.000000    
    309 F     s    0.449389 *  0.545488 *  0.915136 *  -1.56000    1.000000    
    310 F     s    0.546940 *  0.087987 *  0.749935 *  -1.56000    1.000000    
    311 F     s    0.873695 *  0.465784 *  0.073500 *  -1.56000    1.000000    
    312 F     s    0.545608 *  0.454531 *  0.416056 *  -1.56000    1.000000    
--------------------------------------------------------------------------------



********************************************************************************
*  General input information                                                   *
********************************************************************************

  Species output for all configurations : 

--------------------------------------------------------------------------------
  Species    Type    Atomic    Atomic    Charge       Radii (Angs)     Library
                     Number     Mass       (e)     Cova   Ionic  VDW   Symbol
--------------------------------------------------------------------------------
    Si       Core       14      28.09   4.000000   1.200  0.000  2.100          
    O1       Core        8      16.00   1.733957   0.730  0.000  1.360          
    O1       Shell       8       0.00  -3.733957   0.730  0.000  1.360          
    O2       Core        8      16.00   0.870733   0.730  0.000  1.360          
    O2       Shell       8       0.00  -2.870733   0.730  0.000  1.360          
    O3       Core        8      16.00   1.330431   0.730  0.000  1.360          
    O3       Shell       8       0.00  -3.330431   0.730  0.000  1.360          
    F        Core        9      19.00   0.560000   0.710  0.000  1.300          
    F        Shell       9       0.00  -1.560000   0.710  0.000  1.300          
    Ge       Core       32      72.61   4.000000   1.170  0.000  1.750          
--------------------------------------------------------------------------------


  Lattice summation method               =    Ewald          (3-D)
                                         =    Parry          (2-D)
                                         =    Saunders et al (1-D)
  Accuracy factor for lattice sums       =   12.000


  Time limit = Infinity

  Maximum range for interatomic potentials =        16.000000 Angstroms

  Taper potentials to zero over   1.0000 Angstroms using polynomial

  General interatomic potentials :

--------------------------------------------------------------------------------
Atom  Types   Potential         A         B         C         D     Cutoffs(Ang)
  1     2                                                            Min    Max 
--------------------------------------------------------------------------------
Si   c O1   s Buckingham    0.132E+04 0.318      10.1      0.00     0.000 16.000
Si   c O2   s Buckingham    0.132E+04 0.318      10.1      0.00     0.000 16.000
Si   c O3   s Buckingham    0.132E+04 0.318      10.1      0.00     0.000 16.000
Ge   c O1   s Buckingham    0.150E+04 0.326      16.8      0.00     0.000 16.000
Ge   c O2   s Buckingham    0.150E+04 0.326      16.8      0.00     0.000 16.000
Ge   c O3   s Buckingham    0.150E+04 0.326      16.8      0.00     0.000 16.000
O1   s O1   s Buckingham    0.228E+05 0.149      10.9      0.00     0.000 16.000
O1   s O2   s Buckingham    0.228E+05 0.149      10.9      0.00     0.000 16.000
O1   s O3   s Buckingham    0.228E+05 0.149      10.9      0.00     0.000 16.000
O2   s O2   s Buckingham    0.228E+05 0.149      10.9      0.00     0.000 16.000
O2   s O3   s Buckingham    0.228E+05 0.149      10.9      0.00     0.000 16.000
O3   s O3   s Buckingham    0.228E+05 0.149      10.9      0.00     0.000 16.000
Si   c F    s Buckingham     977.     0.282      0.00      0.00     0.000 16.000
Ge   c F    s Buckingham     681.     0.320      0.00      0.00     0.000 16.000
F    s F    s Buckingham     540.     0.262      0.00      0.00     0.000 16.000
O1   s F    s Buckingham    0.168E+04 0.268      0.00      0.00     0.000 16.000
O2   s F    s Buckingham    0.168E+04 0.268      0.00      0.00     0.000 16.000
O3   s F    s Buckingham    0.168E+04 0.268      0.00      0.00     0.000 16.000
O2   c O2   s Spring (c-s)   76.0      0.00      0.00      0.00     0.000  0.800
O3   c O3   s Spring (c-s)   128.      0.00      0.00      0.00     0.000  0.800
O1   c O1   s Spring (c-s)   180.      0.00      0.00      0.00     0.000  0.800
F    c F    s Spring (c-s)   33.5      0.00      0.00      0.00     0.000  0.800
--------------------------------------------------------------------------------

  General Three-body potentials :

  Harmonic form:

--------------------------------------------------------------------------------
Atom    Atom    Atom           Force Constants            Theta     Cutoffs  
  1       2       3     (eVrad**-2/eVrad**-3/eVrad**-4)   (deg)  1-2  1-3  2-3
--------------------------------------------------------------------------------
Si    c O1    s O1    s  1.261        0.0000    0.0000   109.470 0.00 0.00 0.00
                                                                 1.90 1.90 3.50
Si    c O1    s O2    s  1.261        0.0000    0.0000   109.470 0.00 0.00 0.00
                                                                 1.90 1.90 3.50
Si    c O2    s O2    s  1.261        0.0000    0.0000   109.470 0.00 0.00 0.00
                                                                 1.90 1.90 3.50
--------------------------------------------------------------------------------

********************************************************************************
*  Output for configuration   1                                                *
********************************************************************************


  Components of energy : 

--------------------------------------------------------------------------------
  Interatomic potentials     =        2064.09274090 eV
  Three-body potentials      =           0.44928577 eV
  Monopole - monopole (real) =       -6613.46834792 eV
  Monopole - monopole (recip)=       -3171.29974790 eV
  Monopole - monopole (total)=       -9784.76809582 eV
  Neutralising energy        =          -6.45925018 eV
--------------------------------------------------------------------------------
  Total lattice energy       =       -7726.68531933 eV
--------------------------------------------------------------------------------
  Total lattice energy       =         -745507.0201 kJ/(mole unit cells)
--------------------------------------------------------------------------------


  Number of variables =      939

  Maximum number of calculations  =          5000
  Maximum Hessian update interval =            10
  Maximum step size               =   0.100000000
  Maximum parameter tolerance     =   0.000010000
  Maximum function  tolerance     =   0.000010000
  Maximum gradient  tolerance     =   0.001000000
  Maximum gradient  component     =   0.010000000

  Symmetry not applied to optimisation

  Cell parameters to be optimised using strains

  Newton-Raphson optimiser to be used

  BFGS hessian update to be used

  Dumpfile to be written after every cycle

  Start of bulk optimisation :

  Cycle:      0 Energy:     -7726.685319  Gnorm:      0.008432  CPU:    2.015
  ** Hessian calculated **
  Cycle:      1 Energy:     -7726.685438  Gnorm:      0.003175  CPU:    5.225
  Cycle:      2 Energy:     -7726.685472  Gnorm:      0.002000  CPU:    8.060
  Cycle:      3 Energy:     -7726.685501  Gnorm:      0.001351  CPU:   10.893
  Cycle:      4 Energy:     -7726.685537  Gnorm:      0.000974  CPU:   13.727
  Cycle:      5 Energy:     -7726.685699  Gnorm:      0.002423  CPU:   19.277
  Cycle:      6 Energy:     -7726.685893  Gnorm:      0.004627  CPU:   23.492
  Cycle:      7 Energy:     -7726.686143  Gnorm:      0.007268  CPU:   27.691
  Cycle:      8 Energy:     -7726.686478  Gnorm:      0.010280  CPU:   31.891
  Cycle:      9 Energy:     -7726.686930  Gnorm:      0.013687  CPU:   36.088
  Cycle:     10 Energy:     -7726.687532  Gnorm:      0.017537  CPU:   40.284
  ** Hessian calculated **
  Cycle:     11 Energy:     -7726.688023  Gnorm:      0.007349  CPU:   44.820
  Cycle:     12 Energy:     -7726.688135  Gnorm:      0.004797  CPU:   47.657
  Cycle:     13 Energy:     -7726.688208  Gnorm:      0.003099  CPU:   50.494
  Cycle:     14 Energy:     -7726.688272  Gnorm:      0.001908  CPU:   53.329
  Cycle:     15 Energy:     -7726.688435  Gnorm:      0.003370  CPU:   58.200
  Cycle:     16 Energy:     -7726.688548  Gnorm:      0.004908  CPU:   61.713
  Cycle:     17 Energy:     -7726.688694  Gnorm:      0.006808  CPU:   65.905
  Cycle:     18 Energy:     -7726.688883  Gnorm:      0.008103  CPU:   70.097
  Cycle:     19 Energy:     -7726.689137  Gnorm:      0.008064  CPU:   74.288
  Cycle:     20 Energy:     -7726.689480  Gnorm:      0.006285  CPU:   78.480
  ** Hessian calculated **
  Cycle:     21 Energy:     -7726.689607  Gnorm:      0.003361  CPU:   83.007
  Cycle:     22 Energy:     -7726.689791  Gnorm:      0.002237  CPU:   87.877
  Cycle:     23 Energy:     -7726.689985  Gnorm:      0.002518  CPU:   92.069
  Cycle:     24 Energy:     -7726.690185  Gnorm:      0.003470  CPU:   96.260
  Cycle:     25 Energy:     -7726.690315  Gnorm:      0.003179  CPU:   99.773
  Cycle:     26 Energy:     -7726.690414  Gnorm:      0.002639  CPU:  103.286
  Cycle:     27 Energy:     -7726.690541  Gnorm:      0.002006  CPU:  107.479
  Cycle:     28 Energy:     -7726.690671  Gnorm:      0.002155  CPU:  111.671
  Cycle:     29 Energy:     -7726.690856  Gnorm:      0.002918  CPU:  115.870
  Cycle:     30 Energy:     -7726.691117  Gnorm:      0.004281  CPU:  120.070
  ** Hessian calculated **
  Cycle:     31 Energy:     -7726.691193  Gnorm:      0.002735  CPU:  124.610
  Cycle:     32 Energy:     -7726.691258  Gnorm:      0.002333  CPU:  127.451
  Cycle:     33 Energy:     -7726.691331  Gnorm:      0.002200  CPU:  130.290
  Cycle:     34 Energy:     -7726.691578  Gnorm:      0.002231  CPU:  135.167
  Cycle:     35 Energy:     -7726.691822  Gnorm:      0.002814  CPU:  139.361
  Cycle:     36 Energy:     -7726.691944  Gnorm:      0.002334  CPU:  142.880
  Cycle:     37 Energy:     -7726.691999  Gnorm:      0.001954  CPU:  145.717
  Cycle:     38 Energy:     -7726.692117  Gnorm:      0.001997  CPU:  150.595
  Cycle:     39 Energy:     -7726.692275  Gnorm:      0.002036  CPU:  154.798
  Cycle:     40 Energy:     -7726.692491  Gnorm:      0.002776  CPU:  158.994
  ** Hessian calculated **
  Cycle:     41 Energy:     -7726.692552  Gnorm:      0.002117  CPU:  163.531
  Cycle:     42 Energy:     -7726.692606  Gnorm:      0.001947  CPU:  166.370
  Cycle:     43 Energy:     -7726.692771  Gnorm:      0.001839  CPU:  171.247
  Cycle:     44 Energy:     -7726.692974  Gnorm:      0.001632  CPU:  175.444
  Cycle:     45 Energy:     -7726.693183  Gnorm:      0.001771  CPU:  179.641
  Cycle:     46 Energy:     -7726.693314  Gnorm:      0.002050  CPU:  183.159
  Cycle:     47 Energy:     -7726.693383  Gnorm:      0.001739  CPU:  186.678
  Cycle:     48 Energy:     -7726.693466  Gnorm:      0.001959  CPU:  190.876
  Cycle:     49 Energy:     -7726.693592  Gnorm:      0.002314  CPU:  195.074
  Cycle:     50 Energy:     -7726.693800  Gnorm:      0.002835  CPU:  199.266
  ** Hessian calculated **
  Cycle:     51 Energy:     -7726.693855  Gnorm:      0.002365  CPU:  203.800
  Cycle:     52 Energy:     -7726.693908  Gnorm:      0.002276  CPU:  206.636
  Cycle:     53 Energy:     -7726.693972  Gnorm:      0.002182  CPU:  209.473
  Cycle:     54 Energy:     -7726.694059  Gnorm:      0.002010  CPU:  212.307
  Cycle:     55 Energy:     -7726.694347  Gnorm:      0.002130  CPU:  217.177
  Cycle:     56 Energy:     -7726.694549  Gnorm:      0.001943  CPU:  220.690
  Cycle:     57 Energy:     -7726.694634  Gnorm:      0.001314  CPU:  224.203
  Cycle:     58 Energy:     -7726.694703  Gnorm:      0.001539  CPU:  227.716
  Cycle:     59 Energy:     -7726.694808  Gnorm:      0.001804  CPU:  231.908
  Cycle:     60 Energy:     -7726.694961  Gnorm:      0.002369  CPU:  236.100
  ** Hessian calculated **
  Cycle:     61 Energy:     -7726.695010  Gnorm:      0.001855  CPU:  240.626
  Cycle:     62 Energy:     -7726.695054  Gnorm:      0.001792  CPU:  243.460
  Cycle:     63 Energy:     -7726.695106  Gnorm:      0.001721  CPU:  246.294
  Cycle:     64 Energy:     -7726.695292  Gnorm:      0.001609  CPU:  251.172
  Cycle:     65 Energy:     -7726.695505  Gnorm:      0.001343  CPU:  255.372
  Cycle:     66 Energy:     -7726.695648  Gnorm:      0.001899  CPU:  258.891
  Cycle:     67 Energy:     -7726.695744  Gnorm:      0.001684  CPU:  262.412
  Cycle:     68 Energy:     -7726.695812  Gnorm:      0.001831  CPU:  266.612
  Cycle:     69 Energy:     -7726.695912  Gnorm:      0.002123  CPU:  270.810
  Cycle:     70 Energy:     -7726.696073  Gnorm:      0.002602  CPU:  275.010
  ** Hessian calculated **
  Cycle:     71 Energy:     -7726.696122  Gnorm:      0.002278  CPU:  279.550
  Cycle:     72 Energy:     -7726.696171  Gnorm:      0.002190  CPU:  282.392
  Cycle:     73 Energy:     -7726.696229  Gnorm:      0.002096  CPU:  285.228
  Cycle:     74 Energy:     -7726.696307  Gnorm:      0.001926  CPU:  288.062
  Cycle:     75 Energy:     -7726.696572  Gnorm:      0.001832  CPU:  292.933
  Cycle:     76 Energy:     -7726.696745  Gnorm:      0.002119  CPU:  296.445
  Cycle:     77 Energy:     -7726.696839  Gnorm:      0.001398  CPU:  299.958
  Cycle:     78 Energy:     -7726.696884  Gnorm:      0.001372  CPU:  302.792
  Cycle:     79 Energy:     -7726.696986  Gnorm:      0.001694  CPU:  307.662
  Cycle:     80 Energy:     -7726.697140  Gnorm:      0.002146  CPU:  311.854
  ** Hessian calculated **
  Cycle:     81 Energy:     -7726.697184  Gnorm:      0.001817  CPU:  316.388
  Cycle:     82 Energy:     -7726.697226  Gnorm:      0.001746  CPU:  319.227
  Cycle:     83 Energy:     -7726.697275  Gnorm:      0.001668  CPU:  322.067
  Cycle:     84 Energy:     -7726.697450  Gnorm:      0.001500  CPU:  326.944
  Cycle:     85 Energy:     -7726.697644  Gnorm:      0.001273  CPU:  331.140
  Cycle:     86 Energy:     -7726.697773  Gnorm:      0.001843  CPU:  334.662
  Cycle:     87 Energy:     -7726.697857  Gnorm:      0.001680  CPU:  338.179
  Cycle:     88 Energy:     -7726.697926  Gnorm:      0.001804  CPU:  342.381
  Cycle:     89 Energy:     -7726.698028  Gnorm:      0.002111  CPU:  346.578
  Cycle:     90 Energy:     -7726.698191  Gnorm:      0.002650  CPU:  350.772
  ** Hessian calculated **
  Cycle:     91 Energy:     -7726.698242  Gnorm:      0.002286  CPU:  355.310
  Cycle:     92 Energy:     -7726.698293  Gnorm:      0.002196  CPU:  358.149
  Cycle:     93 Energy:     -7726.698353  Gnorm:      0.002096  CPU:  360.985
  Cycle:     94 Energy:     -7726.698434  Gnorm:      0.001909  CPU:  363.828
  Cycle:     95 Energy:     -7726.698699  Gnorm:      0.001779  CPU:  368.708
  Cycle:     96 Energy:     -7726.698847  Gnorm:      0.002064  CPU:  372.227
  Cycle:     97 Energy:     -7726.698911  Gnorm:      0.001399  CPU:  375.063
  Cycle:     98 Energy:     -7726.698955  Gnorm:      0.001324  CPU:  377.903
  Cycle:     99 Energy:     -7726.699060  Gnorm:      0.001659  CPU:  382.780
  Cycle:    100 Energy:     -7726.699202  Gnorm:      0.002161  CPU:  386.978
  ** Hessian calculated **
  Cycle:    101 Energy:     -7726.699244  Gnorm:      0.001729  CPU:  391.515
  Cycle:    102 Energy:     -7726.699283  Gnorm:      0.001672  CPU:  394.354
  Cycle:    103 Energy:     -7726.699329  Gnorm:      0.001600  CPU:  397.195
  Cycle:    104 Energy:     -7726.699492  Gnorm:      0.001449  CPU:  402.073
  Cycle:    105 Energy:     -7726.699669  Gnorm:      0.001439  CPU:  406.268
  Cycle:    106 Energy:     -7726.699784  Gnorm:      0.001899  CPU:  409.786
  Cycle:    107 Energy:     -7726.699853  Gnorm:      0.001580  CPU:  413.306
  Cycle:    108 Energy:     -7726.699928  Gnorm:      0.001919  CPU:  417.503
  Cycle:    109 Energy:     -7726.700040  Gnorm:      0.002221  CPU:  421.704
  Cycle:    110 Energy:     -7726.700221  Gnorm:      0.002891  CPU:  425.899
  ** Hessian calculated **
  Cycle:    111 Energy:     -7726.700280  Gnorm:      0.002342  CPU:  430.436
  Cycle:    112 Energy:     -7726.700338  Gnorm:      0.002250  CPU:  433.276
  Cycle:    113 Energy:     -7726.700406  Gnorm:      0.002131  CPU:  436.112
  Cycle:    114 Energy:     -7726.700497  Gnorm:      0.001916  CPU:  438.951
  Cycle:    115 Energy:     -7726.700768  Gnorm:      0.002152  CPU:  443.829
  Cycle:    116 Energy:     -7726.700880  Gnorm:      0.001335  CPU:  446.664
  Cycle:    117 Energy:     -7726.700927  Gnorm:      0.001177  CPU:  449.504
  Cycle:    118 Energy:     -7726.700969  Gnorm:      0.001218  CPU:  452.347
  Cycle:    119 Energy:     -7726.701087  Gnorm:      0.001822  CPU:  457.218
  Cycle:    120 Energy:     -7726.701227  Gnorm:      0.002326  CPU:  461.409
  ** Hessian calculated **
  Cycle:    121 Energy:     -7726.701278  Gnorm:      0.001863  CPU:  465.935
  Cycle:    122 Energy:     -7726.701324  Gnorm:      0.001771  CPU:  468.768
  Cycle:    123 Energy:     -7726.701378  Gnorm:      0.001688  CPU:  471.601
  Cycle:    124 Energy:     -7726.701564  Gnorm:      0.001553  CPU:  476.472
  Cycle:    125 Energy:     -7726.701743  Gnorm:      0.001797  CPU:  480.663
  Cycle:    126 Energy:     -7726.701837  Gnorm:      0.001464  CPU:  484.175
  Cycle:    127 Energy:     -7726.701884  Gnorm:      0.001674  CPU:  487.687
  Cycle:    128 Energy:     -7726.701957  Gnorm:      0.001717  CPU:  491.878
  Cycle:    129 Energy:     -7726.702080  Gnorm:      0.002086  CPU:  496.070
  Cycle:    130 Energy:     -7726.702276  Gnorm:      0.002493  CPU:  500.261
  ** Hessian calculated **
  Cycle:    131 Energy:     -7726.702324  Gnorm:      0.002282  CPU:  504.786
  Cycle:    132 Energy:     -7726.702371  Gnorm:      0.002181  CPU:  507.620
  Cycle:    133 Energy:     -7726.702426  Gnorm:      0.002077  CPU:  510.453
  Cycle:    134 Energy:     -7726.702500  Gnorm:      0.001904  CPU:  513.287
  Cycle:    135 Energy:     -7726.702598  Gnorm:      0.001686  CPU:  516.127
  Cycle:    136 Energy:     -7726.702859  Gnorm:      0.001974  CPU:  521.006
  Cycle:    137 Energy:     -7726.702975  Gnorm:      0.001728  CPU:  524.520
  Cycle:    138 Energy:     -7726.703012  Gnorm:      0.001511  CPU:  527.360
  Cycle:    139 Energy:     -7726.703049  Gnorm:      0.001366  CPU:  530.195
  Cycle:    140 Energy:     -7726.703171  Gnorm:      0.001734  CPU:  535.073
  ** Hessian calculated **
  Cycle:    141 Energy:     -7726.703200  Gnorm:      0.001531  CPU:  539.608
  Cycle:    142 Energy:     -7726.703228  Gnorm:      0.001468  CPU:  542.450
  Cycle:    143 Energy:     -7726.703262  Gnorm:      0.001415  CPU:  545.286
  Cycle:    144 Energy:     -7726.703307  Gnorm:      0.001322  CPU:  548.125
  Cycle:    145 Energy:     -7726.703472  Gnorm:      0.001246  CPU:  553.004
  Cycle:    146 Energy:     -7726.703637  Gnorm:      0.001862  CPU:  557.200
  Cycle:    147 Energy:     -7726.703751  Gnorm:      0.001697  CPU:  560.719
  Cycle:    148 Energy:     -7726.703810  Gnorm:      0.001960  CPU:  564.235
  Cycle:    149 Energy:     -7726.703902  Gnorm:      0.002160  CPU:  568.433
  Cycle:    150 Energy:     -7726.704060  Gnorm:      0.002506  CPU:  572.635
  ** Hessian calculated **
  Cycle:    151 Energy:     -7726.704112  Gnorm:      0.002331  CPU:  577.170
  Cycle:    152 Energy:     -7726.704161  Gnorm:      0.002221  CPU:  580.006
  Cycle:    153 Energy:     -7726.704220  Gnorm:      0.002100  CPU:  582.847
  Cycle:    154 Energy:     -7726.704297  Gnorm:      0.001928  CPU:  585.684
  Cycle:    155 Energy:     -7726.704400  Gnorm:      0.001704  CPU:  588.520
  Cycle:    156 Energy:     -7726.704656  Gnorm:      0.001652  CPU:  593.394
  Cycle:    157 Energy:     -7726.704741  Gnorm:      0.001123  CPU:  596.229
  Cycle:    158 Energy:     -7726.704790  Gnorm:      0.001196  CPU:  599.066
  Cycle:    159 Energy:     -7726.704861  Gnorm:      0.001554  CPU:  603.264
  Cycle:    160 Energy:     -7726.704950  Gnorm:      0.001782  CPU:  607.464
  ** Hessian calculated **
  Cycle:    161 Energy:     -7726.704982  Gnorm:      0.001587  CPU:  611.998
  Cycle:    162 Energy:     -7726.705012  Gnorm:      0.001529  CPU:  614.835
  Cycle:    163 Energy:     -7726.705048  Gnorm:      0.001462  CPU:  617.669
  Cycle:    164 Energy:     -7726.705096  Gnorm:      0.001359  CPU:  620.504
  Cycle:    165 Energy:     -7726.705267  Gnorm:      0.001309  CPU:  625.375
  Cycle:    166 Energy:     -7726.705425  Gnorm:      0.001923  CPU:  629.566
  Cycle:    167 Energy:     -7726.705513  Gnorm:      0.001574  CPU:  633.078
  Cycle:    168 Energy:     -7726.705565  Gnorm:      0.001743  CPU:  636.591
  Cycle:    169 Energy:     -7726.705652  Gnorm:      0.002103  CPU:  640.781
  Cycle:    170 Energy:     -7726.705798  Gnorm:      0.002501  CPU:  644.973
  ** Hessian calculated **
  Cycle:    171 Energy:     -7726.705848  Gnorm:      0.002234  CPU:  649.499
  Cycle:    172 Energy:     -7726.705896  Gnorm:      0.002124  CPU:  652.333
  Cycle:    173 Energy:     -7726.705953  Gnorm:      0.002013  CPU:  655.166
  Cycle:    174 Energy:     -7726.706027  Gnorm:      0.001835  CPU:  658.000
  Cycle:    175 Energy:     -7726.706266  Gnorm:      0.001709  CPU:  662.870
  Cycle:    176 Energy:     -7726.706389  Gnorm:      0.001654  CPU:  666.382
  Cycle:    177 Energy:     -7726.706438  Gnorm:      0.001265  CPU:  669.217
  Cycle:    178 Energy:     -7726.706474  Gnorm:      0.001231  CPU:  672.050
  Cycle:    179 Energy:     -7726.706566  Gnorm:      0.001646  CPU:  676.920
  Cycle:    180 Energy:     -7726.706689  Gnorm:      0.002176  CPU:  681.112
  ** Hessian calculated **
  Cycle:    181 Energy:     -7726.706730  Gnorm:      0.001714  CPU:  685.638
  Cycle:    182 Energy:     -7726.706768  Gnorm:      0.001641  CPU:  688.472
  Cycle:    183 Energy:     -7726.706812  Gnorm:      0.001571  CPU:  691.305
  Cycle:    184 Energy:     -7726.706871  Gnorm:      0.001442  CPU:  694.139
  Cycle:    185 Energy:     -7726.707063  Gnorm:      0.001524  CPU:  699.016
  Cycle:    186 Energy:     -7726.707184  Gnorm:      0.001809  CPU:  702.533
  Cycle:    187 Energy:     -7726.707250  Gnorm:      0.001563  CPU:  706.049
  Cycle:    188 Energy:     -7726.707313  Gnorm:      0.001792  CPU:  710.247
  Cycle:    189 Energy:     -7726.707403  Gnorm:      0.002141  CPU:  714.445
  Cycle:    190 Energy:     -7726.707551  Gnorm:      0.002638  CPU:  718.640
  ** Hessian calculated **
  Cycle:    191 Energy:     -7726.707604  Gnorm:      0.002187  CPU:  723.177
  Cycle:    192 Energy:     -7726.707655  Gnorm:      0.002084  CPU:  726.017
  Cycle:    193 Energy:     -7726.707714  Gnorm:      0.001969  CPU:  728.856
  Cycle:    194 Energy:     -7726.707792  Gnorm:      0.001774  CPU:  731.694
  Cycle:    195 Energy:     -7726.708028  Gnorm:      0.001815  CPU:  736.569
  Cycle:    196 Energy:     -7726.708131  Gnorm:      0.001810  CPU:  740.085
  Cycle:    197 Energy:     -7726.708169  Gnorm:      0.001449  CPU:  742.922
  Cycle:    198 Energy:     -7726.708203  Gnorm:      0.001326  CPU:  745.760
  Cycle:    199 Energy:     -7726.708308  Gnorm:      0.001638  CPU:  750.636
  Cycle:    200 Energy:     -7726.708455  Gnorm:      0.002414  CPU:  754.835
  ** Hessian calculated **
  Cycle:    201 Energy:     -7726.708504  Gnorm:      0.001753  CPU:  759.368
  Cycle:    202 Energy:     -7726.708546  Gnorm:      0.001679  CPU:  762.207
  Cycle:    203 Energy:     -7726.708595  Gnorm:      0.001605  CPU:  765.043
  Cycle:    204 Energy:     -7726.708762  Gnorm:      0.001427  CPU:  769.918
  Cycle:    205 Energy:     -7726.708905  Gnorm:      0.001908  CPU:  774.114
  Cycle:    206 Energy:     -7726.708982  Gnorm:      0.001448  CPU:  777.630
  Cycle:    207 Energy:     -7726.709012  Gnorm:      0.001461  CPU:  780.467
  Cycle:    208 Energy:     -7726.709086  Gnorm:      0.001681  CPU:  785.346
  Cycle:    209 Energy:     -7726.709200  Gnorm:      0.001963  CPU:  789.541
  Cycle:    210 Energy:     -7726.709412  Gnorm:      0.002543  CPU:  794.417
  ** Hessian calculated **
  Cycle:    211 Energy:     -7726.709459  Gnorm:      0.002155  CPU:  798.951
  Cycle:    212 Energy:     -7726.709503  Gnorm:      0.002037  CPU:  801.788
  Cycle:    213 Energy:     -7726.709555  Gnorm:      0.001939  CPU:  804.626
  Cycle:    214 Energy:     -7726.709622  Gnorm:      0.001769  CPU:  807.462
  Cycle:    215 Energy:     -7726.709842  Gnorm:      0.001725  CPU:  812.332
  Cycle:    216 Energy:     -7726.709970  Gnorm:      0.001491  CPU:  815.845
  Cycle:    217 Energy:     -7726.710014  Gnorm:      0.001295  CPU:  818.678
  Cycle:    218 Energy:     -7726.710050  Gnorm:      0.001226  CPU:  821.512
  Cycle:    219 Energy:     -7726.710140  Gnorm:      0.001544  CPU:  826.382
  Cycle:    220 Energy:     -7726.710262  Gnorm:      0.002166  CPU:  830.573
  ** Hessian calculated **
  Cycle:    221 Energy:     -7726.710303  Gnorm:      0.001720  CPU:  835.099
  Cycle:    222 Energy:     -7726.710341  Gnorm:      0.001652  CPU:  837.933
  Cycle:    223 Energy:     -7726.710385  Gnorm:      0.001569  CPU:  840.766
  Cycle:    224 Energy:     -7726.710442  Gnorm:      0.001451  CPU:  843.600
  Cycle:    225 Energy:     -7726.710629  Gnorm:      0.001738  CPU:  848.470
  Cycle:    226 Energy:     -7726.710758  Gnorm:      0.001671  CPU:  851.982
  Cycle:    227 Energy:     -7726.710813  Gnorm:      0.001498  CPU:  855.495
  Cycle:    228 Energy:     -7726.710875  Gnorm:      0.001843  CPU:  859.685
  Cycle:    229 Energy:     -7726.710970  Gnorm:      0.002170  CPU:  863.876
  Cycle:    230 Energy:     -7726.711122  Gnorm:      0.002794  CPU:  868.067
  ** Hessian calculated **
  Cycle:    231 Energy:     -7726.711178  Gnorm:      0.002236  CPU:  872.592
  Cycle:    232 Energy:     -7726.711230  Gnorm:      0.002111  CPU:  875.425
  Cycle:    233 Energy:     -7726.711291  Gnorm:      0.002001  CPU:  878.258
  Cycle:    234 Energy:     -7726.711372  Gnorm:      0.001796  CPU:  881.092
  Cycle:    235 Energy:     -7726.711607  Gnorm:      0.001967  CPU:  885.962
  Cycle:    236 Energy:     -7726.711715  Gnorm:      0.001488  CPU:  889.474
  Cycle:    237 Energy:     -7726.711745  Gnorm:      0.001296  CPU:  892.308
  Cycle:    238 Energy:     -7726.711775  Gnorm:      0.001242  CPU:  895.141
  Cycle:    239 Energy:     -7726.711876  Gnorm:      0.001591  CPU:  900.018
  Cycle:    240 Energy:     -7726.712016  Gnorm:      0.002257  CPU:  904.218
  ** Hessian calculated **
  Cycle:    241 Energy:     -7726.712057  Gnorm:      0.001688  CPU:  908.752
  Cycle:    242 Energy:     -7726.712095  Gnorm:      0.001632  CPU:  911.591
  Cycle:    243 Energy:     -7726.712138  Gnorm:      0.001561  CPU:  914.427
  Cycle:    244 Energy:     -7726.712196  Gnorm:      0.001431  CPU:  917.261
  Cycle:    245 Energy:     -7726.712382  Gnorm:      0.001622  CPU:  922.131
  Cycle:    246 Energy:     -7726.712498  Gnorm:      0.001794  CPU:  925.643
  Cycle:    247 Energy:     -7726.712541  Gnorm:      0.001534  CPU:  928.476
  Cycle:    248 Energy:     -7726.712608  Gnorm:      0.001767  CPU:  932.667
  Cycle:    249 Energy:     -7726.712712  Gnorm:      0.002142  CPU:  936.859
  Cycle:    250 Energy:     -7726.712873  Gnorm:      0.003084  CPU:  941.050
  ** Hessian calculated **
  Cycle:    251 Energy:     -7726.712939  Gnorm:      0.002258  CPU:  945.576
  Cycle:    252 Energy:     -7726.712997  Gnorm:      0.002153  CPU:  948.409
  Cycle:    253 Energy:     -7726.713062  Gnorm:      0.002027  CPU:  951.243
  Cycle:    254 Energy:     -7726.713146  Gnorm:      0.001816  CPU:  954.081
  Cycle:    255 Energy:     -7726.713375  Gnorm:      0.002114  CPU:  958.956
  Cycle:    256 Energy:     -7726.713480  Gnorm:      0.001428  CPU:  962.478
  Cycle:    257 Energy:     -7726.713507  Gnorm:      0.001258  CPU:  965.315
  Cycle:    258 Energy:     -7726.713534  Gnorm:      0.001238  CPU:  968.157
  Cycle:    259 Energy:     -7726.713629  Gnorm:      0.001559  CPU:  973.035
  Cycle:    260 Energy:     -7726.713767  Gnorm:      0.001983  CPU:  977.231
  ** Hessian calculated **
  Cycle:    261 Energy:     -7726.713801  Gnorm:      0.001618  CPU:  981.766
  Cycle:    262 Energy:     -7726.713833  Gnorm:      0.001555  CPU:  984.603
  Cycle:    263 Energy:     -7726.713870  Gnorm:      0.001493  CPU:  987.438
  Cycle:    264 Energy:     -7726.713920  Gnorm:      0.001394  CPU:  990.272
  Cycle:    265 Energy:     -7726.714088  Gnorm:      0.001484  CPU:  995.142
  Cycle:    266 Energy:     -7726.714213  Gnorm:      0.001670  CPU:  998.654
  Cycle:    267 Energy:     -7726.714281  Gnorm:      0.001656  CPU: 1002.166
  Cycle:    268 Energy:     -7726.714337  Gnorm:      0.001672  CPU: 1005.678
  Cycle:    269 Energy:     -7726.714424  Gnorm:      0.002017  CPU: 1009.869
  Cycle:    270 Energy:     -7726.714564  Gnorm:      0.002406  CPU: 1014.060
  ** Hessian calculated **
  Cycle:    271 Energy:     -7726.714611  Gnorm:      0.002165  CPU: 1018.586
  Cycle:    272 Energy:     -7726.714656  Gnorm:      0.002060  CPU: 1021.420
  Cycle:    273 Energy:     -7726.714708  Gnorm:      0.001949  CPU: 1024.253
  Cycle:    274 Energy:     -7726.714778  Gnorm:      0.001778  CPU: 1027.092
  Cycle:    275 Energy:     -7726.714998  Gnorm:      0.001734  CPU: 1031.969
  Cycle:    276 Energy:     -7726.715119  Gnorm:      0.001571  CPU: 1035.484
  Cycle:    277 Energy:     -7726.715161  Gnorm:      0.001248  CPU: 1038.323
  Cycle:    278 Energy:     -7726.715195  Gnorm:      0.001224  CPU: 1041.158
  Cycle:    279 Energy:     -7726.715287  Gnorm:      0.001621  CPU: 1046.037
  Cycle:    280 Energy:     -7726.715407  Gnorm:      0.002419  CPU: 1050.235
  ** Hessian calculated **
  Cycle:    281 Energy:     -7726.715453  Gnorm:      0.001773  CPU: 1054.775
  Cycle:    282 Energy:     -7726.715495  Gnorm:      0.001714  CPU: 1057.610
  Cycle:    283 Energy:     -7726.715543  Gnorm:      0.001619  CPU: 1060.450
  Cycle:    284 Energy:     -7726.715607  Gnorm:      0.001479  CPU: 1063.284
  Cycle:    285 Energy:     -7726.715805  Gnorm:      0.001640  CPU: 1068.153
  Cycle:    286 Energy:     -7726.715906  Gnorm:      0.001908  CPU: 1071.666
  Cycle:    287 Energy:     -7726.715944  Gnorm:      0.001575  CPU: 1074.499
  Cycle:    288 Energy:     -7726.716006  Gnorm:      0.001706  CPU: 1078.691
  Cycle:    289 Energy:     -7726.716103  Gnorm:      0.002048  CPU: 1082.882
  Cycle:    290 Energy:     -7726.716249  Gnorm:      0.002940  CPU: 1087.073
  ** Hessian calculated **
  Cycle:    291 Energy:     -7726.716308  Gnorm:      0.002097  CPU: 1091.599
  Cycle:    292 Energy:     -7726.716356  Gnorm:      0.002012  CPU: 1094.433
  Cycle:    293 Energy:     -7726.716409  Gnorm:      0.001912  CPU: 1097.267
  Cycle:    294 Energy:     -7726.716476  Gnorm:      0.001738  CPU: 1100.104
  Cycle:    295 Energy:     -7726.716677  Gnorm:      0.001863  CPU: 1104.983
  Cycle:    296 Energy:     -7726.716791  Gnorm:      0.001330  CPU: 1108.502
  Cycle:    297 Energy:     -7726.716822  Gnorm:      0.001212  CPU: 1111.343
  Cycle:    298 Energy:     -7726.716853  Gnorm:      0.001237  CPU: 1114.184
  Cycle:    299 Energy:     -7726.716957  Gnorm:      0.001663  CPU: 1119.062
  Cycle:    300 Energy:     -7726.717096  Gnorm:      0.002244  CPU: 1123.259
  ** Hessian calculated **
  Cycle:    301 Energy:     -7726.717139  Gnorm:      0.001786  CPU: 1127.793
  Cycle:    302 Energy:     -7726.717178  Gnorm:      0.001711  CPU: 1130.627
  Cycle:    303 Energy:     -7726.717223  Gnorm:      0.001634  CPU: 1133.465
  Cycle:    304 Energy:     -7726.717284  Gnorm:      0.001499  CPU: 1136.299
  Cycle:    305 Energy:     -7726.717474  Gnorm:      0.001583  CPU: 1141.169
  Cycle:    306 Energy:     -7726.717586  Gnorm:      0.001544  CPU: 1144.681
  Cycle:    307 Energy:     -7726.717626  Gnorm:      0.001412  CPU: 1147.514
  Cycle:    308 Energy:     -7726.717687  Gnorm:      0.001551  CPU: 1151.705
  Cycle:    309 Energy:     -7726.717780  Gnorm:      0.001854  CPU: 1155.896
  Cycle:    310 Energy:     -7726.717921  Gnorm:      0.002547  CPU: 1160.087
  ** Hessian calculated **
  Cycle:    311 Energy:     -7726.717969  Gnorm:      0.002063  CPU: 1164.612
  Cycle:    312 Energy:     -7726.718014  Gnorm:      0.001964  CPU: 1167.446
  Cycle:    313 Energy:     -7726.718066  Gnorm:      0.001869  CPU: 1170.279
  Cycle:    314 Energy:     -7726.718135  Gnorm:      0.001684  CPU: 1173.113
  Cycle:    315 Energy:     -7726.718344  Gnorm:      0.001833  CPU: 1177.982
  Cycle:    316 Energy:     -7726.718447  Gnorm:      0.001488  CPU: 1181.494
  Cycle:    317 Energy:     -7726.718478  Gnorm:      0.001306  CPU: 1184.327
  Cycle:    318 Energy:     -7726.718509  Gnorm:      0.001265  CPU: 1187.161
  Cycle:    319 Energy:     -7726.718612  Gnorm:      0.001611  CPU: 1192.039
  Cycle:    320 Energy:     -7726.718753  Gnorm:      0.002361  CPU: 1196.236
  ** Hessian calculated **
  Cycle:    321 Energy:     -7726.718798  Gnorm:      0.001764  CPU: 1200.771
  Cycle:    322 Energy:     -7726.718837  Gnorm:      0.001698  CPU: 1203.611
  Cycle:    323 Energy:     -7726.718883  Gnorm:      0.001617  CPU: 1206.451
  Cycle:    324 Energy:     -7726.718944  Gnorm:      0.001479  CPU: 1209.290
  Cycle:    325 Energy:     -7726.719138  Gnorm:      0.001461  CPU: 1214.160
  Cycle:    326 Energy:     -7726.719233  Gnorm:      0.001979  CPU: 1217.673
  Cycle:    327 Energy:     -7726.719282  Gnorm:      0.001559  CPU: 1220.506
  Cycle:    328 Energy:     -7726.719318  Gnorm:      0.001478  CPU: 1223.340
  Cycle:    329 Energy:     -7726.719409  Gnorm:      0.001838  CPU: 1228.218
  Cycle:    330 Energy:     -7726.719537  Gnorm:      0.002407  CPU: 1232.419
  ** Hessian calculated **
  Cycle:    331 Energy:     -7726.719579  Gnorm:      0.001898  CPU: 1236.953
  Cycle:    332 Energy:     -7726.719620  Gnorm:      0.001822  CPU: 1239.791
  Cycle:    333 Energy:     -7726.719667  Gnorm:      0.001733  CPU: 1242.629
  Cycle:    334 Energy:     -7726.719728  Gnorm:      0.001568  CPU: 1245.467
  Cycle:    335 Energy:     -7726.719916  Gnorm:      0.001808  CPU: 1250.379
  Cycle:    336 Energy:     -7726.720015  Gnorm:      0.001471  CPU: 1253.899
  Cycle:    337 Energy:     -7726.720048  Gnorm:      0.001341  CPU: 1256.738
  Cycle:    338 Energy:     -7726.720082  Gnorm:      0.001319  CPU: 1259.574
  Cycle:    339 Energy:     -7726.720195  Gnorm:      0.001727  CPU: 1264.455
  Cycle:    340 Energy:     -7726.720357  Gnorm:      0.002309  CPU: 1268.653
  ** Hessian calculated **
  Cycle:    341 Energy:     -7726.720403  Gnorm:      0.001894  CPU: 1273.189
  Cycle:    342 Energy:     -7726.720446  Gnorm:      0.001803  CPU: 1276.029
  Cycle:    343 Energy:     -7726.720495  Gnorm:      0.001706  CPU: 1278.865
  Cycle:    344 Energy:     -7726.720560  Gnorm:      0.001560  CPU: 1281.705
  Cycle:    345 Energy:     -7726.720766  Gnorm:      0.001458  CPU: 1286.582
  Cycle:    346 Energy:     -7726.720868  Gnorm:      0.001593  CPU: 1290.101
  Cycle:    347 Energy:     -7726.720924  Gnorm:      0.001600  CPU: 1293.624
  Cycle:    348 Energy:     -7726.720958  Gnorm:      0.001432  CPU: 1296.462
  Cycle:    349 Energy:     -7726.721036  Gnorm:      0.001740  CPU: 1301.339
  Cycle:    350 Energy:     -7726.721149  Gnorm:      0.002071  CPU: 1305.536
  ** Hessian calculated **
  Cycle:    351 Energy:     -7726.721184  Gnorm:      0.001887  CPU: 1310.069
  Cycle:    352 Energy:     -7726.721218  Gnorm:      0.001805  CPU: 1312.903
  Cycle:    353 Energy:     -7726.721258  Gnorm:      0.001711  CPU: 1315.737
  Cycle:    354 Energy:     -7726.721312  Gnorm:      0.001582  CPU: 1318.579
  Cycle:    355 Energy:     -7726.721382  Gnorm:      0.001445  CPU: 1321.416
  Cycle:    356 Energy:     -7726.721587  Gnorm:      0.001813  CPU: 1326.298
  Cycle:    357 Energy:     -7726.721647  Gnorm:      0.001337  CPU: 1329.141
  Cycle:    358 Energy:     -7726.721688  Gnorm:      0.001277  CPU: 1331.978
  Cycle:    359 Energy:     -7726.721772  Gnorm:      0.001602  CPU: 1336.856
  Cycle:    360 Energy:     -7726.721870  Gnorm:      0.002222  CPU: 1341.055
  ** Hessian calculated **
  Cycle:    361 Energy:     -7726.721910  Gnorm:      0.001753  CPU: 1345.591
  Cycle:    362 Energy:     -7726.721947  Gnorm:      0.001672  CPU: 1348.428
  Cycle:    363 Energy:     -7726.721990  Gnorm:      0.001600  CPU: 1351.269
  Cycle:    364 Energy:     -7726.722047  Gnorm:      0.001465  CPU: 1354.111
  Cycle:    365 Energy:     -7726.722227  Gnorm:      0.001558  CPU: 1358.989
  Cycle:    366 Energy:     -7726.722336  Gnorm:      0.001571  CPU: 1362.504
  Cycle:    367 Energy:     -7726.722376  Gnorm:      0.001420  CPU: 1365.344
  Cycle:    368 Energy:     -7726.722434  Gnorm:      0.001531  CPU: 1369.542
  Cycle:    369 Energy:     -7726.722521  Gnorm:      0.001890  CPU: 1373.743
  Cycle:    370 Energy:     -7726.722653  Gnorm:      0.002508  CPU: 1377.936
  ** Hessian calculated **
  Cycle:    371 Energy:     -7726.722700  Gnorm:      0.002054  CPU: 1382.476
  Cycle:    372 Energy:     -7726.722745  Gnorm:      0.001957  CPU: 1385.318
  Cycle:    373 Energy:     -7726.722798  Gnorm:      0.001850  CPU: 1388.153
  Cycle:    374 Energy:     -7726.722866  Gnorm:      0.001667  CPU: 1390.994
  Cycle:    375 Energy:     -7726.723078  Gnorm:      0.001531  CPU: 1395.874
  Cycle:    376 Energy:     -7726.723152  Gnorm:      0.001468  CPU: 1398.710
  Cycle:    377 Energy:     -7726.723199  Gnorm:      0.001170  CPU: 1401.547
  Cycle:    378 Energy:     -7726.723233  Gnorm:      0.001224  CPU: 1404.382
  Cycle:    379 Energy:     -7726.723314  Gnorm:      0.001673  CPU: 1409.258
  Cycle:    380 Energy:     -7726.723434  Gnorm:      0.001949  CPU: 1413.456
  ** Hessian calculated **
  Cycle:    381 Energy:     -7726.723468  Gnorm:      0.001711  CPU: 1417.989
  Cycle:    382 Energy:     -7726.723500  Gnorm:      0.001634  CPU: 1420.826
  Cycle:    383 Energy:     -7726.723538  Gnorm:      0.001560  CPU: 1423.664
  Cycle:    384 Energy:     -7726.723588  Gnorm:      0.001432  CPU: 1426.498
  Cycle:    385 Energy:     -7726.723758  Gnorm:      0.001316  CPU: 1431.373
  Cycle:    386 Energy:     -7726.723871  Gnorm:      0.001664  CPU: 1434.889
  Cycle:    387 Energy:     -7726.723941  Gnorm:      0.001401  CPU: 1438.404
  Cycle:    388 Energy:     -7726.723974  Gnorm:      0.001432  CPU: 1441.241
  Cycle:    389 Energy:     -7726.724054  Gnorm:      0.001764  CPU: 1446.119
  Cycle:    390 Energy:     -7726.724170  Gnorm:      0.002229  CPU: 1450.315
  ** Hessian calculated **
  Cycle:    391 Energy:     -7726.724209  Gnorm:      0.001952  CPU: 1454.850
  Cycle:    392 Energy:     -7726.724246  Gnorm:      0.001863  CPU: 1457.685
  Cycle:    393 Energy:     -7726.724291  Gnorm:      0.001762  CPU: 1460.521
  Cycle:    394 Energy:     -7726.724349  Gnorm:      0.001612  CPU: 1463.356
  Cycle:    395 Energy:     -7726.724425  Gnorm:      0.001430  CPU: 1466.193
  Cycle:    396 Energy:     -7726.724586  Gnorm:      0.001941  CPU: 1470.389
  Cycle:    397 Energy:     -7726.724691  Gnorm:      0.001223  CPU: 1473.908
  Cycle:    398 Energy:     -7726.724721  Gnorm:      0.001274  CPU: 1476.744
  Cycle:    399 Energy:     -7726.724751  Gnorm:      0.001306  CPU: 1479.580
  Cycle:    400 Energy:     -7726.724862  Gnorm:      0.001634  CPU: 1484.456
  ** Hessian calculated **
  Cycle:    401 Energy:     -7726.724887  Gnorm:      0.001521  CPU: 1488.989
  Cycle:    402 Energy:     -7726.724911  Gnorm:      0.001461  CPU: 1491.827
  Cycle:    403 Energy:     -7726.724940  Gnorm:      0.001398  CPU: 1494.662
  Cycle:    404 Energy:     -7726.724978  Gnorm:      0.001316  CPU: 1497.498
  Cycle:    405 Energy:     -7726.725118  Gnorm:      0.001170  CPU: 1502.375
  Cycle:    406 Energy:     -7726.725257  Gnorm:      0.001609  CPU: 1506.569
  Cycle:    407 Energy:     -7726.725345  Gnorm:      0.001736  CPU: 1510.084
  Cycle:    408 Energy:     -7726.725379  Gnorm:      0.001671  CPU: 1512.921
  Cycle:    409 Energy:     -7726.725462  Gnorm:      0.001949  CPU: 1517.794
  Cycle:    410 Energy:     -7726.725591  Gnorm:      0.002307  CPU: 1521.991
  ** Hessian calculated **
  Cycle:    411 Energy:     -7726.725963  Gnorm:      0.002306  CPU: 1527.882
  Cycle:    412 Energy:     -7726.726595  Gnorm:      0.002306  CPU: 1532.759
  Cycle:    413 Energy:     -7726.727571  Gnorm:      0.002305  CPU: 1537.633
  Cycle:    414 Energy:     -7726.729029  Gnorm:      0.002302  CPU: 1542.508
  Cycle:    415 Energy:     -7726.731172  Gnorm:      0.002296  CPU: 1547.382
  Cycle:    416 Energy:     -7726.733756  Gnorm:      0.002287  CPU: 1551.580
  Cycle:    417 Energy:     -7726.737941  Gnorm:      0.002267  CPU: 1556.453
  Cycle:    418 Energy:     -7726.744025  Gnorm:      0.002233  CPU: 1561.327
  Cycle:    419 Energy:     -7726.751013  Gnorm:      0.002179  CPU: 1565.524
  Cycle:    420 Energy:     -7726.761724  Gnorm:      0.002083  CPU: 1570.400
  ** Hessian calculated **
  Cycle:    421 Energy:     -7726.774028  Gnorm:      0.001938  CPU: 1576.292
  Cycle:    422 Energy:     -7726.788563  Gnorm:      0.001867  CPU: 1580.486
  Cycle:    423 Energy:     -7726.804119  Gnorm:      0.001726  CPU: 1584.682
  Cycle:    424 Energy:     -7726.813784  Gnorm:      0.001419  CPU: 1588.196
  Cycle:    425 Energy:     -7726.817439  Gnorm:      0.000980  CPU: 1592.395
  Cycle:    426 Energy:     -7726.818302  Gnorm:      0.000560  CPU: 1596.590
  Cycle:    427 Energy:     -7726.818513  Gnorm:      0.000326  CPU: 1600.785
  Cycle:    428 Energy:     -7726.818559  Gnorm:      0.000181  CPU: 1604.301
  Cycle:    429 Energy:     -7726.818572  Gnorm:      0.000143  CPU: 1607.137
  Cycle:    430 Energy:     -7726.818578  Gnorm:      0.000085  CPU: 1609.973
  ** Hessian calculated **
  Cycle:    431 Energy:     -7726.818578  Gnorm:      0.000046  CPU: 1614.508
  Cycle:    432 Energy:     -7726.818578  Gnorm:      0.000032  CPU: 1617.343
  Cycle:    433 Energy:     -7726.818578  Gnorm:      0.000026  CPU: 1620.179


  **** Optimisation achieved ****


  Final energy =   -7726.81857808 eV
  Final Gnorm  =       0.00002274

  Components of energy : 

--------------------------------------------------------------------------------
  Interatomic potentials     =        2064.51512816 eV
  Three-body potentials      =           0.45406215 eV
  Monopole - monopole (real) =       -6614.64663615 eV
  Monopole - monopole (recip)=       -3170.68313247 eV
  Monopole - monopole (total)=       -9785.32976862 eV
  Neutralising energy        =          -6.45799977 eV
--------------------------------------------------------------------------------
  Total lattice energy       =       -7726.81857808 eV
--------------------------------------------------------------------------------
  Total lattice energy       =         -745519.8775 kJ/(mole unit cells)
--------------------------------------------------------------------------------

  Final fractional coordinates of atoms :

--------------------------------------------------------------------------------
   No.  Atomic        x           y          z          Radius
        Label       (Frac)      (Frac)     (Frac)       (Angs) 
--------------------------------------------------------------------------------
     1  Ge    c     0.699600    0.375700    0.033890    0.000000
     2  Si    c     0.593096    0.308674    0.363328    0.000000
     3  Si    c     0.670143    0.290034    0.697910    0.000000
     4  Si    c     0.269959    0.603104    0.531284    0.000000
     5  Si    c     0.367459    0.659770    0.862927    0.000000
     6  Si    c     0.297417    0.690513    0.198764    0.000000
     7  Si    c     0.349897    0.685907    0.299206    0.000000
     8  Si    c     0.313426    0.605020    0.963161    0.000000
     9  Si    c     0.281297    0.663270    0.633517    0.000000
    10  Si    c     0.611655    0.281204    0.799572    0.000000
    11  Si    c     0.649332    0.364045    0.463813    0.000000
    12  Si    c     0.670093    0.307316    0.132791    0.000000
    13  Si    c     0.520151    0.401113    0.966374    0.000000
    14  Si    c     0.556891    0.095291    0.301328    0.000000
    15  Ge    c     0.886547    0.458445    0.630594    0.000000
    16  Si    c     0.439478    0.564108    0.464425    0.000000
    17  Si    c     0.405448    0.870195    0.798225    0.000000
    18  Si    c     0.090773    0.519209    0.131443    0.000000
    19  Si    c     0.386270    0.511811    0.362989    0.000000
    20  Si    c     0.102932    0.575482    0.027930    0.000000
    21  Si    c     0.459011    0.877288    0.696891    0.000000
    22  Si    c     0.573489    0.454258    0.864010    0.000000
    23  Si    c     0.849327    0.391684    0.531678    0.000000
    24  Si    c     0.506033    0.098025    0.199975    0.000000
    25  Si    c     0.291771    0.383490    0.848465    0.000000
    26  Si    c     0.577846    0.891353    0.184614    0.000000
    27  Si    c     0.063925    0.678858    0.517998    0.000000
    28  Si    c     0.668445    0.584738    0.348823    0.000000
    29  Si    c     0.388911    0.085257    0.683717    0.000000
    30  Si    c     0.886465    0.289132    0.012143    0.000000
    31  Si    c     0.369373    0.286150    0.478525    0.000000
    32  Si    c     0.875391    0.591619    0.145501    0.000000
    33  Si    c     0.687164    0.079807    0.812962    0.000000
    34  Si    c     0.591364    0.682098    0.979126    0.000000
    35  Si    c     0.081207    0.380194    0.652517    0.000000
    36  Si    c     0.274346    0.886456    0.314896    0.000000
    37  Si    c     0.240948    0.326567    0.948769    0.000000
    38  Si    c     0.633308    0.895174    0.285469    0.000000
    39  Si    c     0.067184    0.737437    0.620222    0.000000
    40  Si    c     0.720017    0.643445    0.449521    0.000000
    41  Si    c     0.329147    0.070910    0.784217    0.000000
    42  Si    c     0.887089    0.238231    0.115267    0.000000
    43  Si    c     0.310392    0.234857    0.377949    0.000000
    44  Ge    c     0.898605    0.658581    0.042228    0.000000
    45  Si    c     0.738548    0.078491    0.712039    0.000000
    46  Si    c     0.649351    0.731648    0.878445    0.000000
    47  Si    c     0.056326    0.318073    0.549389    0.000000
    48  Si    c     0.224964    0.897013    0.214257    0.000000
    49  Si    c     0.960450    0.112683    0.963919    0.000000
    50  Si    c     0.850534    0.832547    0.299450    0.000000
    51  Si    c     0.142514    0.021566    0.632920    0.000000
    52  Si    c     0.000639    0.861845    0.466884    0.000000
    53  Si    c     0.111806    0.132801    0.799571    0.000000
    54  Si    c     0.826011    0.960072    0.132858    0.000000
    55  Si    c     0.094103    0.953519    0.365553    0.000000
    56  Si    c     0.837501    0.875754    0.031207    0.000000
    57  Si    c     0.019476    0.135343    0.699312    0.000000
    58  Si    c     0.866528    0.011102    0.864014    0.000000
    59  Si    c     0.124902    0.105585    0.532059    0.000000
    60  Si    c     0.945339    0.837026    0.198258    0.000000
    61  O2    c     0.907992    0.002986    0.001409    0.000000
    62  O2    c     0.970255    0.907870    0.333516    0.000000
    63  O2    c     0.058607    0.056712    0.665593    0.000000
    64  O2    c     0.040923    0.981032    0.500583    0.000000
    65  O2    c     0.992034    0.055160    0.833208    0.000000
    66  O2    c     0.906148    0.919632    0.166106    0.000000
    67  O2    c     0.309843    0.561261    0.330878    0.000000
    68  O2    c     0.408748    0.752306    0.663533    0.000000
    69  O2    c     0.231412    0.644676    0.996958    0.000000
    70  O2    c     0.650022    0.403737    0.832402    0.000000
    71  O2    c     0.557375    0.225761    0.169606    0.000000
    72  O2    c     0.733897    0.321847    0.494314    0.000000
    73  O3    c     0.562338    0.325208    0.998475    0.000000
    74  O3    c     0.751617    0.409841    0.666961    0.000000
    75  O2    c     0.633590    0.222762    0.332658    0.000000
    76  O2    c     0.389242    0.638914    0.497180    0.000000
    77  O2    c     0.213107    0.568514    0.165399    0.000000
    78  O2    c     0.329227    0.743745    0.830118    0.000000
    79  O2    c     0.115591    0.198024    0.968750    0.000000
    80  O2    c     0.759833    0.895471    0.305610    0.000000
    81  O2    c     0.082342    0.869929    0.638443    0.000000
    82  O2    c     0.845027    0.771027    0.470030    0.000000
    83  O2    c     0.202649    0.070136    0.804853    0.000000
    84  O2    c     0.887309    0.114403    0.136659    0.000000
    85  O2    c     0.183678    0.107010    0.358423    0.000000
    86  O3    c     0.920187    0.807128    0.025848    0.000000
    87  O2    c     0.866339    0.080121    0.692032    0.000000
    88  O2    c     0.776263    0.857484    0.858101    0.000000
    89  O2    c     0.059753    0.194846    0.528568    0.000000
    90  O2    c     0.100641    0.900228    0.193847    0.000000
    91  O2    c     0.904956    0.849316    0.248964    0.000000
    92  O2    c     0.124253    0.058371    0.582399    0.000000
    93  O2    c     0.915159    0.047211    0.915289    0.000000
    94  O2    c     0.052791    0.113762    0.749644    0.000000
    95  O2    c     0.836723    0.918729    0.082745    0.000000
    96  O2    c     0.046062    0.917755    0.416880    0.000000
    97  O2    c     0.900031    0.203401    0.972944    0.000000
    98  O2    c     0.766250    0.680685    0.310192    0.000000
    99  O2    c     0.294664    0.092245    0.644973    0.000000
   100  O2    c     0.065597    0.776275    0.479566    0.000000
   101  O2    c     0.194750    0.285081    0.809891    0.000000
   102  O2    c     0.674346    0.890478    0.146158    0.000000
   103  O2    c     0.176393    0.884571    0.353553    0.000000
   104  O2    c     0.687447    0.778889    0.018122    0.000000
   105  O2    c     0.100689    0.287415    0.687745    0.000000
   106  O2    c     0.785761    0.080673    0.851192    0.000000
   107  O2    c     0.274397    0.187891    0.516866    0.000000
   108  O2    c     0.877477    0.686346    0.185764    0.000000
   109  O2    c     0.294839    0.630445    0.248523    0.000000
   110  O2    c     0.325287    0.659445    0.581345    0.000000
   111  O2    c     0.308007    0.659773    0.913000    0.000000
   112  O2    c     0.668821    0.338020    0.749804    0.000000
   113  O3    c     0.607882    0.302486    0.084979    0.000000
   114  O2    c     0.648775    0.308730    0.413501    0.000000
   115  O2    c     0.361844    0.315669    0.966731    0.000000
   116  O2    c     0.644389    0.027037    0.304290    0.000000
   117  O3    c     0.936761    0.624745    0.639913    0.000000
   118  O2    c     0.596363    0.651768    0.467979    0.000000
   119  O2    c     0.317686    0.938278    0.802229    0.000000
   120  O2    c     0.016974    0.363802    0.134020    0.000000
   121  O2    c     0.298370    0.355726    0.359893    0.000000
   122  O3    c     0.043944    0.668403    0.026766    0.000000
   123  O2    c     0.615900    0.944763    0.693431    0.000000
   124  O2    c     0.659313    0.610224    0.859913    0.000000
   125  O2    c     0.924270    0.308541    0.530792    0.000000
   126  O2    c     0.349069    0.028211    0.196017    0.000000
   127  O3    c     0.751726    0.280117    0.004629    0.000000
   128  O2    c     0.668238    0.451465    0.341021    0.000000
   129  O2    c     0.522826    0.218334    0.677323    0.000000
   130  O2    c     0.195935    0.673812    0.511302    0.000000
   131  O2    c     0.293559    0.517264    0.839805    0.000000
   132  O2    c     0.441276    0.759394    0.176352    0.000000
   133  O2    c     0.273671    0.752598    0.321605    0.000000
   134  O2    c     0.457281    0.683745    0.985560    0.000000
   135  O2    c     0.215529    0.519170    0.653900    0.000000
   136  O2    c     0.684970    0.211380    0.821758    0.000000
   137  O2    c     0.505532    0.290584    0.486338    0.000000
   138  O2    c     0.744958    0.454291    0.153225    0.000000
   139  O1    c     0.766018    0.539555    0.017186    0.000000
   140  O2    c     0.436333    0.235485    0.357803    0.000000
   141  O2    c     0.738139    0.202123    0.692225    0.000000
   142  O2    c     0.179127    0.448863    0.530776    0.000000
   143  O2    c     0.524670    0.734793    0.859078    0.000000
[...]
     59 Si    c       0.000033     -0.000068     -0.000258      0.000000
     60 Si    c      -0.000243     -0.000631     -0.000097      0.000000
     61 O2    c       0.000426     -0.000452      0.000403      0.000000
     62 O2    c       0.000294      0.000148     -0.000158      0.000000
     63 O2    c       0.000093     -0.000150     -0.000233      0.000000
     64 O2    c       0.000055     -0.000088     -0.000217      0.000000
     65 O2    c      -0.000109      0.000169     -0.000276      0.000000
     66 O2    c       0.000454      0.000045      0.000130      0.000000
     67 O2    c       0.000303      0.000309      0.000646      0.000000
     68 O2    c       0.000154     -0.000315     -0.000008      0.000000
     69 O2    c       0.000521      0.000005      0.000765      0.000000
     70 O2    c       0.000009     -0.000026     -0.000626      0.000000
     71 O2    c      -0.000043     -0.000234      0.000666      0.000000
     72 O2    c       0.000180      0.000216     -0.000113      0.000000
     73 O3    c      -0.000110     -0.000577      0.001159      0.000000
     74 O3    c      -0.000002     -0.000235     -0.000425      0.000000
     75 O2    c       0.000054      0.000211     -0.000013      0.000000
     76 O2    c       0.000355      0.000123      0.000622      0.000000
     77 O2    c       0.000280      0.000019      0.000572      0.000000
     78 O2    c       0.000323      0.000063      0.000404      0.000000
     79 O2    c       0.000648     -0.000048     -0.000447      0.000000
     80 O2    c       0.000272      0.000234     -0.000184      0.000000
     81 O2    c      -0.000010     -0.000088     -0.000001      0.000000
     82 O2    c       0.000494      0.000030      0.000263      0.000000
     83 O2    c       0.000240     -0.000052     -0.000591      0.000000
     84 O2    c       0.000033      0.000204      0.000923      0.000000
     85 O2    c       0.000254      0.000125      0.000226      0.000000
     86 O3    c       0.001510     -0.000913     -0.000281      0.000000
     87 O2    c      -0.000033     -0.000133      0.000022      0.000000
     88 O2    c      -0.000099      0.000170      0.000563      0.000000
     89 O2    c       0.000402      0.000219      0.000137      0.000000
     90 O2    c       0.000561      0.000171      0.000020      0.000000
     91 O2    c       0.000221      0.000391      0.000997      0.000000
     92 O2    c      -0.000072      0.000174      0.000506      0.000000
     93 O2    c      -0.000167     -0.000067     -0.001111      0.000000
     94 O2    c       0.000025      0.000042      0.001375      0.000000
     95 O2    c       0.000001      0.000502      0.001339      0.000000
     96 O2    c       0.000152      0.000091      0.000429      0.000000
     97 O2    c      -0.000605      0.000556      0.000451      0.000000
     98 O2    c       0.000186      0.000182      0.000418      0.000000
     99 O2    c       0.000045     -0.000070      0.001007      0.000000
    100 O2    c       0.000147      0.000267      0.000561      0.000000
    101 O2    c      -0.000049      0.000188     -0.000389      0.000000
    102 O2    c       0.000244      0.000241      0.000620      0.000000
    103 O2    c       0.000213      0.000266     -0.000084      0.000000
    104 O2    c      -0.000758     -0.000222      0.001161      0.000000
    105 O2    c      -0.000026     -0.000257      0.000067      0.000000
    106 O2    c       0.000058     -0.000119     -0.000118      0.000000
    107 O2    c       0.000210      0.000124     -0.000218      0.000000
    108 O2    c       0.000395     -0.000149     -0.000060      0.000000
    109 O2    c       0.000025      0.000506     -0.000018      0.000000
    110 O2    c       0.000371     -0.000101      0.001366      0.000000
    111 O2    c       0.000335      0.000002     -0.000025      0.000000
    112 O2    c       0.000025     -0.000009     -0.000487      0.000000
    113 O3    c      -0.000089     -0.000571      0.003871      0.000000
    114 O2    c       0.000145      0.000027      0.000720      0.000000
    115 O2    c      -0.000181      0.000162     -0.000313      0.000000
    116 O2    c       0.000372      0.000154      0.000259      0.000000
    117 O3    c      -0.000125      0.000240      0.000074      0.000000
    118 O2    c       0.000403     -0.000080     -0.000160      0.000000
    119 O2    c      -0.000112      0.000141      0.000496      0.000000
    120 O2    c       0.000550      0.000268      0.001371      0.000000
    121 O2    c       0.000370      0.000242      0.000769      0.000000
    122 O3    c       0.001922      0.000554     -0.001134      0.000000
    123 O2    c      -0.000271      0.000101      0.000826      0.000000
    124 O2    c      -0.000020     -0.000124      0.000625      0.000000
    125 O2    c       0.000064      0.000389      0.000052      0.000000
    126 O2    c       0.000560     -0.000164      0.000477      0.000000
    127 O3    c       0.001601     -0.000610      0.000247      0.000000
    128 O2    c       0.000079      0.000237      0.000193      0.000000
    129 O2    c      -0.000123      0.000051     -0.000192      0.000000
    130 O2    c       0.000222      0.000355     -0.000179      0.000000
    131 O2    c       0.000281     -0.000170      0.000438      0.000000
    132 O2    c       0.000272      0.000140      0.000465      0.000000
    133 O2    c       0.000474      0.000191     -0.000659      0.000000
    134 O2    c       0.000289     -0.000185      0.000258      0.000000
    135 O2    c       0.000205      0.000010     -0.000315      0.000000
    136 O2    c      -0.000002      0.000107     -0.000596      0.000000
    137 O2    c       0.000326      0.000106     -0.000339      0.000000
    138 O2    c       0.000130      0.000630      0.001184      0.000000
    139 O1    c      -0.001148     -0.000460      0.000426      0.000000
    140 O2    c       0.000096      0.000173      0.000217      0.000000
    141 O2    c      -0.000271     -0.000106      0.000459      0.000000
    142 O2    c       0.000246      0.000074      0.000145      0.000000
    143 O2    c      -0.000087      0.000110      0.000313      0.000000
    144 O2    c       0.000866      0.000025      0.000869      0.000000
    145 O2    c       0.000242      0.000149      0.000472      0.000000
    146 O2    c       0.000354     -0.000011      0.000005      0.000000
    147 O2    c      -0.000179      0.000223      0.000088      0.000000
    148 O2    c      -0.000074      0.000299      0.000432      0.000000
    149 O2    c       0.000109      0.000009      0.000018      0.000000
    150 O2    c       0.000453     -0.000120      0.001277      0.000000
    151 O2    c       0.000172      0.000190     -0.000038      0.000000
    152 O2    c       0.000400      0.000122     -0.000177      0.000000
    153 O2    c       0.000027      0.000187     -0.000242      0.000000
    154 O2    c       0.000059      0.000134     -0.000040      0.000000
    155 O2    c      -0.000487      0.000372     -0.000539      0.000000
    156 O2    c       0.000283      0.000030     -0.002347      0.000000
    157 O2    c       0.000202      0.000186      0.000157      0.000000
    158 O3    c       0.000495      0.002020      0.009681      0.000000
    159 O2    c      -0.000464      0.000039     -0.000072      0.000000
    160 O2    c       0.000142     -0.000098     -0.000724      0.000000
    161 O2    c       0.000236     -0.000008     -0.000623      0.000000
    162 O2    c       0.000768     -0.000012     -0.000101      0.000000
    163 O2    c       0.000331     -0.000297     -0.000404      0.000000
    164 O2    c       0.000246      0.000050     -0.000493      0.000000
    165 O3    c      -0.000584      0.000129     -0.000844      0.000000
    166 O2    c       0.000285     -0.000044     -0.000340      0.000000
    167 O2    c       0.000193     -0.000014     -0.000612      0.000000
    168 O2    c       0.000743      0.000149      0.001595      0.000000
    169 O2    c       0.000266      0.000071      0.001199      0.000000
    170 O2    c       0.000535     -0.000030     -0.000001      0.000000
    171 O2    c      -0.000019      0.000023     -0.000096      0.000000
    172 O2    c      -0.000213      0.000302      0.000735      0.000000
    173 O2    c       0.000147      0.000041     -0.000192      0.000000
    174 O2    c       0.000420      0.000178     -0.000058      0.000000
    175 O2    c       0.000204      0.000253      0.000152      0.000000
    176 O3    c       0.000150     -0.000072     -0.001090      0.000000
    177 O2    c      -0.000254      0.000497     -0.001849      0.000000
    178 O2    c       0.000312     -0.000009      0.000637      0.000000
    179 O2    c       0.000949      0.000109      0.000542      0.000000
    180 O2    c       0.000587     -0.000205     -0.000525      0.000000
    181 F     c      -0.000317      0.000051      0.000009      0.000000
    182 F     c       0.000128     -0.000270      0.000542      0.000000
    183 F     c       0.000144     -0.000222      0.000229      0.000000
    184 F     c       0.000474     -0.000323     -0.000066      0.000000
    185 F     c      -0.000546      0.000630     -0.001773      0.000000
    186 F     c      -0.000143      0.000156      0.000044      0.000000
    187 O2    s       0.001014     -0.000129     -0.000672      0.000000
    188 O2    s       0.000323      0.000245      0.000220      0.000000
    189 O2    s       0.000092     -0.000293     -0.000081      0.000000
    190 O2    s       0.000335      0.000062     -0.000030      0.000000
    191 O2    s      -0.000048      0.000101      0.000196      0.000000
    192 O2    s       0.000229     -0.000196      0.000192      0.000000
    193 O2    s       0.000392      0.000297      0.000271      0.000000
    194 O2    s      -0.000230     -0.000193     -0.000124      0.000000
    195 O2    s       0.000677     -0.000239     -0.000273      0.000000
    196 O2    s       0.000044     -0.000042     -0.000798      0.000000
    197 O2    s       0.001082      0.000870      0.000555      0.000000
    198 O2    s       0.000240      0.000197     -0.000204      0.000000
    199 O3    s       0.001537     -0.000308      0.001366      0.000000
    200 O3    s       0.000054     -0.000638      0.000139      0.000000
    201 O2    s       0.000073      0.000446      0.000464      0.000000
    202 O2    s       0.000283      0.000175      0.000201      0.000000
    203 O2    s       0.000700      0.000531      0.001656      0.000000
    204 O2    s       0.000137      0.000135      0.000645      0.000000
    205 O2    s       0.001220      0.000339     -0.001518      0.000000
    206 O2    s       0.000100      0.000106     -0.000303      0.000000
    207 O2    s       0.000115     -0.000173     -0.000056      0.000000
    208 O2    s       0.001122      0.000498      0.000392      0.000000
    209 O2    s       0.000392     -0.000104     -0.000597      0.000000
    210 O2    s       0.000335      0.000703      0.001358      0.000000
    211 O2    s       0.000534      0.000146      0.000557      0.000000
    212 O3    s       0.001518     -0.001441     -0.000934      0.000000
    213 O2    s       0.000055     -0.000064      0.000019      0.000000
    214 O2    s       0.000126      0.000031      0.000594      0.000000
    215 O2    s       0.000129      0.000209     -0.000104      0.000000
    216 O2    s       0.000852      0.000182      0.000472      0.000000
    217 O2    s       0.000127      0.000449      0.001035      0.000000
    218 O2    s       0.000131     -0.000048      0.000218      0.000000
    219 O2    s       0.000139     -0.000023     -0.000618      0.000000
    220 O2    s       0.000068      0.000050      0.001068      0.000000
    221 O2    s      -0.000036      0.000465      0.001678      0.000000
    222 O2    s       0.000303      0.000028      0.000120      0.000000
    223 O2    s      -0.000809      0.001188      0.000997      0.000000
    224 O2    s       0.000345      0.000308      0.000360      0.000000
    225 O2    s       0.000302     -0.000324      0.001323      0.000000
    226 O2    s       0.000167      0.000039      0.000512      0.000000
    227 O2    s      -0.000281     -0.000297     -0.000486      0.000000
    228 O2    s       0.000419      0.000102      0.000946      0.000000
    229 O2    s       0.000170      0.000211     -0.000036      0.000000
    230 O2    s      -0.000618      0.000117      0.001486      0.000000
    231 O2    s      -0.000003      0.000006      0.000416      0.000000
    232 O2    s       0.000029      0.000083     -0.000175      0.000000
    233 O2    s       0.000480      0.000057     -0.000464      0.000000
    234 O2    s       0.000725      0.000115      0.001078      0.000000
    235 O2    s       0.000198      0.000480     -0.000175      0.000000
    236 O2    s       0.000141      0.000192      0.001506      0.000000
    237 O2    s       0.000217      0.000185     -0.000356      0.000000
    238 O2    s       0.000181     -0.000319     -0.000540      0.000000
    239 O3    s       0.000248      0.001266      0.001882      0.000000
    240 O2    s       0.000255      0.000135      0.000769      0.000000
    241 O2    s      -0.000168      0.000365     -0.001350      0.000000
    242 O2    s       0.000372     -0.000009      0.000559      0.000000
    243 O3    s       0.000091     -0.000082      0.000115      0.000000
    244 O2    s       0.000529     -0.000038     -0.000353      0.000000
    245 O2    s      -0.000061      0.000026      0.000446      0.000000
    246 O2    s       0.001204      0.000603      0.002785      0.000000
    247 O2    s       0.000639      0.000292      0.000990      0.000000
    248 O3    s       0.000315      0.000187     -0.002299      0.000000
    249 O2    s      -0.000595      0.000347      0.001141      0.000000
    250 O2    s      -0.000032     -0.000124      0.000787      0.000000
    251 O2    s       0.000068      0.000384      0.000205      0.000000
    252 O2    s       0.001320      0.000498      0.000587      0.000000
    253 O3    s       0.001792     -0.000454      0.000571      0.000000
    254 O2    s       0.000201      0.000323      0.000268      0.000000
    255 O2    s       0.000085     -0.000189     -0.000132      0.000000
    256 O2    s       0.000038      0.000231     -0.000205      0.000000
    257 O2    s       0.000264     -0.000162      0.000756      0.000000
    258 O2    s       0.000701      0.000359      0.000693      0.000000
    259 O2    s       0.000436      0.000094     -0.000495      0.000000
    260 O2    s       0.000505     -0.000291      0.000096      0.000000
    261 O2    s      -0.000347     -0.000058     -0.000094      0.000000
    262 O2    s      -0.000170      0.000024     -0.001208      0.000000
    263 O2    s       0.000303      0.000067     -0.000527      0.000000
    264 O2    s       0.000548      0.000837      0.002497      0.000000
    265 O1    s       0.000012      0.000242     -0.000827      0.000000
    266 O2    s       0.000058      0.000236      0.000515      0.000000
    267 O2    s      -0.000301      0.000004      0.000801      0.000000
    268 O2    s       0.000546      0.000916     -0.000216      0.000000
    269 O2    s      -0.000002      0.000163      0.000592      0.000000
    270 O2    s       0.000577     -0.000014      0.001137      0.000000
    271 O2    s       0.000467      0.000084      0.000600      0.000000
    272 O2    s       0.000311     -0.000063     -0.000143      0.000000
    273 O2    s      -0.000146      0.000121      0.000062      0.000000
    274 O2    s       0.000291      0.000294      0.000368      0.000000
    275 O2    s       0.000207      0.000050     -0.000235      0.000000
    276 O2    s       0.000482     -0.000295      0.003716      0.000000
    277 O2    s       0.000436      0.000017     -0.000099      0.000000
    278 O2    s       0.000597     -0.000191     -0.000136      0.000000
    279 O2    s       0.000172      0.000055      0.000052      0.000000
    280 O2    s       0.000128      0.000096      0.000010      0.000000
    281 O2    s      -0.000330      0.000189     -0.000062      0.000000
    282 O2    s       0.000907     -0.000059     -0.002140      0.000000
    283 O2    s       0.000483      0.000150      0.000209      0.000000
    284 O3    s       0.000408      0.001861      0.006227      0.000000
    285 O2    s      -0.000835      0.000495     -0.000136      0.000000
    286 O2    s       0.000200     -0.000259     -0.000617      0.000000
    287 O2    s      -0.000055      0.000201     -0.000742      0.000000
    288 O2    s       0.000688     -0.000030      0.000185      0.000000
    289 O2    s      -0.000016      0.000008     -0.001185      0.000000
    290 O2    s       0.000430      0.000448     -0.000497      0.000000
    291 O3    s      -0.000674      0.000500     -0.001137      0.000000
    292 O2    s       0.000454     -0.000010     -0.000436      0.000000
    293 O2    s      -0.000089      0.000393     -0.000787      0.000000
    294 O2    s       0.000419     -0.000460      0.002349      0.000000
    295 O2    s       0.000303      0.000080      0.001440      0.000000
    296 O2    s       0.001445      0.000495      0.000258      0.000000
    297 O2    s      -0.000089     -0.000059      0.000341      0.000000
    298 O2    s      -0.000190      0.000357      0.001198      0.000000
    299 O2    s       0.000398     -0.000058     -0.000303      0.000000
    300 O2    s       0.000177      0.000117      0.000427      0.000000
    301 O2    s      -0.000026      0.000285      0.000051      0.000000
    302 O3    s       0.000516     -0.000160     -0.001383      0.000000
    303 O2    s      -0.000756      0.000870     -0.001640      0.000000
    304 O2    s      -0.000063      0.000207      0.000607      0.000000
    305 O2    s       0.000990     -0.000126      0.000403      0.000000
    306 O2    s       0.000757     -0.000366     -0.000437      0.000000
    307 F     s      -0.000165      0.000224      0.000010      0.000000
    308 F     s       0.000189     -0.000351      0.000676      0.000000
    309 F     s       0.000383     -0.000350      0.000394      0.000000
    310 F     s       0.000424     -0.000378     -0.000077      0.000000
    311 F     s      -0.000831      0.000383     -0.002369      0.000000
    312 F     s      -0.000074      0.000159      0.000022      0.000000
--------------------------------------------------------------------------------
  Maximum abs         0.001922      0.002020      0.009681      0.000000
--------------------------------------------------------------------------------


  Time to end of optimisation =    1623.0217 seconds


  Peak dynamic memory used =      19.13 MB 


  Timing analysis for GULP :

--------------------------------------------------------------------------------
  Task / Subroutine                                          Time (Seconds)
--------------------------------------------------------------------------------
  Calculation of reciprocal space energy and derivatives         38.4235
  Calculation of real space energy and derivatives             1418.4723
  Calculation of three-body energy and derivatives              147.5686
  Calculation of matrix inversion                                16.3749
  Global summation overhead                                       0.0034
--------------------------------------------------------------------------------
  Total CPU time                                               1623.0218
--------------------------------------------------------------------------------


  Dump file written as out.res                                                 
  CIF file written as out.cif                                                 


  Job Finished at 02:05.34 30th October    2016                               

