********************************************************************************
*                       GENERAL UTILITY LATTICE PROGRAM                        *
*                                 Julian Gale                                  *
*                      Nanochemistry Research Institute                        *
*                           Department of Chemistry                            *
*                    Curtin University, Western Australia                      *
********************************************************************************
* Version = 4.2.0 * Last modified =  20th January 2014                         *
********************************************************************************
*  optimise     - perform optimisation run                                     *
*  conp         - constant pressure calculation                                *
*  qok          - running with non charge neutral cell is OK                   *
********************************************************************************

  Job Started  at 13:10.31 30th October    2016                               

  Number of CPUs =     1


  Total number of configurations input =   1

********************************************************************************
*  Input for Configuration =   1                                               *
********************************************************************************

  Formula = Ge3Si57O120F6                                               

  Number of irreducible atoms/shells =     312


  Total number atoms/shells =     312

  Dimensionality = 3               :  Bulk   


  Charge on solid   =  -6.000000 =>neutralising background added


  Cartesian lattice vectors (Angstroms) :

       11.960119    0.000000    0.000000
       -5.925738   10.380437    0.000000
        0.232499   -0.400567   29.447322

  Cell parameters (Angstroms/Degrees):

  a =      11.9601    alpha =  90.9011
  b =      11.9527    beta  =  89.5477
  c =      29.4510    gamma = 119.7202

  Initial cell volume =        3655.922271 Angs**3

  Temperature of configuration =  0.000     K 

  Pressure of configuration =         0.000 GPa 

  Fractional coordinates of asymmetric unit :

--------------------------------------------------------------------------------
   No.  Atomic       x           y          z         Charge      Occupancy
        Label      (Frac)      (Frac)     (Frac)        (e)         (Frac)  
--------------------------------------------------------------------------------
      1 Ge    c    0.699600    0.375700    0.033890     4.00000    1.000000    
      2 Si    c    0.622102 *  0.319910 *  0.366625 *   4.00000    1.000000    
      3 Si    c    0.676900 *  0.290781 *  0.698164 *   4.00000    1.000000    
      4 Si    c    0.308024 *  0.614629 *  0.532648 *   4.00000    1.000000    
      5 Si    c    0.379776 *  0.677000 *  0.866409 *   4.00000    1.000000    
      6 Si    c    0.332114 *  0.696169 *  0.197902 *   4.00000    1.000000    
      7 Si    c    0.382657 *  0.696339 *  0.298440 *   4.00000    1.000000    
      8 Si    c    0.326405 *  0.620190 *  0.966722 *   4.00000    1.000000    
      9 Si    c    0.297507 *  0.666979 *  0.634434 *   4.00000    1.000000    
     10 Si    c    0.622247 *  0.294297 *  0.798885 *   4.00000    1.000000    
     11 Si    c    0.680931 *  0.374020 *  0.468879 *   4.00000    1.000000    
     12 Si    c    0.692115 *  0.314106 *  0.136798 *   4.00000    1.000000    
     13 Si    c    0.531439 *  0.416624 *  0.965407 *   4.00000    1.000000    
     14 Si    c    0.581023 *  0.105448 *  0.301015 *   4.00000    1.000000    
     15 Si    c    0.887741 *  0.461679 *  0.633366 *   4.00000    1.000000    
     16 Ge    c    0.476451 *  0.563735 *  0.465118 *   4.00000    1.000000    
     17 Si    c    0.418755 *  0.885798 *  0.801498 *   4.00000    1.000000    
     18 Si    c    0.120182 *  0.528174 *  0.135252 *   4.00000    1.000000    
     19 Si    c    0.411092 *  0.527758 *  0.366117 *   4.00000    1.000000    
     20 Si    c    0.116403 *  0.585061 *  0.032610 *   4.00000    1.000000    
     21 Si    c    0.469627 *  0.878967 *  0.699641 *   4.00000    1.000000    
     22 Si    c    0.583830 *  0.468993 *  0.863697 *   4.00000    1.000000    
     23 Si    c    0.894495 *  0.411563 *  0.531985 *   4.00000    1.000000    
     24 Si    c    0.525810 *  0.099626 *  0.200142 *   4.00000    1.000000    
     25 Si    c    0.302591 *  0.398356 *  0.850180 *   4.00000    1.000000    
     26 Si    c    0.608336 *  0.898593 *  0.184652 *   4.00000    1.000000    
     27 Si    c    0.103563 *  0.690635 *  0.518641 *   4.00000    1.000000    
     28 Si    c    0.698926 *  0.601318 *  0.352355 *   4.00000    1.000000    
     29 Si    c    0.398472 *  0.088704 *  0.684580 *   4.00000    1.000000    
     30 Si    c    0.905598 *  0.297905 *  0.017575 *   4.00000    1.000000    
     31 Si    c    0.397907 *  0.291766 *  0.487422 *   4.00000    1.000000    
     32 Ge    c    0.901651 *  0.586643 *  0.142383 *   4.00000    1.000000    
     33 Si    c    0.698855 *  0.094010 *  0.814801 *   4.00000    1.000000    
     34 Si    c    0.604672 *  0.697960 *  0.981233 *   4.00000    1.000000    
     35 Si    c    0.095841 *  0.390077 *  0.648097 *   4.00000    1.000000    
     36 Si    c    0.301958 *  0.895863 *  0.313870 *   4.00000    1.000000    
     37 Si    c    0.253252 *  0.340045 *  0.950539 *   4.00000    1.000000    
     38 Si    c    0.663066 *  0.906541 *  0.285587 *   4.00000    1.000000    
     39 Si    c    0.088594 *  0.738762 *  0.619342 *   4.00000    1.000000    
     40 Si    c    0.755381 *  0.661332 *  0.454827 *   4.00000    1.000000    
     41 Si    c    0.341764 *  0.086998 *  0.785396 *   4.00000    1.000000    
     42 Si    c    0.912223 *  0.247277 *  0.119649 *   4.00000    1.000000    
     43 Si    c    0.336628 *  0.247747 *  0.384320 *   4.00000    1.000000    
     44 Si    c    0.913472 *  0.667054 *  0.046082 *   4.00000    1.000000    
     45 Si    c    0.747963 *  0.081077 *  0.714077 *   4.00000    1.000000    
     46 Si    c    0.661141 *  0.748159 *  0.880325 *   4.00000    1.000000    
     47 Si    c    0.095100 *  0.333776 *  0.547085 *   4.00000    1.000000    
     48 Si    c    0.247829 *  0.897918 *  0.213205 *   4.00000    1.000000    
     49 Si    c    0.976723 *  0.120721 *  0.965437 *   4.00000    1.000000    
     50 Si    c    0.881411 *  0.845750 *  0.300449 *   4.00000    1.000000    
     51 Si    c    0.149336 *  0.018207 *  0.634852 *   4.00000    1.000000    
     52 Si    c    0.039437 *  0.870724 *  0.467760 *   4.00000    1.000000    
     53 Si    c    0.122548 *  0.148867 *  0.800040 *   4.00000    1.000000    
     54 Si    c    0.856236 *  0.968454 *  0.133825 *   4.00000    1.000000    
     55 Si    c    0.123570 *  0.965227 *  0.366478 *   4.00000    1.000000    
     56 Si    c    0.853430 *  0.881201 *  0.031025 *   4.00000    1.000000    
     57 Si    c    0.027893 *  0.143906 *  0.699255 *   4.00000    1.000000    
     58 Si    c    0.879006 *  0.026524 *  0.864784 *   4.00000    1.000000    
     59 Si    c    0.152777 *  0.110056 *  0.534463 *   4.00000    1.000000    
     60 Si    c    0.967195 *  0.836903 *  0.198032 *   4.00000    1.000000    
     61 O2    c    0.931955 *  0.003579 *  0.999389 *   0.87073    1.000000    
     62 O2    c    0.001220 *  0.924717 *  0.334293 *   0.87073    1.000000    
     63 O2    c    0.070545 *  0.061080 *  0.668049 *   0.87073    1.000000    
     64 O2    c    0.074817 *  0.990971 *  0.500635 *   0.87073    1.000000    
     65 O2    c    0.001209 *  0.068366 *  0.832544 *   0.87073    1.000000    
     66 O2    c    0.936085 *  0.929228 *  0.166835 *   0.87073    1.000000    
     67 O2    c    0.340393 *  0.569957 *  0.328720 *   0.87073    1.000000    
     68 O2    c    0.419623 *  0.751594 *  0.667786 *   0.87073    1.000000    
     69 O2    c    0.240853 *  0.658018 *  0.000135 *   0.87073    1.000000    
     70 O2    c    0.660846 *  0.420000 *  0.831058 *   0.87073    1.000000    
     71 O2    c    0.569824 *  0.222219 *  0.167847 *   0.87073    1.000000    
     72 O2    c    0.769153 *  0.336111 *  0.498921 *   0.87073    1.000000    
     73 O3    c    0.573221 *  0.336134 *  0.996867 *   1.33043    1.000000    
     74 O2    c    0.760528 *  0.411736 *  0.665292 *   0.87073    1.000000    
     75 O2    c    0.656593 *  0.232559 *  0.333540 *   0.87073    1.000000    
     76 O3    c    0.427552 *  0.651563 *  0.501610 *   1.33043    1.000000    
     77 O2    c    0.250681 *  0.572578 *  0.164454 *   0.87073    1.000000    
     78 O2    c    0.342122 *  0.762470 *  0.834414 *   0.87073    1.000000    
     79 O2    c    0.130345 *  0.211119 *  0.970256 *   0.87073    1.000000    
     80 O2    c    0.789817 *  0.909263 *  0.306130 *   0.87073    1.000000    
     81 O2    c    0.087196 *  0.864780 *  0.640139 *   0.87073    1.000000    
     82 O2    c    0.887685 *  0.779340 *  0.473619 *   0.87073    1.000000    
     83 O2    c    0.215219 *  0.087551 *  0.805483 *   0.87073    1.000000    
     84 O2    c    0.914074 *  0.122829 *  0.139257 *   0.87073    1.000000    
     85 O2    c    0.214545 *  0.119843 *  0.363117 *   0.87073    1.000000    
     86 O2    c    0.917641 *  0.791929 *  0.022636 *   0.87073    1.000000    
     87 O2    c    0.873834 *  0.079686 *  0.693894 *   0.87073    1.000000    
     88 O2    c    0.786791 *  0.872465 *  0.859701 *   0.87073    1.000000    
     89 O2    c    0.096654 *  0.206722 *  0.527363 *   0.87073    1.000000    
     90 O2    c    0.122243 *  0.895320 *  0.192624 *   0.87073    1.000000    
     91 O2    c    0.934118 *  0.857221 *  0.249980 *   0.87073    1.000000    
     92 O2    c    0.132057 *  0.056945 *  0.584898 *   0.87073    1.000000    
     93 O2    c    0.932747 *  0.064693 *  0.915430 *   0.87073    1.000000    
     94 O2    c    0.067919 *  0.134423 *  0.749978 *   0.87073    1.000000    
     95 O2    c    0.869338 *  0.933147 *  0.082226 *   0.87073    1.000000    
     96 O2    c    0.075221 *  0.922968 *  0.417109 *   0.87073    1.000000    
     97 O2    c    0.911385 *  0.207099 *  0.977816 *   0.87073    1.000000    
     98 O2    c    0.796158 *  0.694942 *  0.313659 *   0.87073    1.000000    
     99 O2    c    0.301355 *  0.088091 *  0.646223 *   0.87073    1.000000    
    100 O2    c    0.110281 *  0.790250 *  0.479997 *   0.87073    1.000000    
    101 O2    c    0.203637 *  0.301100 *  0.811976 *   0.87073    1.000000    
    102 O2    c    0.704746 *  0.897859 *  0.145844 *   0.87073    1.000000    
    103 O2    c    0.204300 *  0.895216 *  0.352405 *   0.87073    1.000000    
    104 O2    c    0.701215 *  0.798426 *  0.019531 *   0.87073    1.000000    
    105 O2    c    0.096791 *  0.293945 *  0.686379 *   0.87073    1.000000    
    106 O2    c    0.797432 *  0.096910 *  0.853319 *   0.87073    1.000000    
    107 O2    c    0.305026 *  0.181785 *  0.523222 *   0.87073    1.000000    
    108 O3    c    0.893722 *  0.691173 *  0.185284 *   1.33043    1.000000    
    109 O2    c    0.328628 *  0.639395 *  0.247912 *   0.87073    1.000000    
    110 O2    c    0.355460 *  0.665849 *  0.584738 *   0.87073    1.000000    
    111 O2    c    0.324206 *  0.678316 *  0.917169 *   0.87073    1.000000    
    112 O2    c    0.678429 *  0.349944 *  0.748657 *   0.87073    1.000000    
    113 O3    c    0.636635 *  0.316270 *  0.086764 *   1.33043    1.000000    
    114 O2    c    0.677598 *  0.323806 *  0.416910 *   0.87073    1.000000    
    115 O2    c    0.375405 *  0.331168 *  0.968582 *   0.87073    1.000000    
    116 O2    c    0.669384 *  0.037661 *  0.304837 *   0.87073    1.000000    
    117 O2    c    0.955733 *  0.617840 *  0.637670 *   0.87073    1.000000    
    118 O3    c    0.642932 *  0.680357 *  0.474401 *   1.33043    1.000000    
    119 O2    c    0.331826 *  0.955709 *  0.804459 *   0.87073    1.000000    
    120 O2    c    0.042903 *  0.371454 *  0.137393 *   0.87073    1.000000    
    121 O2    c    0.327085 *  0.369457 *  0.365890 *   0.87073    1.000000    
    122 O2    c    0.048839 *  0.673354 *  0.031690 *   0.87073    1.000000    
    123 O2    c    0.625677 *  0.947461 *  0.696534 *   0.87073    1.000000    
    124 O2    c    0.670223 *  0.624957 *  0.861484 *   0.87073    1.000000    
    125 O2    c    0.961594 *  0.322097 *  0.528626 *   0.87073    1.000000    
    126 O2    c    0.370514 *  0.031580 *  0.196716 *   0.87073    1.000000    
    127 O3    c    0.770237 *  0.290176 *  0.012306 *   1.33043    1.000000    
    128 O2    c    0.693938 *  0.463795 *  0.346266 *   0.87073    1.000000    
    129 O2    c    0.532651 *  0.221207 *  0.676702 *   0.87073    1.000000    
    130 O2    c    0.236495 *  0.689626 *  0.512467 *   0.87073    1.000000    
    131 O2    c    0.304076 *  0.533397 *  0.843735 *   0.87073    1.000000    
    132 O2    c    0.476026 *  0.764091 *  0.176531 *   0.87073    1.000000    
    133 O2    c    0.307496 *  0.764985 *  0.321455 *   0.87073    1.000000    
    134 O2    c    0.468896 *  0.695113 *  0.989678 *   0.87073    1.000000    
    135 O2    c    0.227663 *  0.524700 *  0.656925 *   0.87073    1.000000    
    136 O2    c    0.698092 *  0.228301 *  0.822220 *   0.87073    1.000000    
    137 O2    c    0.536706 *  0.296951 *  0.489536 *   0.87073    1.000000    
    138 O3    c    0.755863 *  0.452784 *  0.160457 *   1.33043    1.000000    
    139 O3    c    0.791112 *  0.540683 *  0.025827 *   1.33043    1.000000    
    140 O2    c    0.467927 *  0.256382 *  0.365981 *   0.87073    1.000000    
    141 O2    c    0.748585 *  0.206020 *  0.693992 *   0.87073    1.000000    
    142 O2    c    0.218730 *  0.458141 *  0.527389 *   0.87073    1.000000    
    143 O2    c    0.535363 *  0.749154 *  0.861666 *   0.87073    1.000000    
    144 O2    c    0.256394 *  0.776316 *  0.192818 *   0.87073    1.000000    
    145 O2    c    0.538493 *  0.778488 *  0.303997 *   0.87073    1.000000    
    146 O2    c    0.248214 *  0.463817 *  0.971186 *   0.87073    1.000000    
    147 O2    c    0.215214 *  0.741405 *  0.639177 *   0.87073    1.000000    
    148 O2    c    0.466466 *  0.214702 *  0.804689 *   0.87073    1.000000    
    149 O2    c    0.745386 *  0.528297 *  0.472586 *   0.87073    1.000000    
    150 O2    c    0.785893 *  0.250164 *  0.136814 *   0.87073    1.000000    
    151 O2    c    0.232578 *  0.323531 *  0.896267 *   0.87073    1.000000    
    152 O2    c    0.682792 *  0.905673 *  0.231225 *   0.87073    1.000000    
    153 O2    c    0.092796 *  0.759421 *  0.565105 *   0.87073    1.000000    
    154 O2    c    0.766162 *  0.670286 *  0.399629 *   0.87073    1.000000    
    155 O2    c    0.324350 *  0.086662 *  0.731088 *   0.87073    1.000000    
    156 O2    c    0.915204 *  0.237348 *  0.065011 *   0.87073    1.000000    
    157 O2    c    0.325107 *  0.233573 *  0.438583 *   0.87073    1.000000    
    158 O3    c    0.905656 *  0.690614 *  0.099182 *   1.33043    1.000000    
    159 O2    c    0.768558 *  0.086474 *  0.768470 *   0.87073    1.000000    
    160 O2    c    0.678085 *  0.767376 *  0.934778 *   0.87073    1.000000    
    161 O2    c    0.095401 *  0.316645 *  0.601461 *   0.87073    1.000000    
    162 O2    c    0.229423 *  0.895142 *  0.267708 *   0.87073    1.000000    
    163 O2    c    0.591937 *  0.558696 *  0.989648 *   0.87073    1.000000    
    164 O2    c    0.439031 *  0.024218 *  0.323347 *   0.87073    1.000000    
    165 O2    c    0.968554 *  0.401772 *  0.656903 *   0.87073    1.000000    
    166 O3    c    0.405723 *  0.423254 *  0.500686 *   1.33043    1.000000    
    167 O2    c    0.560130 *  0.969544 *  0.824488 *   0.87073    1.000000    
    168 O3    c    0.043288 *  0.589228 *  0.159570 *   1.33043    1.000000    
    169 O2    c    0.556767 *  0.580645 *  0.346012 *   0.87073    1.000000    
    170 O2    c    0.019868 *  0.443971 *  0.011534 *   0.87073    1.000000    
    171 O2    c    0.413288 *  0.963087 *  0.676523 *   0.87073    1.000000    
    172 O2    c    0.442314 *  0.413044 *  0.841250 *   0.87073    1.000000    
    173 O2    c    0.977434 *  0.551819 *  0.508720 *   0.87073    1.000000    
    174 O2    c    0.589811 *  0.021369 *  0.176220 *   0.87073    1.000000    
    175 O2    c    0.581830 *  0.158052 *  0.250490 *   0.87073    1.000000    
    176 O2    c    0.835200 *  0.409512 *  0.582168 *   0.87073    1.000000    
    177 O2    c    0.584520 *  0.417198 *  0.914343 *   0.87073    1.000000    
    178 O2    c    0.417956 *  0.829709 *  0.750814 *   0.87073    1.000000    
    179 O2    c    0.163357 *  0.576863 *  0.083251 *   0.87073    1.000000    
    180 O3    c    0.404624 *  0.584547 *  0.414340 *   1.33043    1.000000    
    181 F     c    0.456763 *  0.899488 *  0.249797 *   0.56000    1.000000    
    182 F     c    0.090583 *  0.536693 *  0.584374 *   0.56000    1.000000    
    183 F     c    0.451177 *  0.547492 *  0.917301 *   0.56000    1.000000    
    184 F     c    0.548935 *  0.091759 *  0.751006 *   0.56000    1.000000    
    185 F     c    0.895416 *  0.474292 *  0.091684 *   0.56000    1.000000    
    186 F     c    0.530151 *  0.470949 *  0.427606 *   0.56000    1.000000    
    187 O2    s    0.928229 *  0.003242 *  0.999059 *  -2.87073    1.000000    
    188 O2    s    0.001638 *  0.920579 *  0.334151 *  -2.87073    1.000000    
    189 O2    s    0.074596 *  0.065637 *  0.667843 *  -2.87073    1.000000    
    190 O2    s    0.079705 *  0.990857 *  0.500744 *  -2.87073    1.000000    
    191 O2    s    0.000908 *  0.072583 *  0.832568 *  -2.87073    1.000000    
    192 O2    s    0.930284 *  0.924196 *  0.166318 *  -2.87073    1.000000    
    193 O2    s    0.352047 *  0.578872 *  0.329355 *  -2.87073    1.000000    
    194 O2    s    0.412472 *  0.756328 *  0.667732 *  -2.87073    1.000000    
    195 O2    s    0.236388 *  0.646476 *  0.000175 *  -2.87073    1.000000    
    196 O2    s    0.648883 *  0.412311 *  0.831181 *  -2.87073    1.000000    
    197 O2    s    0.578132 *  0.218942 *  0.167957 *  -2.87073    1.000000    
    198 O2    s    0.772291 *  0.347648 *  0.499016 *  -2.87073    1.000000    
    199 O3    s    0.579058 *  0.347257 *  0.996669 *  -3.33043    1.000000    
    200 O2    s    0.764702 *  0.404211 *  0.665488 *  -2.87073    1.000000    
    201 O2    s    0.645256 *  0.229004 *  0.333783 *  -2.87073    1.000000    
    202 O3    s    0.417685 *  0.641413 *  0.502528 *  -3.33043    1.000000    
    203 O2    s    0.245677 *  0.580546 *  0.164870 *  -2.87073    1.000000    
    204 O2    s    0.353815 *  0.766175 *  0.834388 *  -2.87073    1.000000    
    205 O2    s    0.126413 *  0.214615 *  0.967740 *  -2.87073    1.000000    
    206 O2    s    0.786243 *  0.902339 *  0.303433 *  -2.87073    1.000000    
    207 O2    s    0.094022 *  0.868308 *  0.637460 *  -2.87073    1.000000    
    208 O2    s    0.890250 *  0.776628 *  0.470911 *  -2.87073    1.000000    
    209 O2    s    0.218404 *  0.094043 *  0.802858 *  -2.87073    1.000000    
    210 O2    s    0.907891 *  0.120113 *  0.136631 *  -2.87073    1.000000    
    211 O2    s    0.217667 *  0.116886 *  0.365653 *  -2.87073    1.000000    
    212 O2    s    0.910349 *  0.789022 *  0.025825 *  -2.87073    1.000000    
    213 O2    s    0.877114 *  0.086639 *  0.696534 *  -2.87073    1.000000    
    214 O2    s    0.783579 *  0.875948 *  0.862347 *  -2.87073    1.000000    
    215 O2    s    0.102457 *  0.209489 *  0.530110 *  -2.87073    1.000000    
    216 O2    s    0.120275 *  0.889796 *  0.195354 *  -2.87073    1.000000    
    217 O2    s    0.931537 *  0.853835 *  0.250367 *  -2.87073    1.000000    
    218 O2    s    0.136378 *  0.058599 *  0.584817 *  -2.87073    1.000000    
    219 O2    s    0.931770 *  0.066850 *  0.915492 *  -2.87073    1.000000    
    220 O2    s    0.069684 *  0.137158 *  0.750010 *  -2.87073    1.000000    
    221 O2    s    0.866087 *  0.931310 *  0.082268 *  -2.87073    1.000000    
    222 O2    s    0.076743 *  0.921951 *  0.416998 *  -2.87073    1.000000    
    223 O2    s    0.917787 *  0.207639 *  0.980773 *  -2.87073    1.000000    
    224 O2    s    0.794916 *  0.700807 *  0.316291 *  -2.87073    1.000000    
    225 O2    s    0.295297 *  0.080787 *  0.648957 *  -2.87073    1.000000    
    226 O2    s    0.102039 *  0.788940 *  0.482529 *  -2.87073    1.000000    
    227 O2    s    0.205288 *  0.295080 *  0.814657 *  -2.87073    1.000000    
    228 O2    s    0.710814 *  0.905416 *  0.148598 *  -2.87073    1.000000    
    229 O2    s    0.205766 *  0.902822 *  0.349900 *  -2.87073    1.000000    
    230 O2    s    0.707316 *  0.796900 *  0.016858 *  -2.87073    1.000000    
    231 O2    s    0.089274 *  0.287580 *  0.683870 *  -2.87073    1.000000    
    232 O2    s    0.796196 *  0.089146 *  0.850674 *  -2.87073    1.000000    
    233 O2    s    0.298464 *  0.185322 *  0.520790 *  -2.87073    1.000000    
    234 O3    s    0.902591 *  0.700876 *  0.183929 *  -3.33043    1.000000    
    235 O2    s    0.334604 *  0.651275 *  0.247914 *  -2.87073    1.000000    
    236 O2    s    0.344621 *  0.660902 *  0.584882 *  -2.87073    1.000000    
    237 O2    s    0.330056 *  0.672267 *  0.917082 *  -2.87073    1.000000    
    238 O2    s    0.672503 *  0.338208 *  0.748690 *  -2.87073    1.000000    
    239 O3    s    0.646837 *  0.320955 *  0.087078 *  -3.33043    1.000000    
    240 O2    s    0.672115 *  0.328484 *  0.416905 *  -2.87073    1.000000    
    241 O2    s    0.378203 *  0.340958 *  0.966286 *  -2.87073    1.000000    
    242 O2    s    0.659571 *  0.031064 *  0.302436 *  -2.87073    1.000000    
    243 O2    s    0.962552 *  0.614374 *  0.635317 *  -2.87073    1.000000    
    244 O3    s    0.643848 *  0.670474 *  0.471640 *  -3.33043    1.000000    
    245 O2    s    0.341818 *  0.962201 *  0.802160 *  -2.87073    1.000000    
    246 O2    s    0.036847 *  0.374161 *  0.135283 *  -2.87073    1.000000    
    247 O2    s    0.336213 *  0.371911 *  0.367872 *  -2.87073    1.000000    
    248 O2    s    0.042494 *  0.663416 *  0.033246 *  -2.87073    1.000000    
    249 O2    s    0.622486 *  0.954444 *  0.698707 *  -2.87073    1.000000    
    250 O2    s    0.660341 *  0.621853 *  0.863713 *  -2.87073    1.000000    
    251 O2    s    0.968285 *  0.332476 *  0.530862 *  -2.87073    1.000000    
    252 O2    s    0.373974 *  0.024721 *  0.198821 *  -2.87073    1.000000    
    253 O3    s    0.778667 *  0.297807 *  0.014598 *  -3.33043    1.000000    
    254 O2    s    0.686925 *  0.462914 *  0.349041 *  -2.87073    1.000000    
    255 O2    s    0.533333 *  0.214403 *  0.679766 *  -2.87073    1.000000    
    256 O2    s    0.228942 *  0.682272 *  0.515195 *  -2.87073    1.000000    
    257 O2    s    0.311696 *  0.533931 *  0.846779 *  -2.87073    1.000000    
    258 O2    s    0.475048 *  0.771246 *  0.179648 *  -2.87073    1.000000    
    259 O2    s    0.314662 *  0.771849 *  0.318253 *  -2.87073    1.000000    
    260 O2    s    0.468380 *  0.687716 *  0.986416 *  -2.87073    1.000000    
    261 O2    s    0.220907 *  0.525074 *  0.653668 *  -2.87073    1.000000    
    262 O2    s    0.690441 *  0.220930 *  0.819035 *  -2.87073    1.000000    
    263 O2    s    0.537819 *  0.304491 *  0.487129 *  -2.87073    1.000000    
    264 O3    s    0.759946 *  0.448349 *  0.156680 *  -3.33043    1.000000    
    265 O3    s    0.796102 *  0.540064 *  0.028499 *  -3.33043    1.000000    
    266 O2    s    0.470498 *  0.262400 *  0.368016 *  -2.87073    1.000000    
    267 O2    s    0.740864 *  0.201215 *  0.696597 *  -2.87073    1.000000    
    268 O2    s    0.213681 *  0.459922 *  0.530073 *  -2.87073    1.000000    
    269 O2    s    0.532750 *  0.741391 *  0.864173 *  -2.87073    1.000000    
    270 O2    s    0.263580 *  0.781096 *  0.195514 *  -2.87073    1.000000    
    271 O2    s    0.535796 *  0.783857 *  0.301474 *  -2.87073    1.000000    
    272 O2    s    0.256744 *  0.466645 *  0.968579 *  -2.87073    1.000000    
    273 O2    s    0.209978 *  0.733290 *  0.636570 *  -2.87073    1.000000    
    274 O2    s    0.469131 *  0.209073 *  0.802044 *  -2.87073    1.000000    
    275 O2    s    0.739249 *  0.525141 *  0.470381 *  -2.87073    1.000000    
    276 O2    s    0.790644 *  0.256296 *  0.134924 *  -2.87073    1.000000    
    277 O2    s    0.242101 *  0.333127 *  0.897239 *  -2.87073    1.000000    
    278 O2    s    0.672908 *  0.905031 *  0.232083 *  -2.87073    1.000000    
    279 O2    s    0.093438 *  0.750114 *  0.566010 *  -2.87073    1.000000    
    280 O2    s    0.757809 *  0.661943 *  0.400088 *  -2.87073    1.000000    
    281 O2    s    0.333956 *  0.086905 *  0.732008 *  -2.87073    1.000000    
    282 O2    s    0.913899 *  0.244785 *  0.065785 *  -2.87073    1.000000    
    283 O2    s    0.333413 *  0.240804 *  0.437427 *  -2.87073    1.000000    
    284 O3    s    0.906099 *  0.680833 *  0.096870 *  -3.33043    1.000000    
    285 O2    s    0.759053 *  0.086688 *  0.767630 *  -2.87073    1.000000    
    286 O2    s    0.668633 *  0.758104 *  0.933868 *  -2.87073    1.000000    
    287 O2    s    0.095400 *  0.326185 *  0.600665 *  -2.87073    1.000000    
    288 O2    s    0.239051 *  0.895503 *  0.266839 *  -2.87073    1.000000    
    289 O2    s    0.587055 *  0.559129 *  0.986339 *  -2.87073    1.000000    
    290 O2    s    0.439467 *  0.019081 *  0.319999 *  -2.87073    1.000000    
    291 O2    s    0.973943 *  0.406896 *  0.653514 *  -2.87073    1.000000    
    292 O3    s    0.409745 *  0.418179 *  0.496912 *  -3.33043    1.000000    
    293 O2    s    0.560308 *  0.974352 *  0.821060 *  -2.87073    1.000000    
    294 O3    s    0.040348 *  0.582572 *  0.155770 *  -3.33043    1.000000    
    295 O2    s    0.558075 *  0.577571 *  0.348718 *  -2.87073    1.000000    
    296 O2    s    0.017609 *  0.443114 *  0.014431 *  -2.87073    1.000000    
    297 O2    s    0.417756 *  0.968061 *  0.679825 *  -2.87073    1.000000    
    298 O2    s    0.442004 *  0.417486 *  0.844572 *  -2.87073    1.000000    
    299 O2    s    0.982227 *  0.551896 *  0.512167 *  -2.87073    1.000000    
    300 O2    s    0.585037 *  0.016098 *  0.179621 *  -2.87073    1.000000    
    301 O2    s    0.576012 *  0.146524 *  0.250625 *  -2.87073    1.000000    
    302 O2    s    0.846704 *  0.415103 *  0.582279 *  -2.87073    1.000000    
    303 O2    s    0.578986 *  0.422519 *  0.914375 *  -2.87073    1.000000    
    304 O2    s    0.423364 *  0.840623 *  0.750832 *  -2.87073    1.000000    
    305 O2    s    0.154034 *  0.572803 *  0.083152 *  -2.87073    1.000000    
    306 O3    s    0.409980 *  0.577181 *  0.412572 *  -3.33043    1.000000    
    307 F     s    0.456878 *  0.899459 *  0.249825 *  -1.56000    1.000000    
    308 F     s    0.089926 *  0.536467 *  0.584507 *  -1.56000    1.000000    
    309 F     s    0.450680 *  0.547677 *  0.917488 *  -1.56000    1.000000    
    310 F     s    0.549182 *  0.092251 *  0.751169 *  -1.56000    1.000000    
    311 F     s    0.894403 *  0.479650 *  0.093969 *  -1.56000    1.000000    
    312 F     s    0.526245 *  0.477199 *  0.430168 *  -1.56000    1.000000    
--------------------------------------------------------------------------------



********************************************************************************
*  General input information                                                   *
********************************************************************************

  Species output for all configurations : 

--------------------------------------------------------------------------------
  Species    Type    Atomic    Atomic    Charge       Radii (Angs)     Library
                     Number     Mass       (e)     Cova   Ionic  VDW   Symbol
--------------------------------------------------------------------------------
    Si       Core       14      28.09   4.000000   1.200  0.000  2.100          
    O1       Core        8      16.00   1.733957   0.730  0.000  1.360          
    O1       Shell       8       0.00  -3.733957   0.730  0.000  1.360          
    O2       Core        8      16.00   0.870733   0.730  0.000  1.360          
    O2       Shell       8       0.00  -2.870733   0.730  0.000  1.360          
    O3       Core        8      16.00   1.330431   0.730  0.000  1.360          
    O3       Shell       8       0.00  -3.330431   0.730  0.000  1.360          
    F        Core        9      19.00   0.560000   0.710  0.000  1.300          
    F        Shell       9       0.00  -1.560000   0.710  0.000  1.300          
    Ge       Core       32      72.61   4.000000   1.170  0.000  1.750          
--------------------------------------------------------------------------------


  Lattice summation method               =    Ewald          (3-D)
                                         =    Parry          (2-D)
                                         =    Saunders et al (1-D)
  Accuracy factor for lattice sums       =   12.000


  Time limit = Infinity

  Maximum range for interatomic potentials =        16.000000 Angstroms

  Taper potentials to zero over   1.0000 Angstroms using polynomial

  General interatomic potentials :

--------------------------------------------------------------------------------
Atom  Types   Potential         A         B         C         D     Cutoffs(Ang)
  1     2                                                            Min    Max 
--------------------------------------------------------------------------------
Si   c O1   s Buckingham    0.132E+04 0.318      10.1      0.00     0.000 16.000
Si   c O2   s Buckingham    0.132E+04 0.318      10.1      0.00     0.000 16.000
Si   c O3   s Buckingham    0.132E+04 0.318      10.1      0.00     0.000 16.000
Ge   c O1   s Buckingham    0.150E+04 0.326      16.8      0.00     0.000 16.000
Ge   c O2   s Buckingham    0.150E+04 0.326      16.8      0.00     0.000 16.000
Ge   c O3   s Buckingham    0.150E+04 0.326      16.8      0.00     0.000 16.000
O1   s O1   s Buckingham    0.228E+05 0.149      10.9      0.00     0.000 16.000
O1   s O2   s Buckingham    0.228E+05 0.149      10.9      0.00     0.000 16.000
O1   s O3   s Buckingham    0.228E+05 0.149      10.9      0.00     0.000 16.000
O2   s O2   s Buckingham    0.228E+05 0.149      10.9      0.00     0.000 16.000
O2   s O3   s Buckingham    0.228E+05 0.149      10.9      0.00     0.000 16.000
O3   s O3   s Buckingham    0.228E+05 0.149      10.9      0.00     0.000 16.000
Si   c F    s Buckingham     977.     0.282      0.00      0.00     0.000 16.000
Ge   c F    s Buckingham     681.     0.320      0.00      0.00     0.000 16.000
F    s F    s Buckingham     540.     0.262      0.00      0.00     0.000 16.000
O1   s F    s Buckingham    0.168E+04 0.268      0.00      0.00     0.000 16.000
O2   s F    s Buckingham    0.168E+04 0.268      0.00      0.00     0.000 16.000
O3   s F    s Buckingham    0.168E+04 0.268      0.00      0.00     0.000 16.000
O2   c O2   s Spring (c-s)   76.0      0.00      0.00      0.00     0.000  0.800
O3   c O3   s Spring (c-s)   128.      0.00      0.00      0.00     0.000  0.800
O1   c O1   s Spring (c-s)   180.      0.00      0.00      0.00     0.000  0.800
F    c F    s Spring (c-s)   33.5      0.00      0.00      0.00     0.000  0.800
--------------------------------------------------------------------------------

  General Three-body potentials :

  Harmonic form:

--------------------------------------------------------------------------------
Atom    Atom    Atom           Force Constants            Theta     Cutoffs  
  1       2       3     (eVrad**-2/eVrad**-3/eVrad**-4)   (deg)  1-2  1-3  2-3
--------------------------------------------------------------------------------
Si    c O1    s O1    s  1.261        0.0000    0.0000   109.470 0.00 0.00 0.00
                                                                 1.90 1.90 3.50
Si    c O1    s O2    s  1.261        0.0000    0.0000   109.470 0.00 0.00 0.00
                                                                 1.90 1.90 3.50
Si    c O2    s O2    s  1.261        0.0000    0.0000   109.470 0.00 0.00 0.00
                                                                 1.90 1.90 3.50
--------------------------------------------------------------------------------

********************************************************************************
*  Output for configuration   1                                                *
********************************************************************************


  Components of energy : 

--------------------------------------------------------------------------------
  Interatomic potentials     =        2064.38431069 eV
  Three-body potentials      =           0.46550062 eV
  Monopole - monopole (real) =       -6613.57904698 eV
  Monopole - monopole (recip)=       -3171.60002225 eV
  Monopole - monopole (total)=       -9785.17906922 eV
  Neutralising energy        =          -6.46055201 eV
--------------------------------------------------------------------------------
  Total lattice energy       =       -7726.78980993 eV
--------------------------------------------------------------------------------
  Total lattice energy       =         -745517.1019 kJ/(mole unit cells)
--------------------------------------------------------------------------------


  Number of variables =      939

  Maximum number of calculations  =          5000
  Maximum Hessian update interval =            10
  Maximum step size               =   0.100000000
  Maximum parameter tolerance     =   0.000010000
  Maximum function  tolerance     =   0.000010000
  Maximum gradient  tolerance     =   0.001000000
  Maximum gradient  component     =   0.010000000

  Symmetry not applied to optimisation

  Cell parameters to be optimised using strains

  Newton-Raphson optimiser to be used

  BFGS hessian update to be used

  Dumpfile to be written after every cycle

  Start of bulk optimisation :

  Cycle:      0 Energy:     -7726.789810  Gnorm:      0.000367  CPU:    2.003
  ** Hessian calculated **
  Cycle:      1 Energy:     -7726.799977  Gnorm:      0.000301  CPU:    6.529
  Cycle:      2 Energy:     -7726.810463  Gnorm:      0.000431  CPU:   10.678
  Cycle:      3 Energy:     -7726.816323  Gnorm:      0.000571  CPU:   14.828
  Cycle:      4 Energy:     -7726.817792  Gnorm:      0.000423  CPU:   18.978
  Cycle:      5 Energy:     -7726.818164  Gnorm:      0.000251  CPU:   23.128
  Cycle:      6 Energy:     -7726.818258  Gnorm:      0.000137  CPU:   27.278
  Cycle:      7 Energy:     -7726.818274  Gnorm:      0.000098  CPU:   30.085
  Cycle:      8 Energy:     -7726.818282  Gnorm:      0.000069  CPU:   32.892
  Cycle:      9 Energy:     -7726.818286  Gnorm:      0.000048  CPU:   35.703


  **** Optimisation achieved ****


  Final energy =   -7726.81828805 eV
  Final Gnorm  =       0.00003402

  Components of energy : 

--------------------------------------------------------------------------------
  Interatomic potentials     =        2064.48665586 eV
  Three-body potentials      =           0.46132772 eV
  Monopole - monopole (real) =       -6613.77080721 eV
  Monopole - monopole (recip)=       -3171.53504364 eV
  Monopole - monopole (total)=       -9785.30585085 eV
  Neutralising energy        =          -6.46042077 eV
--------------------------------------------------------------------------------
  Total lattice energy       =       -7726.81828805 eV
--------------------------------------------------------------------------------
  Total lattice energy       =         -745519.8496 kJ/(mole unit cells)
--------------------------------------------------------------------------------

  Final fractional coordinates of atoms :

--------------------------------------------------------------------------------
   No.  Atomic        x           y          z          Radius
        Label       (Frac)      (Frac)     (Frac)       (Angs) 
--------------------------------------------------------------------------------
     1  Ge    c     0.699600    0.375700    0.033890    0.000000
     2  Si    c     0.616632    0.306677    0.365940    0.000000
     3  Si    c     0.669921    0.275133    0.697304    0.000000
     4  Si    c     0.302656    0.599267    0.532553    0.000000
     5  Si    c     0.375646    0.665429    0.866263    0.000000
     6  Si    c     0.327703    0.684484    0.197902    0.000000
     7  Si    c     0.377836    0.683788    0.298396    0.000000
     8  Si    c     0.323952    0.610251    0.966770    0.000000
     9  Si    c     0.290779    0.651113    0.634333    0.000000
    10  Si    c     0.616447    0.281751    0.798080    0.000000
    11  Si    c     0.675472    0.358831    0.468216    0.000000
    12  Si    c     0.687664    0.306071    0.136282    0.000000
    13  Si    c     0.527440    0.406497    0.964543    0.000000
    14  Si    c     0.575788    0.093016    0.300199    0.000000
    15  Si    c     0.881046    0.445445    0.632458    0.000000
    16  Ge    c     0.471324    0.548654    0.465080    0.000000
    17  Si    c     0.413044    0.873178    0.801307    0.000000
    18  Si    c     0.116036    0.517601    0.135402    0.000000
    19  Si    c     0.405781    0.514501    0.366091    0.000000
    20  Si    c     0.115025    0.577483    0.032849    0.000000
    21  Si    c     0.462667    0.863420    0.699512    0.000000
    22  Si    c     0.579426    0.457747    0.862819    0.000000
    23  Si    c     0.889050    0.395892    0.531113    0.000000
    24  Si    c     0.521419    0.088873    0.199200    0.000000
    25  Si    c     0.298031    0.386905    0.849607    0.000000
    26  Si    c     0.603354    0.886977    0.184460    0.000000
    27  Si    c     0.098178    0.675036    0.518101    0.000000
    28  Si    c     0.693677    0.588229    0.351984    0.000000
    29  Si    c     0.391570    0.073085    0.684194    0.000000
    30  Si    c     0.902014    0.291657    0.017283    0.000000
    31  Si    c     0.392558    0.276417    0.487173    0.000000
    32  Ge    c     0.898591    0.577637    0.142571    0.000000
    33  Si    c     0.692876    0.081251    0.814302    0.000000
    34  Si    c     0.602481    0.687869    0.980921    0.000000
    35  Si    c     0.089092    0.374003    0.647471    0.000000
    36  Si    c     0.296999    0.883449    0.313367    0.000000
    37  Si    c     0.249449    0.329891    0.950153    0.000000
    38  Si    c     0.657966    0.894112    0.285318    0.000000
    39  Si    c     0.081777    0.722716    0.618781    0.000000
    40  Si    c     0.750203    0.646380    0.454538    0.000000
    41  Si    c     0.335953    0.074042    0.784990    0.000000
    42  Si    c     0.906944    0.237480    0.119044    0.000000
    43  Si    c     0.331232    0.234276    0.384032    0.000000
    44  Si    c     0.915681    0.664304    0.046706    0.000000
    45  Si    c     0.741085    0.065594    0.713633    0.000000
    46  Si    c     0.657262    0.736853    0.879824    0.000000
    47  Si    c     0.089691    0.318304    0.546505    0.000000
    48  Si    c     0.243403    0.886381    0.212685    0.000000
    49  Si    c     0.971703    0.113336    0.965137    0.000000
    50  Si    c     0.876316    0.833464    0.300315    0.000000
    51  Si    c     0.142173    0.002035    0.634602    0.000000
    52  Si    c     0.034327    0.855540    0.467462    0.000000
    53  Si    c     0.117522    0.137052    0.799831    0.000000
    54  Si    c     0.851774    0.958832    0.133833    0.000000
    55  Si    c     0.118279    0.951965    0.366290    0.000000
    56  Si    c     0.850799    0.873912    0.030912    0.000000
    57  Si    c     0.021059    0.128107    0.699004    0.000000
    58  Si    c     0.874009    0.015858    0.864692    0.000000
    59  Si    c     0.147245    0.094560    0.534174    0.000000
    60  Si    c     0.963025    0.827085    0.197847    0.000000
    61  O2    c     0.926108    0.997047    0.999513    0.000000
    62  O2    c     0.995469    0.911535    0.334416    0.000000
    63  O2    c     0.063484    0.044299    0.668184    0.000000
    64  O2    c     0.069364    0.975025    0.500618    0.000000
    65  O2    c     0.997096    0.058109    0.832865    0.000000
    66  O2    c     0.932330    0.920332    0.166892    0.000000
    67  O2    c     0.335394    0.557502    0.328806    0.000000
    68  O2    c     0.412246    0.735568    0.667922    0.000000
    69  O2    c     0.239868    0.649285    0.000465    0.000000
    70  O2    c     0.655553    0.408055    0.829945    0.000000
    71  O2    c     0.565055    0.211676    0.166935    0.000000
    72  O2    c     0.764049    0.320639    0.497951    0.000000
    73  O3    c     0.572642    0.330081    0.996523    0.000000
    74  O2    c     0.753374    0.395474    0.664164    0.000000
    75  O2    c     0.651358    0.220046    0.332629    0.000000
    76  O3    c     0.422733    0.636337    0.501763    0.000000
    77  O2    c     0.246039    0.560579    0.164651    0.000000
    78  O2    c     0.336919    0.750439    0.834502    0.000000
    79  O2    c     0.125568    0.201735    0.969788    0.000000
    80  O2    c     0.784599    0.896866    0.305978    0.000000
    81  O2    c     0.079838    0.848483    0.639526    0.000000
    82  O2    c     0.882637    0.763912    0.473308    0.000000
    83  O2    c     0.209964    0.075457    0.805248    0.000000
    84  O2    c     0.908059    0.112956    0.139011    0.000000
    85  O2    c     0.208967    0.106561    0.362920    0.000000
    86  O2    c     0.920154    0.789020    0.022997    0.000000
    87  O2    c     0.866968    0.063674    0.693657    0.000000
    88  O2    c     0.782888    0.861723    0.859437    0.000000
    89  O2    c     0.091618    0.191534    0.526721    0.000000
    90  O2    c     0.117874    0.884166    0.192186    0.000000
    91  O2    c     0.930284    0.846718    0.249936    0.000000
    92  O2    c     0.125486    0.042047    0.584759    0.000000
    93  O2    c     0.926415    0.055243    0.915438    0.000000
    94  O2    c     0.061542    0.120734    0.749897    0.000000
    95  O2    c     0.864941    0.924130    0.082223    0.000000
    96  O2    c     0.070440    0.909004    0.416947    0.000000
    97  O2    c     0.907929    0.201407    0.977210    0.000000
    98  O2    c     0.790795    0.682439    0.313303    0.000000
    99  O2    c     0.294126    0.071622    0.645842    0.000000
   100  O2    c     0.105245    0.774886    0.479443    0.000000
   101  O2    c     0.199143    0.289485    0.811440    0.000000
   102  O2    c     0.700239    0.886643    0.145754    0.000000
   103  O2    c     0.199113    0.882314    0.351912    0.000000
   104  O2    c     0.699116    0.787755    0.019213    0.000000
   105  O2    c     0.089908    0.277736    0.685722    0.000000
   106  O2    c     0.791876    0.085348    0.852827    0.000000
   107  O2    c     0.299547    0.165929    0.522890    0.000000
   108  O3    c     0.888838    0.681284    0.185287    0.000000
   109  O2    c     0.324121    0.627125    0.247839    0.000000
   110  O2    c     0.349332    0.650169    0.584708    0.000000
   111  O2    c     0.320920    0.667300    0.917113    0.000000
   112  O2    c     0.671847    0.335546    0.747593    0.000000
   113  O3    c     0.634291    0.313390    0.086484    0.000000
   114  O2    c     0.672083    0.309568    0.416134    0.000000
   115  O2    c     0.371441    0.320149    0.968020    0.000000
   116  O2    c     0.664184    0.025347    0.304271    0.000000
   117  O2    c     0.948839    0.601504    0.636897    0.000000
   118  O3    c     0.637799    0.665207    0.474306    0.000000
   119  O2    c     0.325902    0.942890    0.804271    0.000000
   120  O2    c     0.037851    0.360967    0.136906    0.000000
   121  O2    c     0.321692    0.356193    0.365756    0.000000
   122  O2    c     0.049096    0.667432    0.031795    0.000000
   123  O2    c     0.618741    0.931847    0.696295    0.000000
   124  O2    c     0.666223    0.613757    0.860692    0.000000
   125  O2    c     0.956327    0.306552    0.527859    0.000000
   126  O2    c     0.366032    0.019877    0.195982    0.000000
   127  O3    c     0.769020    0.288242    0.012310    0.000000
   128  O2    c     0.688494    0.450699    0.345678    0.000000
   129  O2    c     0.525661    0.205309    0.675934    0.000000
   130  O2    c     0.231351    0.674325    0.512203    0.000000
   131  O2    c     0.299729    0.522105    0.843471    0.000000
   132  O2    c     0.471367    0.752380    0.176259    0.000000
   133  O2    c     0.302561    0.752643    0.321157    0.000000
   134  O2    c     0.466753    0.685185    0.989339    0.000000
   135  O2    c     0.220582    0.508578    0.656642    0.000000
   136  O2    c     0.692269    0.215699    0.821360    0.000000
   137  O2    c     0.531332    0.281358    0.488995    0.000000
   138  O3    c     0.752385    0.443852    0.160581    0.000000
   139  O3    c     0.791026    0.539742    0.026254    0.000000
   140  O2    c     0.462440    0.243093    0.365434    0.000000
   141  O2    c     0.741508    0.190207    0.693299    0.000000
   142  O2    c     0.213589    0.442879    0.527037    0.000000
   143  O2    c     0.531219    0.737582    0.861310    0.000000
   144  O2    c     0.251773    0.764475    0.192531    0.000000
   145  O2    c     0.533621    0.766060    0.303899    0.000000
   146  O2    c     0.245658    0.453966    0.971126    0.000000
   147  O2    c     0.208132    0.725231    0.638817    0.000000
   148  O2    c     0.460776    0.201996    0.803969    0.000000
   149  O2    c     0.739904    0.513017    0.472129    0.000000
   150  O2    c     0.780849    0.241390    0.135842    0.000000
   151  O2    c     0.228476    0.312920    0.895895    0.000000
   152  O2    c     0.677851    0.893460    0.230953    0.000000
   153  O2    c     0.086610    0.743439    0.564530    0.000000
   154  O2    c     0.760910    0.656148    0.399336    0.000000
   155  O2    c     0.317849    0.072425    0.730682    0.000000
   156  O2    c     0.910610    0.228546    0.064385    0.000000
   157  O2    c     0.319792    0.219297    0.438289    0.000000
   158  O3    c     0.907460    0.685828    0.099809    0.000000
   159  O2    c     0.761944    0.072194    0.768019    0.000000
   160  O2    c     0.675082    0.756351    0.934240    0.000000
   161  O2    c     0.089403    0.300798    0.600890    0.000000
   162  O2    c     0.224880    0.883297    0.267190    0.000000
   163  O2    c     0.588756    0.548286    0.989102    0.000000
   164  O2    c     0.433927    0.011879    0.322669    0.000000
   165  O2    c     0.961418    0.385192    0.656142    0.000000
   166  O3    c     0.400822    0.407926    0.500630    0.000000
   167  O2    c     0.554304    0.957066    0.824299    0.000000
   168  O3    c     0.038942    0.578119    0.159984    0.000000
   169  O2    c     0.551448    0.567587    0.345889    0.000000
   170  O2    c     0.018180    0.437128    0.011668    0.000000
   171  O2    c     0.405995    0.947171    0.676313    0.000000
   172  O2    c     0.437849    0.401901    0.840498    0.000000
   173  O2    c     0.972392    0.536290    0.507961    0.000000
   174  O2    c     0.585264    0.009991    0.175705    0.000000
   175  O2    c     0.576754    0.145990    0.249688    0.000000
   176  O2    c     0.829135    0.393564    0.581218    0.000000
   177  O2    c     0.580270    0.405947    0.913474    0.000000
   178  O2    c     0.411578    0.815442    0.750854    0.000000
   179  O2    c     0.160338    0.568227    0.083616    0.000000
   180  O3    c     0.399375    0.570416    0.414457    0.000000
   181  F     c     0.451991    0.886648    0.249343    0.000000
   182  F     c     0.084387    0.520508    0.583842    0.000000
   183  F     c     0.447961    0.535893    0.916871    0.000000
   184  F     c     0.541890    0.076893    0.750460    0.000000
   185  F     c     0.892163    0.467775    0.091456    0.000000
   186  F     c     0.524740    0.456365    0.427328    0.000000
   187  O2    s     0.922750    0.996408    0.999132    0.000000
   188  O2    s     0.996012    0.907485    0.334213    0.000000
   189  O2    s     0.067534    0.049023    0.667893    0.000000
   190  O2    s     0.074296    0.975067    0.500666    0.000000
   191  O2    s     0.996608    0.062126    0.832780    0.000000
   192  O2    s     0.926451    0.915146    0.166355    0.000000
   193  O2    s     0.347022    0.566322    0.329413    0.000000
   194  O2    s     0.405220    0.740365    0.667816    0.000000
   195  O2    s     0.235195    0.637726    0.000468    0.000000
   196  O2    s     0.643665    0.400382    0.830115    0.000000
   197  O2    s     0.573369    0.208633    0.167093    0.000000
   198  O2    s     0.767123    0.332184    0.498090    0.000000
   199  O3    s     0.578075    0.341345    0.996256    0.000000
   200  O2    s     0.757614    0.388001    0.664413    0.000000
   201  O2    s     0.639966    0.216417    0.332906    0.000000
   202  O3    s     0.412778    0.626178    0.502642    0.000000
   203  O2    s     0.241069    0.568690    0.165029    0.000000
   204  O2    s     0.348704    0.754131    0.834427    0.000000
   205  O2    s     0.121751    0.205402    0.967294    0.000000
   206  O2    s     0.781052    0.889949    0.303271    0.000000
   207  O2    s     0.086735    0.852048    0.636892    0.000000
   208  O2    s     0.885175    0.761275    0.470601    0.000000
   209  O2    s     0.213117    0.081899    0.802607    0.000000
   210  O2    s     0.902111    0.110252    0.136375    0.000000
   211  O2    s     0.212130    0.103582    0.365446    0.000000
   212  O2    s     0.912335    0.785621    0.026163    0.000000
   213  O2    s     0.870244    0.070699    0.696272    0.000000
   214  O2    s     0.779551    0.865131    0.862076    0.000000
   215  O2    s     0.097333    0.194242    0.529511    0.000000
   216  O2    s     0.115926    0.878748    0.194927    0.000000
   217  O2    s     0.927526    0.843211    0.250300    0.000000
   218  O2    s     0.129855    0.043484    0.584654    0.000000
   219  O2    s     0.925739    0.057497    0.915448    0.000000
   220  O2    s     0.063416    0.123444    0.749900    0.000000
   221  O2    s     0.861865    0.922410    0.082258    0.000000
   222  O2    s     0.071862    0.907927    0.416824    0.000000
   223  O2    s     0.914133    0.201631    0.980190    0.000000
   224  O2    s     0.789593    0.688253    0.315950    0.000000
   225  O2    s     0.288096    0.064424    0.648596    0.000000
   226  O2    s     0.096971    0.773572    0.482002    0.000000
   227  O2    s     0.200734    0.283500    0.814143    0.000000
   228  O2    s     0.706289    0.894345    0.148510    0.000000
   229  O2    s     0.200597    0.889953    0.349432    0.000000
   230  O2    s     0.705156    0.786625    0.016551    0.000000
   231  O2    s     0.082384    0.271397    0.683254    0.000000
   232  O2    s     0.790648    0.077536    0.850214    0.000000
   233  O2    s     0.293003    0.169541    0.520480    0.000000
   234  O3    s     0.897899    0.690995    0.183903    0.000000
   235  O2    s     0.330080    0.639043    0.247853    0.000000
   236  O2    s     0.338512    0.645243    0.584840    0.000000
   237  O2    s     0.326780    0.661277    0.917035    0.000000
   238  O2    s     0.665952    0.323877    0.747690    0.000000
   239  O3    s     0.644436    0.317772    0.086895    0.000000
   240  O2    s     0.666606    0.314268    0.416156    0.000000
   241  O2    s     0.374276    0.330077    0.965723    0.000000
   242  O2    s     0.654361    0.018710    0.301869    0.000000
   243  O2    s     0.955706    0.598099    0.634550    0.000000
   244  O3    s     0.638737    0.655361    0.471526    0.000000
   245  O2    s     0.335930    0.949399    0.801946    0.000000
   246  O2    s     0.031911    0.363818    0.134848    0.000000
   247  O2    s     0.330809    0.358609    0.367729    0.000000
   248  O2    s     0.042647    0.657687    0.033426    0.000000
   249  O2    s     0.615564    0.938842    0.698453    0.000000
   250  O2    s     0.656353    0.610646    0.862933    0.000000
   251  O2    s     0.962981    0.316931    0.530103    0.000000
   252  O2    s     0.369529    0.013165    0.198081    0.000000
   253  O3    s     0.777693    0.295449    0.014546    0.000000
   254  O2    s     0.681499    0.449816    0.348466    0.000000
   255  O2    s     0.526359    0.198562    0.679031    0.000000
   256  O2    s     0.223748    0.666933    0.514919    0.000000
   257  O2    s     0.307342    0.522549    0.846492    0.000000
   258  O2    s     0.470392    0.759560    0.179413    0.000000
   259  O2    s     0.309746    0.759468    0.317957    0.000000
   260  O2    s     0.466171    0.677758    0.986115    0.000000
   261  O2    s     0.213923    0.509018    0.653368    0.000000
   262  O2    s     0.684584    0.208337    0.818212    0.000000
   263  O2    s     0.532443    0.288957    0.486608    0.000000
   264  O3    s     0.756341    0.439468    0.156758    0.000000
   265  O3    s     0.795808    0.538385    0.028904    0.000000
   266  O2    s     0.465013    0.249097    0.367482    0.000000
   267  O2    s     0.733824    0.185444    0.695915    0.000000
   268  O2    s     0.208481    0.444615    0.529720    0.000000
   269  O2    s     0.528657    0.729855    0.863820    0.000000
   270  O2    s     0.258974    0.769327    0.195227    0.000000
   271  O2    s     0.530882    0.771398    0.301364    0.000000
   272  O2    s     0.254098    0.456803    0.968493    0.000000
   273  O2    s     0.202974    0.717161    0.636214    0.000000
   274  O2    s     0.463466    0.196391    0.801350    0.000000
   275  O2    s     0.733802    0.509900    0.469920    0.000000
   276  O2    s     0.785653    0.247468    0.134032    0.000000
   277  O2    s     0.237994    0.322490    0.896832    0.000000
   278  O2    s     0.667948    0.892862    0.231827    0.000000
   279  O2    s     0.087268    0.734173    0.565447    0.000000
   280  O2    s     0.752564    0.647837    0.399782    0.000000
   281  O2    s     0.327481    0.072664    0.731611    0.000000
   282  O2    s     0.909347    0.236081    0.065237    0.000000
   283  O2    s     0.328087    0.226514    0.437142    0.000000
   284  O3    s     0.907638    0.676083    0.097343    0.000000
   285  O2    s     0.752469    0.072444    0.767172    0.000000
   286  O2    s     0.665599    0.747124    0.933373    0.000000
   287  O2    s     0.089387    0.310361    0.600085    0.000000
   288  O2    s     0.234487    0.883636    0.266321    0.000000
   289  O2    s     0.583952    0.548985    0.985798    0.000000
   290  O2    s     0.434349    0.006712    0.319323    0.000000
   291  O2    s     0.966894    0.390406    0.652755    0.000000
   292  O3    s     0.404767    0.402829    0.496842    0.000000
   293  O2    s     0.554514    0.961861    0.820836    0.000000
   294  O3    s     0.036083    0.571688    0.156142    0.000000
   295  O2    s     0.552768    0.564494    0.348574    0.000000
   296  O2    s     0.015909    0.436467    0.014545    0.000000
   297  O2    s     0.410549    0.952202    0.679606    0.000000
   298  O2    s     0.437543    0.406300    0.843825    0.000000
   299  O2    s     0.977107    0.536345    0.511420    0.000000
   300  O2    s     0.580436    0.004837    0.179102    0.000000
   301  O2    s     0.570986    0.134567    0.249793    0.000000
   302  O2    s     0.840649    0.399164    0.581344    0.000000
   303  O2    s     0.574749    0.411386    0.913490    0.000000
   304  O2    s     0.417007    0.826399    0.750813    0.000000
   305  O2    s     0.151062    0.564097    0.083465    0.000000
   306  O3    s     0.404714    0.563072    0.412641    0.000000
   307  F     s     0.452105    0.886513    0.249368    0.000000
   308  F     s     0.083716    0.520245    0.583976    0.000000
   309  F     s     0.447515    0.535980    0.917060    0.000000
   310  F     s     0.542064    0.077296    0.750611    0.000000
   311  F     s     0.891096    0.473235    0.093802    0.000000
   312  F     s     0.520825    0.462633    0.429927    0.000000
--------------------------------------------------------------------------------

  Final Cartesian lattice vectors (Angstroms) :

       11.958216    0.002638    0.003459
       -5.922505   10.382719    0.004918
        0.240890   -0.381841   29.443451


  Final cell parameters and derivatives :

--------------------------------------------------------------------------------
       a           11.958216 Angstrom     dE/de1(xx)     0.004680 eV/strain
       b           11.953115 Angstrom     dE/de2(yy)     0.004375 eV/strain
       c           29.446913 Angstrom     dE/de3(zz)     0.004943 eV/strain
       alpha       90.854044 Degrees      dE/de4(yz)    -0.000554 eV/strain
       beta        89.514880 Degrees      dE/de5(xz)     0.001116 eV/strain
       gamma      119.688626 Degrees      dE/de6(xy)    -0.000350 eV/strain
--------------------------------------------------------------------------------

  Primitive cell volume =          3656.145080 Angs**3

  Density of cell =      1.749956 g/cm**3

  Non-primitive cell volume =          3656.145080 Angs**3


  Final internal derivatives :

--------------------------------------------------------------------------------
   No.  Atomic          a             b             c           Radius
        Label          (eV)          (eV)          (eV)        (eV/Angs)
--------------------------------------------------------------------------------
      1 Ge    c       0.000000      0.000000      0.000000      0.000000
      2 Si    c      -0.000111      0.000179     -0.000166      0.000000
      3 Si    c       0.000097     -0.000033     -0.000925      0.000000
      4 Si    c      -0.000077      0.000183      0.000197      0.000000
      5 Si    c       0.000228     -0.000041     -0.000063      0.000000
      6 Si    c      -0.000109      0.000167     -0.000051      0.000000
      7 Si    c       0.000004      0.000156     -0.000152      0.000000
      8 Si    c       0.000407     -0.000167     -0.000451      0.000000
      9 Si    c       0.000047      0.000198     -0.000129      0.000000
     10 Si    c      -0.000143     -0.000191      0.001218      0.000000
     11 Si    c      -0.000089      0.000201      0.000187      0.000000
     12 Si    c       0.001298     -0.001667      0.005820      0.000000
     13 Si    c      -0.004453      0.004532     -0.008754      0.000000
     14 Si    c      -0.000049      0.000032      0.000142      0.000000
     15 Si    c       0.000051      0.000131     -0.000107      0.000000
     16 Ge    c       0.000046      0.000081      0.000314      0.000000
     17 Si    c      -0.000020      0.000319      0.001400      0.000000
     18 Si    c      -0.000023      0.000705      0.001045      0.000000
     19 Si    c      -0.000018      0.000083     -0.000515      0.000000
     20 Si    c       0.001118     -0.000042      0.000211      0.000000
     21 Si    c       0.000114      0.000239     -0.000773      0.000000
     22 Si    c      -0.000433      0.000416     -0.000321      0.000000
     23 Si    c      -0.000051      0.000133      0.000098      0.000000
     24 Si    c      -0.000027      0.000190     -0.000446      0.000000
     25 Si    c       0.000096     -0.000015     -0.000243      0.000000
     26 Si    c       0.000107      0.000042     -0.000098      0.000000
     27 Si    c      -0.000108      0.000239     -0.000024      0.000000
     28 Si    c      -0.000056      0.000120     -0.000292      0.000000
     29 Si    c       0.000166      0.000059     -0.000609      0.000000
     30 Si    c       0.002551     -0.003403     -0.001180      0.000000
     31 Si    c      -0.000025      0.000112      0.000270      0.000000
     32 Ge    c       0.000965     -0.000894      0.004531      0.000000
     33 Si    c      -0.000443      0.000211      0.000365      0.000000
     34 Si    c       0.000291     -0.000320      0.000634      0.000000
     35 Si    c      -0.000025      0.000031      0.000145      0.000000
     36 Si    c       0.000036      0.000081     -0.000244      0.000000
     37 Si    c       0.000248      0.000251     -0.000741      0.000000
     38 Si    c      -0.000072      0.000110     -0.000181      0.000000
     39 Si    c       0.000008      0.000234      0.000022      0.000000
     40 Si    c      -0.000015      0.000181      0.000231      0.000000
     41 Si    c       0.000108      0.000002      0.000798      0.000000
     42 Si    c       0.000141     -0.000538      0.000314      0.000000
     43 Si    c      -0.000048      0.000081     -0.000207      0.000000
     44 Si    c      -0.001405      0.002748     -0.001765      0.000000
     45 Si    c      -0.000015      0.000142     -0.000656      0.000000
     46 Si    c      -0.000129      0.000114      0.000195      0.000000
     47 Si    c      -0.000041      0.000088      0.000101      0.000000
     48 Si    c      -0.000011      0.000027      0.000095      0.000000
     49 Si    c      -0.000469     -0.000042      0.001104      0.000000
     50 Si    c      -0.000175      0.000133      0.000535      0.000000
     51 Si    c       0.000166      0.000170      0.000060      0.000000
     52 Si    c      -0.000081      0.000046      0.000221      0.000000
     53 Si    c       0.000396      0.000090      0.001128      0.000000
     54 Si    c       0.000526     -0.000609     -0.001276      0.000000
     55 Si    c      -0.000008      0.000193     -0.000247      0.000000
     56 Si    c      -0.001396      0.002148      0.004429      0.000000
     57 Si    c      -0.000366      0.000440     -0.001554      0.000000
     58 Si    c      -0.000190     -0.000049     -0.001262      0.000000
     59 Si    c       0.000039      0.000211     -0.000556      0.000000
     60 Si    c      -0.000179     -0.000040     -0.000758      0.000000
     61 O2    c       0.001082      0.000775     -0.003650      0.000000
     62 O2    c      -0.000020      0.000134      0.000020      0.000000
     63 O2    c       0.000028      0.000107      0.000256      0.000000
     64 O2    c      -0.000100      0.000257      0.000081      0.000000
     65 O2    c      -0.000223     -0.000104      0.000303      0.000000
     66 O2    c      -0.000089      0.000168     -0.000260      0.000000
     67 O2    c      -0.000077      0.000145     -0.000094      0.000000
     68 O2    c       0.000089      0.000103      0.000026      0.000000
     69 O2    c      -0.000115      0.000444     -0.000025      0.000000
     70 O2    c       0.000086      0.000021     -0.000249      0.000000
     71 O2    c      -0.000649     -0.000213      0.001097      0.000000
     72 O2    c       0.000058      0.000073      0.000162      0.000000
     73 O3    c      -0.004612     -0.003338     -0.008787      0.000000
     74 O2    c      -0.000049      0.000238      0.000129      0.000000
     75 O2    c       0.000055     -0.000022     -0.000137      0.000000
     76 O3    c       0.000044      0.000158     -0.000096      0.000000
     77 O2    c       0.000121      0.000087      0.000011      0.000000
     78 O2    c      -0.000138      0.000185     -0.000311      0.000000
     79 O2    c       0.000396     -0.000154      0.000766      0.000000
     80 O2    c       0.000002      0.000088      0.000002      0.000000
     81 O2    c       0.000032      0.000005      0.000065      0.000000
     82 O2    c      -0.000028      0.000184     -0.000015      0.000000
     83 O2    c      -0.000155      0.000128      0.000008      0.000000
     84 O2    c       0.000072      0.000231      0.000263      0.000000
     85 O2    c      -0.000023      0.000101      0.000016      0.000000
     86 O2    c       0.003725     -0.004114     -0.002068      0.000000
     87 O2    c       0.000130      0.000119      0.000023      0.000000
     88 O2    c       0.000005     -0.000023     -0.000150      0.000000
     89 O2    c      -0.000145      0.000256     -0.000041      0.000000
     90 O2    c       0.000244      0.000038     -0.000056      0.000000
     91 O2    c       0.000053      0.000090     -0.000564      0.000000
     92 O2    c      -0.000070      0.000074      0.000634      0.000000
     93 O2    c       0.000146     -0.000150      0.000521      0.000000
     94 O2    c      -0.000002      0.000013      0.000441      0.000000
     95 O2    c       0.000107     -0.000109      0.000365      0.000000
     96 O2    c      -0.000060      0.000135      0.000047      0.000000
     97 O2    c      -0.000573      0.000686      0.000387      0.000000
     98 O2    c      -0.000013      0.000082     -0.000045      0.000000
     99 O2    c      -0.000089      0.000240     -0.000187      0.000000
    100 O2    c      -0.000008      0.000105     -0.000007      0.000000
    101 O2    c      -0.000011      0.000102      0.000005      0.000000
    102 O2    c      -0.000366      0.000142      0.000103      0.000000
    103 O2    c       0.000050      0.000026     -0.000034      0.000000
    104 O2    c      -0.002162      0.000105     -0.001519      0.000000
    105 O2    c       0.000024      0.000258      0.000033      0.000000
    106 O2    c      -0.000028      0.000133      0.000298      0.000000
    107 O2    c      -0.000067      0.000149      0.000062      0.000000
    108 O3    c      -0.000122      0.000321     -0.000648      0.000000
    109 O2    c      -0.000012      0.000119      0.000144      0.000000
    110 O2    c      -0.000005      0.000150     -0.000052      0.000000
    111 O2    c      -0.000154      0.000253     -0.000109      0.000000
    112 O2    c       0.000036      0.000418     -0.000541      0.000000
    113 O3    c      -0.002612     -0.000182     -0.008018      0.000000
    114 O2    c       0.000062      0.000051      0.000084      0.000000
    115 O2    c      -0.000196      0.000000      0.000035      0.000000
    116 O2    c       0.000005      0.000107      0.000079      0.000000
    117 O2    c      -0.000046      0.000168      0.000152      0.000000
    118 O3    c      -0.000127      0.000172      0.000115      0.000000
    119 O2    c       0.000006      0.000057      0.000026      0.000000
    120 O2    c       0.000172     -0.000555      0.000533      0.000000
    121 O2    c      -0.000065      0.000154     -0.000104      0.000000
    122 O2    c       0.001555      0.000033     -0.000816      0.000000
    123 O2    c       0.000001      0.000152      0.000016      0.000000
    124 O2    c       0.000004      0.000042     -0.000097      0.000000
    125 O2    c      -0.000106      0.000189     -0.000014      0.000000
    126 O2    c      -0.000244      0.000158     -0.000153      0.000000
    127 O3    c      -0.004511      0.000183     -0.001078      0.000000
    128 O2    c       0.000007      0.000069     -0.000006      0.000000
    129 O2    c       0.000039      0.000199      0.000006      0.000000
    130 O2    c       0.000066      0.000082     -0.000051      0.000000
    131 O2    c      -0.000073      0.000179     -0.000197      0.000000
    132 O2    c       0.000016      0.000104     -0.000194      0.000000
    133 O2    c      -0.000080      0.000167      0.000074      0.000000
    134 O2    c       0.000038      0.000093      0.000251      0.000000
    135 O2    c       0.000105      0.000215      0.000221      0.000000
    136 O2    c      -0.000082      0.000112      0.000039      0.000000
    137 O2    c       0.000011      0.000124     -0.000012      0.000000
    138 O3    c       0.000190      0.001120      0.002040      0.000000
    139 O3    c      -0.004493      0.000783     -0.006570      0.000000
    140 O2    c       0.000028      0.000098     -0.000038      0.000000
    141 O2    c       0.000013      0.000175      0.000017      0.000000
    142 O2    c       0.000013      0.000118     -0.000145      0.000000
    143 O2    c      -0.000039      0.000070      0.000006      0.000000
    144 O2    c      -0.000062      0.000132     -0.000247      0.000000
    145 O2    c      -0.000048      0.000138      0.000020      0.000000
    146 O2    c      -0.000205      0.000390      0.000503      0.000000
    147 O2    c       0.000001      0.000220      0.000093      0.000000
    148 O2    c       0.000012      0.000089      0.000035      0.000000
    149 O2    c      -0.000009      0.000149      0.000071      0.000000
    150 O2    c      -0.000158      0.000078      0.000305      0.000000
    151 O2    c      -0.000022     -0.000018      0.000219      0.000000
    152 O2    c       0.000031      0.000098      0.000137      0.000000
    153 O2    c      -0.000038      0.000193     -0.000061      0.000000
    154 O2    c       0.000005      0.000198      0.000094      0.000000
    155 O2    c      -0.000224      0.000257     -0.000133      0.000000
    156 O2    c       0.000150     -0.000595      0.001268      0.000000
    157 O2    c      -0.000079      0.000102     -0.000020      0.000000
    158 O3    c      -0.001008      0.004722     -0.005270      0.000000
    159 O2    c       0.000240     -0.000008     -0.000009      0.000000
    160 O2    c       0.000140      0.000139      0.000017      0.000000
    161 O2    c      -0.000016      0.000152     -0.000113      0.000000
    162 O2    c      -0.000021      0.000110     -0.000017      0.000000
    163 O2    c       0.001010      0.000257      0.002941      0.000000
    164 O2    c       0.000002      0.000095      0.000038      0.000000
    165 O2    c      -0.000027      0.000188      0.000073      0.000000
    166 O3    c      -0.000144      0.000319      0.000196      0.000000
    167 O2    c      -0.000035      0.000066     -0.000054      0.000000
    168 O3    c       0.000460      0.000029     -0.000174      0.000000
    169 O2    c      -0.000086      0.000140     -0.000053      0.000000
    170 O2    c       0.001059      0.000625     -0.000555      0.000000
    171 O2    c       0.000046      0.000136     -0.000038      0.000000
    172 O2    c      -0.000029      0.000075      0.000020      0.000000
    173 O2    c      -0.000088      0.000155     -0.000110      0.000000
    174 O2    c       0.000163      0.000077     -0.000768      0.000000
    175 O2    c       0.000024      0.000183      0.000498      0.000000
    176 O2    c      -0.000032      0.000169      0.000026      0.000000
    177 O2    c      -0.000026     -0.000022     -0.000947      0.000000
    178 O2    c       0.000078     -0.000220     -0.000655      0.000000
    179 O2    c       0.000271      0.000177     -0.000365      0.000000
    180 O3    c      -0.000249      0.000400      0.000165      0.000000
    181 F     c      -0.000026      0.000252     -0.000474      0.000000
    182 F     c      -0.000017      0.000164      0.000036      0.000000
    183 F     c       0.000088     -0.000143      0.000511      0.000000
    184 F     c      -0.000029      0.000134      0.000302      0.000000
    185 F     c       0.000181     -0.000049      0.001214      0.000000
    186 F     c      -0.000003      0.000090      0.000020      0.000000
    187 O2    s      -0.000295      0.000878      0.000470      0.000000
    188 O2    s      -0.000052      0.000219     -0.000039      0.000000
    189 O2    s       0.000062      0.000062     -0.000331      0.000000
    190 O2    s      -0.000062      0.000160     -0.000147      0.000000
    191 O2    s       0.000209     -0.000080     -0.000203      0.000000
    192 O2    s       0.000103      0.000175      0.000866      0.000000
    193 O2    s      -0.000036      0.000108     -0.000013      0.000000
    194 O2    s       0.000037      0.000149     -0.000037      0.000000
    195 O2    s      -0.000148     -0.000143      0.000033      0.000000
    196 O2    s      -0.000035      0.000127      0.000456      0.000000
    197 O2    s       0.000228     -0.000007      0.000727      0.000000
    198 O2    s      -0.000064      0.000136      0.000049      0.000000
    199 O3    s       0.003139      0.003187      0.006896      0.000000
    200 O2    s       0.000000      0.000205     -0.000103      0.000000
    201 O2    s      -0.000017      0.000121     -0.000056      0.000000
    202 O3    s      -0.000068      0.000195     -0.000177      0.000000
    203 O2    s       0.000122      0.000111      0.000453      0.000000
    204 O2    s      -0.000020     -0.000065      0.000103      0.000000
    205 O2    s       0.000261      0.000025     -0.000610      0.000000
    206 O2    s      -0.000084      0.000170      0.000069      0.000000
    207 O2    s       0.000010      0.000172      0.000016      0.000000
    208 O2    s      -0.000098      0.000169      0.000128      0.000000
    209 O2    s       0.000064     -0.000051      0.000192      0.000000
    210 O2    s      -0.000008      0.000207     -0.000099      0.000000
    211 O2    s      -0.000067      0.000190     -0.000128      0.000000
    212 O2    s      -0.000050      0.000095      0.001176      0.000000
    213 O2    s      -0.000097      0.000154     -0.000353      0.000000
    214 O2    s       0.000088     -0.000180     -0.000303      0.000000
    215 O2    s      -0.000116      0.000173     -0.000066      0.000000
    216 O2    s      -0.000068      0.000282     -0.000139      0.000000
    217 O2    s      -0.000078      0.000131      0.000280      0.000000
    218 O2    s       0.000025      0.000213     -0.000208      0.000000
    219 O2    s       0.000056      0.000192     -0.000590      0.000000
    220 O2    s       0.000041      0.000155     -0.000303      0.000000
    221 O2    s      -0.000533      0.001235      0.002332      0.000000
    222 O2    s      -0.000051      0.000201      0.000018      0.000000
    223 O2    s       0.000113      0.000056     -0.000884      0.000000
    224 O2    s      -0.000100      0.000091     -0.000124      0.000000
    225 O2    s       0.000062      0.000179     -0.000168      0.000000
    226 O2    s      -0.000021      0.000107      0.000008      0.000000
    227 O2    s       0.000013      0.000141      0.000028      0.000000
    228 O2    s      -0.000137      0.000179      0.000195      0.000000
    229 O2    s       0.000039      0.000082      0.000031      0.000000
    230 O2    s      -0.001164      0.000082      0.000948      0.000000
    231 O2    s      -0.000062      0.000301     -0.000083      0.000000
    232 O2    s      -0.000255      0.000227      0.000073      0.000000
    233 O2    s       0.000044      0.000077     -0.000065      0.000000
    234 O3    s       0.000130     -0.000179      0.002478      0.000000
    235 O2    s      -0.000044      0.000138     -0.000250      0.000000
    236 O2    s       0.000004      0.000160      0.000032      0.000000
    237 O2    s       0.000009     -0.000163      0.000106      0.000000
    238 O2    s      -0.000021     -0.000043      0.000363      0.000000
    239 O3    s       0.001535      0.001154      0.002600      0.000000
    240 O2    s      -0.000055      0.000164     -0.000126      0.000000
    241 O2    s       0.000395     -0.000126      0.000258      0.000000
    242 O2    s      -0.000024      0.000185      0.000031      0.000000
    243 O2    s      -0.000009      0.000206     -0.000093      0.000000
    244 O3    s      -0.000055      0.000219     -0.000074      0.000000
    245 O2    s      -0.000078      0.000021     -0.000157      0.000000
    246 O2    s      -0.000091      0.000143     -0.000572      0.000000
    247 O2    s      -0.000055      0.000131      0.000034      0.000000
    248 O2    s      -0.000697     -0.000657     -0.000390      0.000000
    249 O2    s       0.000034      0.000109     -0.000135      0.000000
    250 O2    s       0.000103     -0.000136     -0.000083      0.000000
    251 O2    s      -0.000034      0.000115     -0.000077      0.000000
    252 O2    s       0.000256      0.000082      0.000367      0.000000
    253 O3    s       0.001160      0.002280      0.000474      0.000000
    254 O2    s      -0.000029      0.000116     -0.000108      0.000000
    255 O2    s       0.000003      0.000195     -0.000124      0.000000
    256 O2    s      -0.000090      0.000210     -0.000107      0.000000
    257 O2    s      -0.000141      0.000012      0.000128      0.000000
    258 O2    s      -0.000067      0.000225      0.000430      0.000000
    259 O2    s      -0.000045      0.000074      0.000111      0.000000
    260 O2    s      -0.000051     -0.000062     -0.000408      0.000000
    261 O2    s      -0.000005      0.000136     -0.000124      0.000000
    262 O2    s      -0.000015      0.000274      0.000081      0.000000
    263 O2    s      -0.000062      0.000148      0.000143      0.000000
    264 O3    s      -0.000841      0.000519     -0.001570      0.000000
    265 O3    s       0.004877     -0.004199      0.005513      0.000000
    266 O2    s      -0.000049      0.000125     -0.000056      0.000000
    267 O2    s       0.000004      0.000182     -0.000126      0.000000
    268 O2    s      -0.000103      0.000158      0.000021      0.000000
    269 O2    s      -0.000079      0.000100     -0.000204      0.000000
    270 O2    s       0.000044      0.000118      0.000294      0.000000
    271 O2    s       0.000024      0.000043      0.000023      0.000000
    272 O2    s      -0.000269      0.000178     -0.000246      0.000000
    273 O2    s      -0.000018      0.000142     -0.000072      0.000000
    274 O2    s      -0.000053      0.000188      0.000121      0.000000
    275 O2    s      -0.000075      0.000201     -0.000023      0.000000
    276 O2    s       0.000399     -0.000114     -0.000418      0.000000
    277 O2    s      -0.000181      0.000083     -0.000201      0.000000
    278 O2    s      -0.000143      0.000187     -0.000197      0.000000
    279 O2    s      -0.000033      0.000183      0.000064      0.000000
    280 O2    s      -0.000086      0.000116     -0.000041      0.000000
    281 O2    s       0.000082     -0.000020     -0.000005      0.000000
    282 O2    s       0.000434      0.000451      0.001809      0.000000
    283 O2    s      -0.000065      0.000152     -0.000026      0.000000
    284 O3    s      -0.000480     -0.003082      0.003271      0.000000
    285 O2    s      -0.000040      0.000121     -0.000247      0.000000
    286 O2    s      -0.000385     -0.000000      0.000005      0.000000
    287 O2    s      -0.000004      0.000125      0.000060      0.000000
    288 O2    s      -0.000049      0.000218     -0.000011      0.000000
    289 O2    s      -0.001971     -0.000769     -0.005707      0.000000
    290 O2    s      -0.000085      0.000208      0.000010      0.000000
    291 O2    s       0.000009      0.000188      0.000027      0.000000
    292 O3    s      -0.000067      0.000139     -0.000052      0.000000
    293 O2    s      -0.000004     -0.000073      0.000184      0.000000
    294 O3    s       0.000207      0.000093      0.002334      0.000000
    295 O2    s      -0.000043      0.000121      0.000000      0.000000
    296 O2    s      -0.001628      0.001303      0.000496      0.000000
    297 O2    s      -0.000017      0.000134     -0.000082      0.000000
    298 O2    s       0.000107     -0.000115     -0.000165      0.000000
    299 O2    s      -0.000070      0.000162     -0.000020      0.000000
    300 O2    s      -0.000194      0.000180      0.001110      0.000000
    301 O2    s      -0.000060      0.000053     -0.000617      0.000000
    302 O2    s      -0.000064      0.000177     -0.000014      0.000000
    303 O2    s       0.000100      0.000213      0.001520      0.000000
    304 O2    s      -0.000088      0.000297      0.000216      0.000000
    305 O2    s      -0.000197     -0.000176     -0.000893      0.000000
    306 O3    s       0.000069     -0.000042      0.000012      0.000000
    307 F     s       0.000000     -0.000039      0.000688      0.000000
    308 F     s      -0.000027      0.000192     -0.000042      0.000000
    309 F     s      -0.000231      0.000417     -0.000784      0.000000
    310 F     s       0.000051      0.000101     -0.000634      0.000000
    311 F     s      -0.000183     -0.000555     -0.003409      0.000000
    312 F     s      -0.000063      0.000189     -0.000165      0.000000
--------------------------------------------------------------------------------
  Maximum abs         0.004877      0.004722      0.008787      0.000000
--------------------------------------------------------------------------------


  Time to end of optimisation =      38.5138 seconds


  Peak dynamic memory used =      19.13 MB 


  Timing analysis for GULP :

--------------------------------------------------------------------------------
  Task / Subroutine                                          Time (Seconds)
--------------------------------------------------------------------------------
  Calculation of reciprocal space energy and derivatives          0.9041
  Calculation of real space energy and derivatives               33.7077
  Calculation of three-body energy and derivatives                3.4603
  Calculation of matrix inversion                                 0.3718
--------------------------------------------------------------------------------
  Total CPU time                                                 38.5138
--------------------------------------------------------------------------------


  Dump file written as out.res                                                 
  CIF file written as out.cif                                                 


  Job Finished at 13:11.09 30th October    2016                               

