********************************************************************************
*                       GENERAL UTILITY LATTICE PROGRAM                        *
*                                 Julian Gale                                  *
*                      Nanochemistry Research Institute                        *
*                           Department of Chemistry                            *
*                    Curtin University, Western Australia                      *
********************************************************************************
* Version = 4.2.0 * Last modified =  20th January 2014                         *
********************************************************************************
*  optimise     - perform optimisation run                                     *
*  conp         - constant pressure calculation                                *
*  qok          - running with non charge neutral cell is OK                   *
********************************************************************************

  Job Started  at 23:41.01 30th October    2016                               

  Number of CPUs =     1


  Total number of configurations input =   1

********************************************************************************
*  Input for Configuration =   1                                               *
********************************************************************************

  Formula = Ge3Si57O120F6                                               

  Number of irreducible atoms/shells =     312


  Total number atoms/shells =     312

  Dimensionality = 3               :  Bulk   


  Charge on solid   =  -6.000000 =>neutralising background added


  Cartesian lattice vectors (Angstroms) :

       11.981113    0.000000    0.000000
       -6.092471   10.353030    0.000000
       -0.198972   -0.174185   29.454346

  Cell parameters (Angstroms/Degrees):

  a =      11.9811    alpha =  90.0957
  b =      12.0126    beta  =  90.3870
  c =      29.4555    gamma = 120.4756

  Initial cell volume =        3653.541129 Angs**3

  Temperature of configuration =  0.000     K 

  Pressure of configuration =         0.000 GPa 

  Fractional coordinates of asymmetric unit :

--------------------------------------------------------------------------------
   No.  Atomic       x           y          z         Charge      Occupancy
        Label      (Frac)      (Frac)     (Frac)        (e)         (Frac)  
--------------------------------------------------------------------------------
      1 Ge    c    0.699600    0.375700    0.033890     4.00000    1.000000    
      2 Si    c    0.621557 *  0.323401 *  0.365655 *   4.00000    1.000000    
      3 Si    c    0.680963 *  0.297019 *  0.698170 *   4.00000    1.000000    
      4 Si    c    0.294960 *  0.620069 *  0.528288 *   4.00000    1.000000    
      5 Si    c    0.373338 *  0.691309 *  0.860490 *   4.00000    1.000000    
      6 Si    c    0.319960 *  0.704043 *  0.197724 *   4.00000    1.000000    
      7 Si    c    0.375792 *  0.699567 *  0.298179 *   4.00000    1.000000    
      8 Si    c    0.318403 *  0.621620 *  0.963110 *   4.00000    1.000000    
      9 Si    c    0.297841 *  0.675881 *  0.628782 *   4.00000    1.000000    
     10 Si    c    0.632649 *  0.302609 *  0.800396 *   4.00000    1.000000    
     11 Si    c    0.674725 *  0.380329 *  0.466298 *   4.00000    1.000000    
     12 Si    c    0.688265 *  0.318020 *  0.132868 *   4.00000    1.000000    
     13 Si    c    0.528456 *  0.413336 *  0.964178 *   4.00000    1.000000    
     14 Si    c    0.583580 *  0.110016 *  0.302671 *   4.00000    1.000000    
     15 Si    c    0.889507 *  0.469066 *  0.632004 *   4.00000    1.000000    
     16 Si    c    0.467860 *  0.582883 *  0.464078 *   4.00000    1.000000    
     17 Ge    c    0.434087 *  0.914221 *  0.795220 *   4.00000    1.000000    
     18 Si    c    0.109169 *  0.532629 *  0.130348 *   4.00000    1.000000    
     19 Si    c    0.416514 *  0.528106 *  0.362288 *   4.00000    1.000000    
     20 Si    c    0.105210 *  0.582100 *  0.027061 *   4.00000    1.000000    
     21 Si    c    0.467065 *  0.876955 *  0.696970 *   4.00000    1.000000    
     22 Si    c    0.586711 *  0.472418 *  0.861172 *   4.00000    1.000000    
     23 Si    c    0.885765 *  0.416243 *  0.530625 *   4.00000    1.000000    
     24 Si    c    0.529953 *  0.112730 *  0.201360 *   4.00000    1.000000    
     25 Ge    c    0.314758 *  0.420018 *  0.854575 *   4.00000    1.000000    
     26 Si    c    0.600299 *  0.905597 *  0.184834 *   4.00000    1.000000    
     27 Si    c    0.093743 *  0.697012 *  0.515371 *   4.00000    1.000000    
     28 Si    c    0.697795 *  0.600030 *  0.349654 *   4.00000    1.000000    
     29 Si    c    0.396763 *  0.092686 *  0.684194 *   4.00000    1.000000    
     30 Si    c    0.890759 *  0.294418 *  0.011851 *   4.00000    1.000000    
     31 Si    c    0.395636 *  0.302783 *  0.479848 *   4.00000    1.000000    
     32 Si    c    0.895392 *  0.603179 *  0.143909 *   4.00000    1.000000    
     33 Si    c    0.711116 *  0.100276 *  0.818224 *   4.00000    1.000000    
     34 Si    c    0.599457 *  0.698595 *  0.978589 *   4.00000    1.000000    
     35 Si    c    0.097781 *  0.396915 *  0.645556 *   4.00000    1.000000    
     36 Si    c    0.300422 *  0.900191 *  0.315113 *   4.00000    1.000000    
     37 Si    c    0.244766 *  0.334878 *  0.949753 *   4.00000    1.000000    
     38 Si    c    0.659411 *  0.909381 *  0.285451 *   4.00000    1.000000    
     39 Si    c    0.089373 *  0.749168 *  0.616188 *   4.00000    1.000000    
     40 Si    c    0.747110 *  0.660353 *  0.450369 *   4.00000    1.000000    
     41 Si    c    0.338678 *  0.096377 *  0.786109 *   4.00000    1.000000    
     42 Si    c    0.903383 *  0.249794 *  0.114724 *   4.00000    1.000000    
     43 Si    c    0.340122 *  0.250600 *  0.378853 *   4.00000    1.000000    
     44 Si    c    0.900660 *  0.659928 *  0.041490 *   4.00000    1.000000    
     45 Si    c    0.750266 *  0.082684 *  0.715044 *   4.00000    1.000000    
     46 Si    c    0.658748 *  0.753454 *  0.876659 *   4.00000    1.000000    
     47 Si    c    0.086303 *  0.338680 *  0.544539 *   4.00000    1.000000    
     48 Si    c    0.248957 *  0.911491 *  0.214467 *   4.00000    1.000000    
     49 Si    c    0.972330 *  0.120180 *  0.966618 *   4.00000    1.000000    
     50 Si    c    0.877231 *  0.846986 *  0.298893 *   4.00000    1.000000    
     51 Si    c    0.150151 *  0.028779 *  0.632510 *   4.00000    1.000000    
     52 Si    c    0.027927 *  0.878656 *  0.465523 *   4.00000    1.000000    
     53 Si    c    0.127971 *  0.170314 *  0.800576 *   4.00000    1.000000    
     54 Si    c    0.846272 *  0.972463 *  0.132991 *   4.00000    1.000000    
     55 Si    c    0.121679 *  0.969363 *  0.364617 *   4.00000    1.000000    
     56 Si    c    0.846531 *  0.879513 *  0.031899 *   4.00000    1.000000    
     57 Si    c    0.031897 *  0.151897 *  0.698386 *   4.00000    1.000000    
     58 Si    c    0.890096 *  0.032509 *  0.865329 *   4.00000    1.000000    
     59 Si    c    0.149084 *  0.122291 *  0.531367 *   4.00000    1.000000    
     60 Si    c    0.969397 *  0.851728 *  0.197398 *   4.00000    1.000000    
     61 O2    c    0.924429 *  0.005247 *  0.002136 *   0.87073    1.000000    
     62 O2    c    0.001063 *  0.927523 *  0.331033 *   0.87073    1.000000    
     63 O2    c    0.072342 *  0.070017 *  0.665941 *   0.87073    1.000000    
     64 O2    c    0.070649 *  0.999085 *  0.498881 *   0.87073    1.000000    
     65 O2    c    0.007560 *  0.071036 *  0.831815 *   0.87073    1.000000    
     66 O2    c    0.930250 *  0.936075 *  0.166056 *   0.87073    1.000000    
     67 O2    c    0.338436 *  0.574742 *  0.329532 *   0.87073    1.000000    
     68 O2    c    0.425590 *  0.763186 *  0.659384 *   0.87073    1.000000    
     69 O2    c    0.233122 *  0.658445 *  0.996200 *   0.87073    1.000000    
     70 O2    c    0.673818 *  0.428523 *  0.831713 *   0.87073    1.000000    
     71 O2    c    0.580035 *  0.240953 *  0.171160 *   0.87073    1.000000    
     72 O2    c    0.757441 *  0.339799 *  0.498876 *   0.87073    1.000000    
     73 O3    c    0.569228 *  0.336284 *  0.997159 *   1.33043    1.000000    
     74 O2    c    0.764801 *  0.417773 *  0.665004 *   0.87073    1.000000    
     75 O2    c    0.660935 *  0.236367 *  0.334942 *   0.87073    1.000000    
     76 O2    c    0.417517 *  0.659351 *  0.495441 *   0.87073    1.000000    
     77 O2    c    0.234264 *  0.583158 *  0.163324 *   0.87073    1.000000    
     78 O3    c    0.344511 *  0.785215 *  0.833407 *   1.33043    1.000000    
     79 O2    c    0.124944 *  0.213555 *  0.975720 *   0.87073    1.000000    
     80 O2    c    0.786092 *  0.909147 *  0.305118 *   0.87073    1.000000    
     81 O2    c    0.086919 *  0.873901 *  0.636230 *   0.87073    1.000000    
     82 O2    c    0.873136 *  0.788291 *  0.470623 *   0.87073    1.000000    
     83 O2    c    0.226759 *  0.116786 *  0.805669 *   0.87073    1.000000    
     84 O2    c    0.907899 *  0.127334 *  0.135782 *   0.87073    1.000000    
     85 O2    c    0.213841 *  0.123169 *  0.358419 *   0.87073    1.000000    
     86 O2    c    0.917207 *  0.797211 *  0.025522 *   0.87073    1.000000    
     87 O2    c    0.876497 *  0.088081 *  0.693039 *   0.87073    1.000000    
     88 O2    c    0.786836 *  0.879946 *  0.857928 *   0.87073    1.000000    
     89 O2    c    0.084642 *  0.211307 *  0.524913 *   0.87073    1.000000    
     90 O2    c    0.124248 *  0.914269 *  0.193983 *   0.87073    1.000000    
     91 O2    c    0.926571 *  0.859004 *  0.247940 *   0.87073    1.000000    
     92 O2    c    0.137972 *  0.072113 *  0.582232 *   0.87073    1.000000    
     93 O2    c    0.939467 *  0.057587 *  0.916976 *   0.87073    1.000000    
     94 O2    c    0.071776 *  0.144055 *  0.748990 *   0.87073    1.000000    
     95 O2    c    0.852690 *  0.924236 *  0.083408 *   0.87073    1.000000    
     96 O2    c    0.068042 *  0.932627 *  0.415088 *   0.87073    1.000000    
     97 O2    c    0.901186 *  0.201935 *  0.974231 *   0.87073    1.000000    
     98 O2    c    0.796170 *  0.695540 *  0.311121 *   0.87073    1.000000    
     99 O2    c    0.302342 *  0.095180 *  0.644823 *   0.87073    1.000000    
    100 O2    c    0.095578 *  0.795186 *  0.477070 *   0.87073    1.000000    
    101 O3    c    0.197407 *  0.316061 *  0.812320 *   1.33043    1.000000    
    102 O2    c    0.695594 *  0.903534 *  0.146453 *   0.87073    1.000000    
    103 O2    c    0.202642 *  0.898431 *  0.353473 *   0.87073    1.000000    
    104 O2    c    0.695117 *  0.793838 *  0.018031 *   0.87073    1.000000    
    105 O2    c    0.101345 *  0.302020 *  0.683666 *   0.87073    1.000000    
    106 O2    c    0.820755 *  0.115357 *  0.854571 *   0.87073    1.000000    
    107 O2    c    0.300552 *  0.206319 *  0.518708 *   0.87073    1.000000    
    108 O2    c    0.899545 *  0.701605 *  0.182593 *   0.87073    1.000000    
    109 O2    c    0.318451 *  0.643558 *  0.247399 *   0.87073    1.000000    
    110 O2    c    0.353592 *  0.676150 *  0.578484 *   0.87073    1.000000    
    111 O2    c    0.321139 *  0.678119 *  0.913407 *   0.87073    1.000000    
    112 O2    c    0.681320 *  0.349868 *  0.748721 *   0.87073    1.000000    
    113 O3    c    0.615727 *  0.304105 *  0.085696 *   1.33043    1.000000    
    114 O2    c    0.677108 *  0.324217 *  0.416194 *   0.87073    1.000000    
    115 O2    c    0.371328 *  0.329178 *  0.965556 *   0.87073    1.000000    
    116 O2    c    0.670415 *  0.041025 *  0.304969 *   0.87073    1.000000    
    117 O2    c    0.958117 *  0.625291 *  0.635175 *   0.87073    1.000000    
    118 O2    c    0.624672 *  0.670920 *  0.467736 *   0.87073    1.000000    
    119 O3    c    0.318112 *  0.963786 *  0.804153 *   1.33043    1.000000    
    120 O2    c    0.036292 *  0.376560 *  0.131716 *   0.87073    1.000000    
    121 O2    c    0.329611 *  0.371389 *  0.359528 *   0.87073    1.000000    
    122 O2    c    0.033261 *  0.665234 *  0.025001 *   0.87073    1.000000    
    123 O2    c    0.625934 *  0.951413 *  0.696523 *   0.87073    1.000000    
    124 O2    c    0.668749 *  0.630147 *  0.859986 *   0.87073    1.000000    
    125 O2    c    0.952575 *  0.327754 *  0.526784 *   0.87073    1.000000    
    126 O2    c    0.373254 *  0.043713 *  0.197090 *   0.87073    1.000000    
    127 O3    c    0.756663 *  0.285754 *  0.002757 *   1.33043    1.000000    
    128 O2    c    0.696955 *  0.465738 *  0.342539 *   0.87073    1.000000    
    129 O2    c    0.534996 *  0.224041 *  0.677932 *   0.87073    1.000000    
    130 O2    c    0.226472 *  0.695578 *  0.506894 *   0.87073    1.000000    
    131 O3    c    0.297951 *  0.551010 *  0.837459 *   1.33043    1.000000    
    132 O2    c    0.463702 *  0.773068 *  0.175827 *   0.87073    1.000000    
    133 O2    c    0.300160 *  0.765883 *  0.321059 *   0.87073    1.000000    
    134 O2    c    0.463820 *  0.695197 *  0.984650 *   0.87073    1.000000    
    135 O2    c    0.230804 *  0.533830 *  0.651959 *   0.87073    1.000000    
    136 O2    c    0.708955 *  0.234739 *  0.820798 *   0.87073    1.000000    
    137 O2    c    0.530566 *  0.305265 *  0.487898 *   0.87073    1.000000    
    138 O2    c    0.763067 *  0.467568 *  0.151486 *   0.87073    1.000000    
    139 O3    c    0.771635 *  0.546999 *  0.020617 *   1.33043    1.000000    
    140 O2    c    0.465027 *  0.248444 *  0.359847 *   0.87073    1.000000    
    141 O2    c    0.743048 *  0.205719 *  0.697068 *   0.87073    1.000000    
    142 O2    c    0.211298 *  0.463641 *  0.523753 *   0.87073    1.000000    
    143 O2    c    0.530929 *  0.748229 *  0.857747 *   0.87073    1.000000    
    144 O2    c    0.244574 *  0.784274 *  0.194011 *   0.87073    1.000000    
    145 O2    c    0.532403 *  0.782130 *  0.303775 *   0.87073    1.000000    
    146 O2    c    0.250358 *  0.466692 *  0.967526 *   0.87073    1.000000    
    147 O2    c    0.217398 *  0.751076 *  0.634540 *   0.87073    1.000000    
    148 O2    c    0.477953 *  0.214191 *  0.803957 *   0.87073    1.000000    
    149 O2    c    0.748365 *  0.536632 *  0.470957 *   0.87073    1.000000    
    150 O2    c    0.780585 *  0.254012 *  0.134286 *   0.87073    1.000000    
    151 O3    c    0.211545 *  0.309018 *  0.897365 *   1.33043    1.000000    
    152 O2    c    0.675602 *  0.908902 *  0.231065 *   0.87073    1.000000    
    153 O2    c    0.089854 *  0.767288 *  0.561799 *   0.87073    1.000000    
    154 O2    c    0.768435 *  0.676509 *  0.396060 *   0.87073    1.000000    
    155 O2    c    0.328374 *  0.094938 *  0.730637 *   0.87073    1.000000    
    156 O2    c    0.898620 *  0.232959 *  0.060551 *   0.87073    1.000000    
    157 O2    c    0.321471 *  0.231667 *  0.433137 *   0.87073    1.000000    
    158 O2    c    0.898749 *  0.671294 *  0.096798 *   0.87073    1.000000    
    159 O2    c    0.767649 *  0.086083 *  0.769249 *   0.87073    1.000000    
    160 O2    c    0.668032 *  0.764803 *  0.931517 *   0.87073    1.000000    
    161 O2    c    0.091850 *  0.323266 *  0.598742 *   0.87073    1.000000    
    162 O2    c    0.230506 *  0.907331 *  0.268801 *   0.87073    1.000000    
    163 O2    c    0.577671 *  0.556852 *  0.984521 *   0.87073    1.000000    
    164 O2    c    0.441628 *  0.023951 *  0.325070 *   0.87073    1.000000    
    165 O2    c    0.971740 *  0.409688 *  0.654526 *   0.87073    1.000000    
    166 O2    c    0.409952 *  0.442364 *  0.487558 *   0.87073    1.000000    
    167 O3    c    0.577963 *  0.978193 *  0.830484 *   1.33043    1.000000    
    168 O2    c    0.018063 *  0.583553 *  0.150355 *   0.87073    1.000000    
    169 O2    c    0.558556 *  0.586114 *  0.339772 *   0.87073    1.000000    
    170 O2    c    0.015470 *  0.439308 *  0.006143 *   0.87073    1.000000    
    171 O2    c    0.413425 *  0.969316 *  0.677362 *   0.87073    1.000000    
    172 O3    c    0.451232 *  0.411378 *  0.835234 *   1.33043    1.000000    
    173 O2    c    0.967484 *  0.556752 *  0.506748 *   0.87073    1.000000    
    174 O2    c    0.589019 *  0.032430 *  0.176962 *   0.87073    1.000000    
    175 O2    c    0.583388 *  0.164208 *  0.252293 *   0.87073    1.000000    
    176 O2    c    0.832751 *  0.415404 *  0.581401 *   0.87073    1.000000    
    177 O2    c    0.581498 *  0.420475 *  0.912901 *   0.87073    1.000000    
    178 O3    c    0.410944 *  0.816420 *  0.744990 *   1.33043    1.000000    
    179 O2    c    0.153097 *  0.581196 *  0.078942 *   0.87073    1.000000    
    180 O2    c    0.415965 *  0.582055 *  0.412862 *   0.87073    1.000000    
    181 F     c    0.450196 *  0.902702 *  0.249089 *   0.56000    1.000000    
    182 F     c    0.092996 *  0.546381 *  0.579921 *   0.56000    1.000000    
    183 F     c    0.423623 *  0.521771 *  0.903033 *   0.56000    1.000000    
    184 F     c    0.528681 *  0.056394 *  0.757999 *   0.56000    1.000000    
    185 F     c    0.854247 *  0.436434 *  0.070448 *   0.56000    1.000000    
    186 F     c    0.547408 *  0.452698 *  0.414010 *   0.56000    1.000000    
    187 O2    s    0.920651 *  0.003523 *  0.001599 *  -2.87073    1.000000    
    188 O2    s    0.000595 *  0.923098 *  0.331178 *  -2.87073    1.000000    
    189 O2    s    0.076640 *  0.074186 *  0.665695 *  -2.87073    1.000000    
    190 O2    s    0.074652 *  0.999359 *  0.498779 *  -2.87073    1.000000    
    191 O2    s    0.006553 *  0.076935 *  0.832425 *  -2.87073    1.000000    
    192 O2    s    0.925423 *  0.930808 *  0.165900 *  -2.87073    1.000000    
    193 O2    s    0.350234 *  0.582832 *  0.329629 *  -2.87073    1.000000    
    194 O2    s    0.416342 *  0.765589 *  0.659979 *  -2.87073    1.000000    
    195 O2    s    0.228180 *  0.646694 *  0.996133 *  -2.87073    1.000000    
    196 O2    s    0.661162 *  0.419704 *  0.831295 *  -2.87073    1.000000    
    197 O2    s    0.585996 *  0.235335 *  0.170363 *  -2.87073    1.000000    
    198 O2    s    0.762079 *  0.351937 *  0.498753 *  -2.87073    1.000000    
    199 O3    s    0.574766 *  0.347339 *  0.996487 *  -3.33043    1.000000    
    200 O2    s    0.768650 *  0.410240 *  0.665163 *  -2.87073    1.000000    
    201 O2    s    0.648863 *  0.232139 *  0.334738 *  -2.87073    1.000000    
    202 O2    s    0.410095 *  0.647379 *  0.495582 *  -2.87073    1.000000    
    203 O2    s    0.229698 *  0.589984 *  0.163317 *  -2.87073    1.000000    
    204 O3    s    0.354012 *  0.783541 *  0.833811 *  -3.33043    1.000000    
    205 O2    s    0.120428 *  0.215608 *  0.972205 *  -2.87073    1.000000    
    206 O2    s    0.782560 *  0.902590 *  0.302446 *  -2.87073    1.000000    
    207 O2    s    0.093804 *  0.877278 *  0.633800 *  -2.87073    1.000000    
    208 O2    s    0.876542 *  0.784625 *  0.467996 *  -2.87073    1.000000    
    209 O2    s    0.229116 *  0.120181 *  0.802919 *  -2.87073    1.000000    
    210 O2    s    0.900946 *  0.123711 *  0.133337 *  -2.87073    1.000000    
    211 O2    s    0.217105 *  0.119955 *  0.361179 *  -2.87073    1.000000    
    212 O2    s    0.907871 *  0.792260 *  0.027804 *  -2.87073    1.000000    
    213 O2    s    0.879520 *  0.094158 *  0.695869 *  -2.87073    1.000000    
    214 O2    s    0.784045 *  0.882461 *  0.860649 *  -2.87073    1.000000    
    215 O2    s    0.091595 *  0.214956 *  0.527586 *  -2.87073    1.000000    
    216 O2    s    0.120617 *  0.907310 *  0.196432 *  -2.87073    1.000000    
    217 O2    s    0.925835 *  0.856810 *  0.247966 *  -2.87073    1.000000    
    218 O2    s    0.140563 *  0.072925 *  0.582101 *  -2.87073    1.000000    
    219 O2    s    0.937666 *  0.061815 *  0.916839 *  -2.87073    1.000000    
    220 O2    s    0.072855 *  0.147681 *  0.748333 *  -2.87073    1.000000    
    221 O2    s    0.851250 *  0.924832 *  0.083387 *  -2.87073    1.000000    
    222 O2    s    0.069612 *  0.930730 *  0.415041 *  -2.87073    1.000000    
    223 O2    s    0.907721 *  0.202799 *  0.977332 *  -2.87073    1.000000    
    224 O2    s    0.794781 *  0.701956 *  0.313733 *  -2.87073    1.000000    
    225 O2    s    0.295897 *  0.087908 *  0.647534 *  -2.87073    1.000000    
    226 O2    s    0.088168 *  0.794052 *  0.479746 *  -2.87073    1.000000    
    227 O3    s    0.196790 *  0.305728 *  0.813618 *  -3.33043    1.000000    
    228 O2    s    0.701832 *  0.911127 *  0.148989 *  -2.87073    1.000000    
    229 O2    s    0.204130 *  0.906019 *  0.350727 *  -2.87073    1.000000    
    230 O2    s    0.701062 *  0.792918 *  0.015379 *  -2.87073    1.000000    
    231 O2    s    0.093703 *  0.296258 *  0.681194 *  -2.87073    1.000000    
    232 O2    s    0.816923 *  0.105288 *  0.852011 *  -2.87073    1.000000    
    233 O2    s    0.294255 *  0.207345 *  0.516057 *  -2.87073    1.000000    
    234 O2    s    0.906520 *  0.707403 *  0.180169 *  -2.87073    1.000000    
    235 O2    s    0.324346 *  0.655354 *  0.247428 *  -2.87073    1.000000    
    236 O2    s    0.341681 *  0.670214 *  0.578409 *  -2.87073    1.000000    
    237 O2    s    0.325650 *  0.673163 *  0.913938 *  -2.87073    1.000000    
    238 O2    s    0.676403 *  0.339548 *  0.748596 *  -2.87073    1.000000    
    239 O3    s    0.628667 *  0.310321 *  0.086916 *  -3.33043    1.000000    
    240 O2    s    0.671072 *  0.329953 *  0.416088 *  -2.87073    1.000000    
    241 O2    s    0.374130 *  0.338489 *  0.963721 *  -2.87073    1.000000    
    242 O2    s    0.660365 *  0.034377 *  0.302696 *  -2.87073    1.000000    
    243 O2    s    0.964600 *  0.621942 *  0.632884 *  -2.87073    1.000000    
    244 O2    s    0.621295 *  0.660716 *  0.465533 *  -2.87073    1.000000    
    245 O3    s    0.328261 *  0.974593 *  0.801576 *  -3.33043    1.000000    
    246 O2    s    0.030149 *  0.379765 *  0.129807 *  -2.87073    1.000000    
    247 O2    s    0.339637 *  0.374893 *  0.361833 *  -2.87073    1.000000    
    248 O2    s    0.027525 *  0.655897 *  0.026873 *  -2.87073    1.000000    
    249 O2    s    0.623691 *  0.958147 *  0.698562 *  -2.87073    1.000000    
    250 O2    s    0.659503 *  0.627203 *  0.861842 *  -2.87073    1.000000    
    251 O2    s    0.959663 *  0.337962 *  0.529042 *  -2.87073    1.000000    
    252 O2    s    0.376152 *  0.036730 *  0.199377 *  -2.87073    1.000000    
    253 O3    s    0.767085 *  0.292654 *  0.005872 *  -3.33043    1.000000    
    254 O2    s    0.689297 *  0.465203 *  0.345678 *  -2.87073    1.000000    
    255 O2    s    0.535936 *  0.218010 *  0.680730 *  -2.87073    1.000000    
    256 O2    s    0.219560 *  0.687935 *  0.510020 *  -2.87073    1.000000    
    257 O3    s    0.306696 *  0.555171 *  0.841064 *  -3.33043    1.000000    
    258 O2    s    0.463033 *  0.779737 *  0.179066 *  -2.87073    1.000000    
    259 O2    s    0.307904 *  0.773126 *  0.318059 *  -2.87073    1.000000    
    260 O2    s    0.463228 *  0.688048 *  0.981796 *  -2.87073    1.000000    
    261 O2    s    0.223566 *  0.533911 *  0.648865 *  -2.87073    1.000000    
    262 O2    s    0.701173 *  0.228321 *  0.818360 *  -2.87073    1.000000    
    263 O2    s    0.531180 *  0.312789 *  0.484777 *  -2.87073    1.000000    
    264 O2    s    0.769832 *  0.467375 *  0.148806 *  -2.87073    1.000000    
    265 O3    s    0.781300 *  0.548618 *  0.023692 *  -3.33043    1.000000    
    266 O2    s    0.467867 *  0.256580 *  0.362466 *  -2.87073    1.000000    
    267 O2    s    0.737010 *  0.202469 *  0.699100 *  -2.87073    1.000000    
    268 O2    s    0.206425 *  0.466444 *  0.526428 *  -2.87073    1.000000    
    269 O2    s    0.530406 *  0.743210 *  0.860131 *  -2.87073    1.000000    
    270 O2    s    0.252921 *  0.789511 *  0.196550 *  -2.87073    1.000000    
    271 O2    s    0.529863 *  0.787441 *  0.301231 *  -2.87073    1.000000    
    272 O2    s    0.257098 *  0.470013 *  0.965288 *  -2.87073    1.000000    
    273 O2    s    0.211622 *  0.743077 *  0.631996 *  -2.87073    1.000000    
    274 O2    s    0.480785 *  0.211701 *  0.801765 *  -2.87073    1.000000    
    275 O2    s    0.740431 *  0.533718 *  0.468272 *  -2.87073    1.000000    
    276 O2    s    0.784826 *  0.260038 *  0.132000 *  -2.87073    1.000000    
    277 O3    s    0.221733 *  0.318929 *  0.900074 *  -3.33043    1.000000    
    278 O2    s    0.665933 *  0.908603 *  0.231983 *  -2.87073    1.000000    
    279 O2    s    0.090184 *  0.757991 *  0.562681 *  -2.87073    1.000000    
    280 O2    s    0.758760 *  0.666764 *  0.396906 *  -2.87073    1.000000    
    281 O2    s    0.336828 *  0.094842 *  0.731060 *  -2.87073    1.000000    
    282 O2    s    0.898291 *  0.240790 *  0.061690 *  -2.87073    1.000000    
    283 O2    s    0.331217 *  0.241131 *  0.432303 *  -2.87073    1.000000    
    284 O2    s    0.898481 *  0.662565 *  0.096523 *  -2.87073    1.000000    
    285 O2    s    0.760253 *  0.087065 *  0.768110 *  -2.87073    1.000000    
    286 O2    s    0.659689 *  0.756513 *  0.930896 *  -2.87073    1.000000    
    287 O2    s    0.091884 *  0.332666 *  0.597849 *  -2.87073    1.000000    
    288 O2    s    0.239736 *  0.907018 *  0.267851 *  -2.87073    1.000000    
    289 O2    s    0.574871 *  0.558036 *  0.981752 *  -2.87073    1.000000    
    290 O2    s    0.441251 *  0.019415 *  0.321650 *  -2.87073    1.000000    
    291 O2    s    0.976608 *  0.414696 *  0.651212 *  -2.87073    1.000000    
    292 O2    s    0.414628 *  0.442003 *  0.484272 *  -2.87073    1.000000    
    293 O3    s    0.583169 *  0.987571 *  0.826842 *  -3.33043    1.000000    
    294 O2    s    0.014567 *  0.580072 *  0.147512 *  -2.87073    1.000000    
    295 O2    s    0.558643 *  0.581360 *  0.343177 *  -2.87073    1.000000    
    296 O2    s    0.012252 *  0.439971 *  0.008991 *  -2.87073    1.000000    
    297 O2    s    0.416970 *  0.973977 *  0.680065 *  -2.87073    1.000000    
    298 O3    s    0.455645 *  0.418378 *  0.839244 *  -3.33043    1.000000    
    299 O2    s    0.972787 *  0.557283 *  0.510163 *  -2.87073    1.000000    
    300 O2    s    0.583964 *  0.026924 *  0.180316 *  -2.87073    1.000000    
    301 O2    s    0.577717 *  0.153000 *  0.252217 *  -2.87073    1.000000    
    302 O2    s    0.844185 *  0.421110 *  0.581442 *  -2.87073    1.000000    
    303 O2    s    0.576583 *  0.424921 *  0.913006 *  -2.87073    1.000000    
    304 O3    s    0.418359 *  0.829043 *  0.743174 *  -3.33043    1.000000    
    305 O2    s    0.143557 *  0.576112 *  0.079147 *  -2.87073    1.000000    
    306 O2    s    0.421401 *  0.576512 *  0.412914 *  -2.87073    1.000000    
    307 F     s    0.449949 *  0.902249 *  0.248990 *  -1.56000    1.000000    
    308 F     s    0.093129 *  0.546487 *  0.579887 *  -1.56000    1.000000    
    309 F     s    0.416427 *  0.514836 *  0.899992 *  -1.56000    1.000000    
    310 F     s    0.522121 *  0.046085 *  0.760606 *  -1.56000    1.000000    
    311 F     s    0.844918 *  0.432853 *  0.068404 *  -1.56000    1.000000    
    312 F     s    0.547653 *  0.452579 *  0.413940 *  -1.56000    1.000000    
--------------------------------------------------------------------------------



********************************************************************************
*  General input information                                                   *
********************************************************************************

  Species output for all configurations : 

--------------------------------------------------------------------------------
  Species    Type    Atomic    Atomic    Charge       Radii (Angs)     Library
                     Number     Mass       (e)     Cova   Ionic  VDW   Symbol
--------------------------------------------------------------------------------
    Si       Core       14      28.09   4.000000   1.200  0.000  2.100          
    O1       Core        8      16.00   1.733957   0.730  0.000  1.360          
    O1       Shell       8       0.00  -3.733957   0.730  0.000  1.360          
    O2       Core        8      16.00   0.870733   0.730  0.000  1.360          
    O2       Shell       8       0.00  -2.870733   0.730  0.000  1.360          
    O3       Core        8      16.00   1.330431   0.730  0.000  1.360          
    O3       Shell       8       0.00  -3.330431   0.730  0.000  1.360          
    F        Core        9      19.00   0.560000   0.710  0.000  1.300          
    F        Shell       9       0.00  -1.560000   0.710  0.000  1.300          
    Ge       Core       32      72.61   4.000000   1.170  0.000  1.750          
--------------------------------------------------------------------------------


  Lattice summation method               =    Ewald          (3-D)
                                         =    Parry          (2-D)
                                         =    Saunders et al (1-D)
  Accuracy factor for lattice sums       =   12.000


  Time limit = Infinity

  Maximum range for interatomic potentials =        16.000000 Angstroms

  Taper potentials to zero over   1.0000 Angstroms using polynomial

  General interatomic potentials :

--------------------------------------------------------------------------------
Atom  Types   Potential         A         B         C         D     Cutoffs(Ang)
  1     2                                                            Min    Max 
--------------------------------------------------------------------------------
Si   c O1   s Buckingham    0.132E+04 0.318      10.1      0.00     0.000 16.000
Si   c O2   s Buckingham    0.132E+04 0.318      10.1      0.00     0.000 16.000
Si   c O3   s Buckingham    0.132E+04 0.318      10.1      0.00     0.000 16.000
Ge   c O1   s Buckingham    0.150E+04 0.326      16.8      0.00     0.000 16.000
Ge   c O2   s Buckingham    0.150E+04 0.326      16.8      0.00     0.000 16.000
Ge   c O3   s Buckingham    0.150E+04 0.326      16.8      0.00     0.000 16.000
O1   s O1   s Buckingham    0.228E+05 0.149      10.9      0.00     0.000 16.000
O1   s O2   s Buckingham    0.228E+05 0.149      10.9      0.00     0.000 16.000
O1   s O3   s Buckingham    0.228E+05 0.149      10.9      0.00     0.000 16.000
O2   s O2   s Buckingham    0.228E+05 0.149      10.9      0.00     0.000 16.000
O2   s O3   s Buckingham    0.228E+05 0.149      10.9      0.00     0.000 16.000
O3   s O3   s Buckingham    0.228E+05 0.149      10.9      0.00     0.000 16.000
Si   c F    s Buckingham     977.     0.282      0.00      0.00     0.000 16.000
Ge   c F    s Buckingham     681.     0.320      0.00      0.00     0.000 16.000
F    s F    s Buckingham     540.     0.262      0.00      0.00     0.000 16.000
O1   s F    s Buckingham    0.168E+04 0.268      0.00      0.00     0.000 16.000
O2   s F    s Buckingham    0.168E+04 0.268      0.00      0.00     0.000 16.000
O3   s F    s Buckingham    0.168E+04 0.268      0.00      0.00     0.000 16.000
O2   c O2   s Spring (c-s)   76.0      0.00      0.00      0.00     0.000  0.800
O3   c O3   s Spring (c-s)   128.      0.00      0.00      0.00     0.000  0.800
O1   c O1   s Spring (c-s)   180.      0.00      0.00      0.00     0.000  0.800
F    c F    s Spring (c-s)   33.5      0.00      0.00      0.00     0.000  0.800
--------------------------------------------------------------------------------

  General Three-body potentials :

  Harmonic form:

--------------------------------------------------------------------------------
Atom    Atom    Atom           Force Constants            Theta     Cutoffs  
  1       2       3     (eVrad**-2/eVrad**-3/eVrad**-4)   (deg)  1-2  1-3  2-3
--------------------------------------------------------------------------------
Si    c O1    s O1    s  1.261        0.0000    0.0000   109.470 0.00 0.00 0.00
                                                                 1.90 1.90 3.50
Si    c O1    s O2    s  1.261        0.0000    0.0000   109.470 0.00 0.00 0.00
                                                                 1.90 1.90 3.50
Si    c O2    s O2    s  1.261        0.0000    0.0000   109.470 0.00 0.00 0.00
                                                                 1.90 1.90 3.50
--------------------------------------------------------------------------------

********************************************************************************
*  Output for configuration   1                                                *
********************************************************************************


  Components of energy : 

--------------------------------------------------------------------------------
  Interatomic potentials     =        2066.87005045 eV
  Three-body potentials      =           0.45796112 eV
  Monopole - monopole (real) =       -6615.97889468 eV
  Monopole - monopole (recip)=       -3172.28909913 eV
  Monopole - monopole (total)=       -9788.26799381 eV
  Neutralising energy        =          -6.46195523 eV
--------------------------------------------------------------------------------
  Total lattice energy       =       -7727.40193747 eV
--------------------------------------------------------------------------------
  Total lattice energy       =         -745576.1628 kJ/(mole unit cells)
--------------------------------------------------------------------------------


  Number of variables =      939

  Maximum number of calculations  =          5000
  Maximum Hessian update interval =            10
  Maximum step size               =   0.100000000
  Maximum parameter tolerance     =   0.000010000
  Maximum function  tolerance     =   0.000010000
  Maximum gradient  tolerance     =   0.001000000
  Maximum gradient  component     =   0.010000000

  Symmetry not applied to optimisation

  Cell parameters to be optimised using strains

  Newton-Raphson optimiser to be used

  BFGS hessian update to be used

  Dumpfile to be written after every cycle

  Start of bulk optimisation :

  Cycle:      0 Energy:     -7727.401937  Gnorm:      0.011738  CPU:    2.011
  ** Hessian calculated **
  Cycle:      1 Energy:     -7727.433481  Gnorm:      0.010359  CPU:    6.587
  Cycle:      2 Energy:     -7727.470680  Gnorm:      0.008412  CPU:   10.788
  Cycle:      3 Energy:     -7727.510142  Gnorm:      0.005641  CPU:   14.988
  Cycle:      4 Energy:     -7727.530379  Gnorm:      0.003301  CPU:   19.189
  Cycle:      5 Energy:     -7727.535200  Gnorm:      0.001890  CPU:   23.388
  Cycle:      6 Energy:     -7727.536410  Gnorm:      0.001034  CPU:   27.588
  Cycle:      7 Energy:     -7727.536718  Gnorm:      0.000547  CPU:   31.787
  Cycle:      8 Energy:     -7727.536796  Gnorm:      0.000284  CPU:   35.987
  Cycle:      9 Energy:     -7727.536809  Gnorm:      0.000201  CPU:   38.822
  Cycle:     10 Energy:     -7727.536816  Gnorm:      0.000141  CPU:   41.657
  ** Hessian calculated **
  Cycle:     11 Energy:     -7727.536816  Gnorm:      0.000072  CPU:   46.181
  Cycle:     12 Energy:     -7727.536816  Gnorm:      0.000052  CPU:   49.017
  Cycle:     13 Energy:     -7727.536816  Gnorm:      0.000038  CPU:   51.852


  **** Optimisation achieved ****


  Final energy =   -7727.53681598 eV
  Final Gnorm  =       0.00003033

  Components of energy : 

--------------------------------------------------------------------------------
  Interatomic potentials     =        2067.71121584 eV
  Three-body potentials      =           0.46406777 eV
  Monopole - monopole (real) =       -6616.71702482 eV
  Monopole - monopole (recip)=       -3172.53261877 eV
  Monopole - monopole (total)=       -9789.24964359 eV
  Neutralising energy        =          -6.46245600 eV
--------------------------------------------------------------------------------
  Total lattice energy       =       -7727.53681598 eV
--------------------------------------------------------------------------------
  Total lattice energy       =         -745589.1765 kJ/(mole unit cells)
--------------------------------------------------------------------------------

  Final fractional coordinates of atoms :

--------------------------------------------------------------------------------
   No.  Atomic        x           y          z          Radius
        Label       (Frac)      (Frac)     (Frac)       (Angs) 
--------------------------------------------------------------------------------
     1  Ge    c     0.699600    0.375700    0.033890    0.000000
     2  Si    c     0.596545    0.307134    0.365807    0.000000
     3  Si    c     0.666882    0.286792    0.698512    0.000000
     4  Si    c     0.274817    0.605925    0.529550    0.000000
     5  Si    c     0.360633    0.685066    0.861409    0.000000
     6  Si    c     0.296978    0.689679    0.198892    0.000000
     7  Si    c     0.351571    0.684251    0.299457    0.000000
     8  Si    c     0.306511    0.612993    0.964170    0.000000
     9  Si    c     0.281605    0.664579    0.630269    0.000000
    10  Si    c     0.625245    0.299490    0.801031    0.000000
    11  Si    c     0.653162    0.365018    0.466589    0.000000
    12  Si    c     0.665597    0.304326    0.132287    0.000000
    13  Si    c     0.522916    0.409684    0.964429    0.000000
    14  Si    c     0.558778    0.094365    0.302504    0.000000
    15  Si    c     0.873635    0.457250    0.632186    0.000000
    16  Si    c     0.445595    0.566927    0.465152    0.000000
    17  Ge    c     0.425641    0.911086    0.797357    0.000000
    18  Si    c     0.087091    0.518114    0.131822    0.000000
    19  Si    c     0.390921    0.511178    0.363293    0.000000
    20  Si    c     0.092821    0.573117    0.028441    0.000000
    21  Si    c     0.452350    0.867246    0.698784    0.000000
    22  Si    c     0.577903    0.469586    0.860879    0.000000
    23  Si    c     0.866209    0.401938    0.530743    0.000000
    24  Si    c     0.505487    0.097464    0.200710    0.000000
    25  Ge    c     0.305114    0.415576    0.854751    0.000000
    26  Si    c     0.576287    0.890284    0.184976    0.000000
    27  Si    c     0.073839    0.682501    0.515990    0.000000
    28  Si    c     0.671655    0.583017    0.350074    0.000000
    29  Si    c     0.382154    0.082831    0.685583    0.000000
    30  Si    c     0.880050    0.284681    0.011623    0.000000
    31  Si    c     0.374312    0.287464    0.480424    0.000000
    32  Si    c     0.873703    0.589446    0.144609    0.000000
    33  Si    c     0.703378    0.097820    0.819677    0.000000
    34  Si    c     0.588886    0.693215    0.978511    0.000000
    35  Si    c     0.081532    0.385131    0.646365    0.000000
    36  Si    c     0.276079    0.884775    0.315605    0.000000
    37  Si    c     0.237642    0.328368    0.950062    0.000000
    38  Si    c     0.634696    0.893805    0.286003    0.000000
    39  Si    c     0.072358    0.736929    0.616905    0.000000
    40  Si    c     0.724789    0.644764    0.450881    0.000000
    41  Si    c     0.330865    0.093461    0.787991    0.000000
    42  Si    c     0.881748    0.236309    0.115198    0.000000
    43  Si    c     0.315292    0.234270    0.379382    0.000000
    44  Si    c     0.892977    0.657683    0.042179    0.000000
    45  Si    c     0.736276    0.073297    0.716178    0.000000
    46  Si    c     0.647093    0.749184    0.876434    0.000000
    47  Si    c     0.066893    0.324534    0.545213    0.000000
    48  Si    c     0.224930    0.895942    0.214668    0.000000
    49  Si    c     0.965281    0.113129    0.967120    0.000000
    50  Si    c     0.851506    0.830066    0.299758    0.000000
    51  Si    c     0.133552    0.016326    0.633736    0.000000
    52  Si    c     0.005977    0.863313    0.466579    0.000000
    53  Si    c     0.118496    0.165429    0.801534    0.000000
    54  Si    c     0.823925    0.959539    0.134101    0.000000
    55  Si    c     0.097299    0.953327    0.365411    0.000000
    56  Si    c     0.835715    0.874560    0.032795    0.000000
    57  Si    c     0.017404    0.140954    0.699508    0.000000
    58  Si    c     0.880872    0.026897    0.865943    0.000000
    59  Si    c     0.128805    0.107506    0.532296    0.000000
    60  Si    c     0.945182    0.836476    0.198331    0.000000
    61  O2    c     0.917036    0.001767    0.004139    0.000000
    62  O2    c     0.974685    0.909145    0.332463    0.000000
    63  O2    c     0.055596    0.057079    0.667217    0.000000
    64  O2    c     0.048508    0.982984    0.500393    0.000000
    65  O2    c     0.998984    0.065197    0.832864    0.000000
    66  O2    c     0.906386    0.922518    0.167757    0.000000
    67  O2    c     0.313324    0.559351    0.330836    0.000000
    68  O2    c     0.408715    0.752297    0.661332    0.000000
    69  O2    c     0.221409    0.648162    0.998001    0.000000
    70  O2    c     0.666086    0.426880    0.831424    0.000000
    71  O2    c     0.555675    0.224990    0.169952    0.000000
    72  O2    c     0.737389    0.325477    0.498999    0.000000
    73  O3    c     0.567659    0.335619    0.996681    0.000000
    74  O2    c     0.748940    0.406413    0.664929    0.000000
    75  O2    c     0.635824    0.220711    0.334789    0.000000
    76  O2    c     0.396988    0.644294    0.496685    0.000000
    77  O2    c     0.210971    0.567138    0.165273    0.000000
    78  O3    c     0.334161    0.782068    0.835328    0.000000
    79  O2    c     0.117991    0.206001    0.975803    0.000000
    80  O2    c     0.761320    0.893294    0.305738    0.000000
    81  O2    c     0.070578    0.861655    0.637094    0.000000
    82  O2    c     0.851106    0.772474    0.471166    0.000000
    83  O2    c     0.220757    0.116454    0.807504    0.000000
    84  O2    c     0.884228    0.113827    0.137097    0.000000
    85  O2    c     0.188727    0.106951    0.358925    0.000000
    86  O2    c     0.909904    0.795211    0.027187    0.000000
    87  O2    c     0.861992    0.077152    0.694491    0.000000
    88  O2    c     0.774740    0.875847    0.857642    0.000000
    89  O2    c     0.064596    0.196748    0.525792    0.000000
    90  O2    c     0.099753    0.898517    0.194423    0.000000
    91  O2    c     0.902486    0.842451    0.249032    0.000000
    92  O2    c     0.120423    0.059525    0.583434    0.000000
    93  O2    c     0.929572    0.047348    0.917896    0.000000
    94  O2    c     0.060748    0.135317    0.749986    0.000000
    95  O2    c     0.835213    0.914468    0.084513    0.000000
    96  O2    c     0.046178    0.918380    0.416249    0.000000
    97  O2    c     0.894334    0.195300    0.974007    0.000000
    98  O2    c     0.768868    0.678552    0.311364    0.000000
    99  O2    c     0.285641    0.083097    0.646372    0.000000
   100  O2    c     0.074074    0.780069    0.477701    0.000000
   101  O3    c     0.186125    0.311325    0.812704    0.000000
   102  O2    c     0.672465    0.889320    0.146671    0.000000
   103  O2    c     0.178634    0.883152    0.354008    0.000000
   104  O2    c     0.685798    0.789474    0.017583    0.000000
   105  O2    c     0.086178    0.290482    0.684371    0.000000
   106  O2    c     0.814770    0.113083    0.855544    0.000000
   107  O2    c     0.279814    0.190676    0.519267    0.000000
   108  O2    c     0.875010    0.686733    0.183187    0.000000
   109  O2    c     0.295172    0.628675    0.248532    0.000000
   110  O2    c     0.335239    0.663137    0.579683    0.000000
   111  O2    c     0.308008    0.669684    0.914472    0.000000
   112  O2    c     0.670082    0.342692    0.748794    0.000000
   113  O3    c     0.603172    0.297696    0.083980    0.000000
   114  O2    c     0.653795    0.308613    0.416293    0.000000
   115  O2    c     0.365332    0.324994    0.965937    0.000000
   116  O2    c     0.646013    0.025909    0.304980    0.000000
   117  O2    c     0.941485    0.613066    0.635761    0.000000
   118  O2    c     0.602456    0.654925    0.468423    0.000000
   119  O3    c     0.310561    0.961667    0.806520    0.000000
   120  O2    c     0.013618    0.362398    0.133040    0.000000
   121  O2    c     0.303779    0.354672    0.360251    0.000000
   122  O2    c     0.024921    0.660274    0.026736    0.000000
   123  O2    c     0.611373    0.942120    0.697785    0.000000
   124  O2    c     0.658693    0.627131    0.859638    0.000000
   125  O2    c     0.933019    0.313446    0.527234    0.000000
   126  O2    c     0.348651    0.027736    0.196711    0.000000
   127  O3    c     0.748133    0.279581    0.002167    0.000000
   128  O2    c     0.671019    0.449157    0.342628    0.000000
   129  O2    c     0.520605    0.212919    0.678388    0.000000
   130  O2    c     0.206779    0.681477    0.507691    0.000000
   131  O3    c     0.285703    0.545586    0.837952    0.000000
   132  O2    c     0.439693    0.757900    0.176193    0.000000
   133  O2    c     0.275712    0.750679    0.321935    0.000000
   134  O2    c     0.452549    0.687860    0.985355    0.000000
   135  O2    c     0.214323    0.522142    0.653012    0.000000
   136  O2    c     0.703738    0.233594    0.821470    0.000000
   137  O2    c     0.509394    0.289968    0.488359    0.000000
   138  O2    c     0.741142    0.453891    0.151337    0.000000
   139  O3    c     0.767245    0.544749    0.019566    0.000000
   140  O2    c     0.439913    0.232108    0.360161    0.000000
   141  O2    c     0.729416    0.195935    0.697631    0.000000
   142  O2    c     0.191556    0.449675    0.524568    0.000000
   143  O2    c     0.518457    0.742829    0.857694    0.000000
   144  O2    c     0.220170    0.768535    0.194422    0.000000
   145  O2    c     0.508172    0.767534    0.304988    0.000000
   146  O2    c     0.240146    0.458389    0.968145    0.000000
   147  O2    c     0.200482    0.738944    0.635348    0.000000
   148  O2    c     0.471005    0.210664    0.805483    0.000000
   149  O2    c     0.726373    0.521042    0.471211    0.000000
   150  O2    c     0.758032    0.240305    0.133588    0.000000
   151  O3    c     0.203878    0.302903    0.897595    0.000000
   152  O2    c     0.650606    0.892818    0.231535    0.000000
   153  O2    c     0.070837    0.753557    0.562389    0.000000
   154  O2    c     0.743765    0.659930    0.396403    0.000000
   155  O2    c     0.317965    0.089443    0.732420    0.000000
   156  O2    c     0.881928    0.221554    0.060865    0.000000
   157  O2    c     0.298488    0.216079    0.433816    0.000000
   158  O2    c     0.881252    0.660098    0.097509    0.000000
   159  O2    c     0.755747    0.079057    0.770461    0.000000
   160  O2    c     0.655885    0.760335    0.931372    0.000000
   161  O2    c     0.074091    0.310733    0.599531    0.000000
   162  O2    c     0.206518    0.892152    0.269102    0.000000
   163  O2    c     0.569801    0.553027    0.984548    0.000000
   164  O2    c     0.417503    0.008358    0.325223    0.000000
   165  O2    c     0.955703    0.398108    0.655201    0.000000
   166  O2    c     0.388699    0.426701    0.488640    0.000000
   167  O3    c     0.569950    0.977665    0.832819    0.000000
   168  O2    c     0.995661    0.568957    0.151521    0.000000
   169  O2    c     0.532167    0.568744    0.340355    0.000000
   170  O2    c     0.002509    0.431315    0.006989    0.000000
   171  O2    c     0.397161    0.958443    0.679273    0.000000
   172  O3    c     0.442170    0.408900    0.834898    0.000000
   173  O2    c     0.947951    0.542303    0.506947    0.000000
   174  O2    c     0.564467    0.016657    0.176903    0.000000
   175  O2    c     0.558057    0.148116    0.251935    0.000000
   176  O2    c     0.815114    0.402510    0.581699    0.000000
   177  O2    c     0.573539    0.418071    0.912571    0.000000
   178  O3    c     0.399860    0.810338    0.747437    0.000000
   179  O2    c     0.135236    0.568055    0.080795    0.000000
   180  O2    c     0.391525    0.564924    0.414040    0.000000
   181  F     c     0.424803    0.886027    0.249253    0.000000
   182  F     c     0.074613    0.533397    0.580407    0.000000
   183  F     c     0.413434    0.517438    0.903148    0.000000
   184  F     c     0.518713    0.050760    0.759308    0.000000
   185  F     c     0.844037    0.429642    0.071104    0.000000
   186  F     c     0.523126    0.436112    0.414437    0.000000
   187  O2    s     0.912879    0.999413    0.003300    0.000000
   188  O2    s     0.974565    0.905185    0.332473    0.000000
   189  O2    s     0.060194    0.061525    0.666933    0.000000
   190  O2    s     0.052697    0.983478    0.500165    0.000000
   191  O2    s     0.997746    0.071181    0.833419    0.000000
   192  O2    s     0.901626    0.917109    0.167437    0.000000
   193  O2    s     0.325181    0.567311    0.330902    0.000000
   194  O2    s     0.399762    0.754680    0.661831    0.000000
   195  O2    s     0.216326    0.636719    0.997842    0.000000
   196  O2    s     0.653421    0.417743    0.831079    0.000000
   197  O2    s     0.561753    0.219765    0.169285    0.000000
   198  O2    s     0.741910    0.337469    0.498890    0.000000
   199  O3    s     0.572236    0.346568    0.995845    0.000000
   200  O2    s     0.752990    0.398878    0.665157    0.000000
   201  O2    s     0.623789    0.216414    0.334613    0.000000
   202  O2    s     0.389466    0.632308    0.496797    0.000000
   203  O2    s     0.206506    0.574333    0.165130    0.000000
   204  O3    s     0.343499    0.779980    0.835646    0.000000
   205  O2    s     0.113217    0.208001    0.972378    0.000000
   206  O2    s     0.757699    0.886683    0.303083    0.000000
   207  O2    s     0.077377    0.865011    0.634675    0.000000
   208  O2    s     0.854474    0.768881    0.468594    0.000000
   209  O2    s     0.222539    0.119019    0.804653    0.000000
   210  O2    s     0.877603    0.110224    0.134538    0.000000
   211  O2    s     0.192083    0.103751    0.361707    0.000000
   212  O2    s     0.900230    0.789558    0.029321    0.000000
   213  O2    s     0.865112    0.083408    0.697245    0.000000
   214  O2    s     0.772377    0.878296    0.860453    0.000000
   215  O2    s     0.071575    0.200424    0.528436    0.000000
   216  O2    s     0.096203    0.891630    0.196908    0.000000
   217  O2    s     0.901577    0.840384    0.249011    0.000000
   218  O2    s     0.122810    0.060102    0.583265    0.000000
   219  O2    s     0.928228    0.052481    0.917736    0.000000
   220  O2    s     0.061580    0.139090    0.749340    0.000000
   221  O2    s     0.833961    0.915228    0.084443    0.000000
   222  O2    s     0.047448    0.916147    0.416142    0.000000
   223  O2    s     0.900414    0.196048    0.977277    0.000000
   224  O2    s     0.767786    0.685004    0.314070    0.000000
   225  O2    s     0.279402    0.076016    0.649021    0.000000
   226  O2    s     0.066794    0.778992    0.480420    0.000000
   227  O3    s     0.185780    0.300997    0.814029    0.000000
   228  O2    s     0.678656    0.896877    0.149279    0.000000
   229  O2    s     0.180053    0.890667    0.351277    0.000000
   230  O2    s     0.691716    0.788509    0.015120    0.000000
   231  O2    s     0.078492    0.284779    0.681939    0.000000
   232  O2    s     0.810439    0.102707    0.853017    0.000000
   233  O2    s     0.273471    0.191803    0.516646    0.000000
   234  O2    s     0.882324    0.692603    0.180816    0.000000
   235  O2    s     0.301088    0.640594    0.248605    0.000000
   236  O2    s     0.323440    0.657325    0.579665    0.000000
   237  O2    s     0.312664    0.664927    0.915012    0.000000
   238  O2    s     0.665202    0.332395    0.748780    0.000000
   239  O3    s     0.615790    0.303297    0.085903    0.000000
   240  O2    s     0.647778    0.314292    0.416226    0.000000
   241  O2    s     0.367674    0.333939    0.964065    0.000000
   242  O2    s     0.635897    0.019170    0.302742    0.000000
   243  O2    s     0.948076    0.609809    0.633416    0.000000
   244  O2    s     0.599115    0.644773    0.466231    0.000000
   245  O3    s     0.320583    0.972380    0.803858    0.000000
   246  O2    s     0.007621    0.365654    0.131053    0.000000
   247  O2    s     0.313927    0.358217    0.362561    0.000000
   248  O2    s     0.018781    0.650942    0.028470    0.000000
   249  O2    s     0.609226    0.948782    0.699842    0.000000
   250  O2    s     0.649419    0.624121    0.861518    0.000000
   251  O2    s     0.940086    0.323650    0.529467    0.000000
   252  O2    s     0.351724    0.020993    0.199023    0.000000
   253  O3    s     0.759163    0.286495    0.005354    0.000000
   254  O2    s     0.663439    0.448616    0.345815    0.000000
   255  O2    s     0.521524    0.207094    0.681263    0.000000
   256  O2    s     0.199791    0.673825    0.510837    0.000000
   257  O3    s     0.294596    0.549938    0.841554    0.000000
   258  O2    s     0.439289    0.764744    0.179484    0.000000
   259  O2    s     0.283504    0.757900    0.318939    0.000000
   260  O2    s     0.451974    0.680808    0.982475    0.000000
   261  O2    s     0.207205    0.522322    0.649936    0.000000
   262  O2    s     0.695506    0.226827    0.819120    0.000000
   263  O2    s     0.509991    0.297475    0.485234    0.000000
   264  O2    s     0.748037    0.453983    0.148754    0.000000
   265  O3    s     0.776806    0.546356    0.022915    0.000000
   266  O2    s     0.442793    0.240240    0.362785    0.000000
   267  O2    s     0.723291    0.192633    0.699697    0.000000
   268  O2    s     0.186638    0.452364    0.527274    0.000000
   269  O2    s     0.518196    0.737943    0.860127    0.000000
   270  O2    s     0.228667    0.774031    0.197017    0.000000
   271  O2    s     0.505559    0.772640    0.302383    0.000000
   272  O2    s     0.247025    0.461947    0.965934    0.000000
   273  O2    s     0.194819    0.730982    0.632845    0.000000
   274  O2    s     0.473715    0.208298    0.803224    0.000000
   275  O2    s     0.718453    0.518133    0.468555    0.000000
   276  O2    s     0.762520    0.246312    0.131435    0.000000
   277  O3    s     0.213936    0.312808    0.900320    0.000000
   278  O2    s     0.641076    0.892658    0.232415    0.000000
   279  O2    s     0.071296    0.744358    0.563299    0.000000
   280  O2    s     0.734218    0.650282    0.397296    0.000000
   281  O2    s     0.326236    0.089111    0.732768    0.000000
   282  O2    s     0.881714    0.229302    0.061954    0.000000
   283  O2    s     0.308200    0.225478    0.432928    0.000000
   284  O2    s     0.881549    0.652055    0.097180    0.000000
   285  O2    s     0.748511    0.080202    0.769334    0.000000
   286  O2    s     0.647764    0.751961    0.930749    0.000000
   287  O2    s     0.074106    0.320051    0.598609    0.000000
   288  O2    s     0.215739    0.891787    0.268175    0.000000
   289  O2    s     0.567027    0.554373    0.981803    0.000000
   290  O2    s     0.417027    0.003842    0.321804    0.000000
   291  O2    s     0.960617    0.403039    0.651848    0.000000
   292  O2    s     0.393261    0.426339    0.485295    0.000000
   293  O3    s     0.575155    0.986633    0.829084    0.000000
   294  O2    s     0.992241    0.565619    0.148675    0.000000
   295  O2    s     0.532379    0.564093    0.343795    0.000000
   296  O2    s     0.999745    0.431871    0.009796    0.000000
   297  O2    s     0.401035    0.963300    0.681895    0.000000
   298  O3    s     0.446533    0.415693    0.838903    0.000000
   299  O2    s     0.953168    0.542790    0.510392    0.000000
   300  O2    s     0.559471    0.011344    0.180235    0.000000
   301  O2    s     0.552565    0.137116    0.251822    0.000000
   302  O2    s     0.826561    0.408175    0.581662    0.000000
   303  O2    s     0.568815    0.422405    0.912617    0.000000
   304  O3    s     0.407092    0.822696    0.745409    0.000000
   305  O2    s     0.125802    0.563291    0.080853    0.000000
   306  O2    s     0.397078    0.559512    0.414043    0.000000
   307  F     s     0.424435    0.885411    0.249126    0.000000
   308  F     s     0.074685    0.533509    0.580344    0.000000
   309  F     s     0.406079    0.510424    0.900033    0.000000
   310  F     s     0.512150    0.040465    0.762016    0.000000
   311  F     s     0.833290    0.425790    0.068418    0.000000
   312  F     s     0.523319    0.435953    0.414349    0.000000
--------------------------------------------------------------------------------

  Final Cartesian lattice vectors (Angstroms) :

       11.983450   -0.002679   -0.017287
       -6.095974   10.369728    0.005577
       -0.241470   -0.183543   29.398614


  Final cell parameters and derivatives :

--------------------------------------------------------------------------------
       a           11.983463 Angstrom     dE/de1(xx)     0.000378 eV/strain
       b           12.028807 Angstrom     dE/de2(yy)     0.000330 eV/strain
       c           29.400179 Angstrom     dE/de3(zz)     0.001104 eV/strain
       alpha       90.043313 Degrees      dE/de4(yz)     0.000018 eV/strain
       beta        90.553161 Degrees      dE/de5(xz)     0.000123 eV/strain
       gamma      120.462486 Degrees      dE/de6(xy)     0.000674 eV/strain
--------------------------------------------------------------------------------

  Primitive cell volume =          3652.691869 Angs**3

  Density of cell =      1.751610 g/cm**3

  Non-primitive cell volume =          3652.691869 Angs**3


  Final internal derivatives :

--------------------------------------------------------------------------------
   No.  Atomic          a             b             c           Radius
        Label          (eV)          (eV)          (eV)        (eV/Angs)
--------------------------------------------------------------------------------
      1 Ge    c       0.000000      0.000000      0.000000      0.000000
      2 Si    c       0.000043      0.000211      0.000604      0.000000
      3 Si    c      -0.000295      0.000375     -0.000495      0.000000
      4 Si    c       0.000229      0.000300      0.000379      0.000000
      5 Si    c      -0.000012     -0.000111      0.000840      0.000000
      6 Si    c       0.000428     -0.000313      0.000714      0.000000
      7 Si    c       0.000182      0.000439     -0.000214      0.000000
      8 Si    c       0.000544      0.000052      0.000618      0.000000
      9 Si    c       0.000242      0.000301     -0.000186      0.000000
     10 Si    c      -0.001130     -0.000041      0.000015      0.000000
     11 Si    c       0.000005     -0.000228     -0.000185      0.000000
     12 Si    c       0.001654      0.001577      0.008219      0.000000
     13 Si    c       0.000127     -0.000740      0.000699      0.000000
     14 Si    c      -0.000040      0.000120     -0.000067      0.000000
     15 Si    c      -0.000290     -0.000071     -0.000313      0.000000
     16 Si    c       0.000266     -0.000063     -0.000152      0.000000
     17 Ge    c      -0.000257     -0.000466     -0.000033      0.000000
     18 Si    c       0.001697     -0.000250      0.000849      0.000000
     19 Si    c       0.000481      0.000249      0.000630      0.000000
     20 Si    c       0.001536     -0.000513     -0.000924      0.000000
     21 Si    c       0.000210     -0.000252     -0.000012      0.000000
     22 Si    c      -0.000416     -0.000222      0.000981      0.000000
     23 Si    c       0.000133      0.000164      0.000286      0.000000
     24 Si    c      -0.000217     -0.000499      0.002174      0.000000
     25 Ge    c       0.000054     -0.000552      0.000215      0.000000
     26 Si    c       0.000245     -0.000078      0.000534      0.000000
     27 Si    c       0.000285     -0.000052      0.000735      0.000000
     28 Si    c       0.000620      0.000485      0.000373      0.000000
     29 Si    c      -0.000235      0.000161     -0.000288      0.000000
     30 Si    c       0.002314      0.000750     -0.002063      0.000000
     31 Si    c      -0.000109     -0.000454      0.000018      0.000000
     32 Si    c       0.000383      0.001047      0.000456      0.000000
     33 Si    c      -0.000793     -0.000551     -0.000027      0.000000
     34 Si    c       0.000772     -0.000302     -0.000278      0.000000
     35 Si    c      -0.000151      0.000244     -0.000756      0.000000
     36 Si    c       0.000246      0.000205     -0.000503      0.000000
     37 Si    c       0.000285     -0.000556      0.000143      0.000000
     38 Si    c      -0.000219      0.000302     -0.000557      0.000000
     39 Si    c       0.000059     -0.000193     -0.000405      0.000000
     40 Si    c       0.000351      0.000108     -0.000235      0.000000
     41 Si    c      -0.000579     -0.000161     -0.000106      0.000000
     42 Si    c       0.002056     -0.000318     -0.000275      0.000000
     43 Si    c       0.000127     -0.000025      0.000528      0.000000
     44 Si    c      -0.000248      0.000534     -0.003969      0.000000
     45 Si    c       0.000005     -0.000382     -0.000118      0.000000
     46 Si    c       0.000430     -0.000227      0.000476      0.000000
     47 Si    c       0.000102      0.000555      0.000579      0.000000
     48 Si    c       0.000336      0.000137      0.000600      0.000000
     49 Si    c       0.000624     -0.000068     -0.000192      0.000000
     50 Si    c       0.000665      0.000206     -0.000361      0.000000
     51 Si    c       0.000242      0.000187      0.000126      0.000000
     52 Si    c      -0.000006      0.000115     -0.000075      0.000000
     53 Si    c      -0.000080     -0.000246      0.000329      0.000000
     54 Si    c       0.000341     -0.000309      0.000916      0.000000
     55 Si    c       0.000045      0.000187      0.000414      0.000000
     56 Si    c      -0.000203     -0.000666     -0.001056      0.000000
     57 Si    c       0.000057      0.000116     -0.000372      0.000000
     58 Si    c       0.000161      0.000012      0.000060      0.000000
     59 Si    c       0.000090      0.000028      0.000381      0.000000
     60 Si    c       0.000418     -0.000424      0.000103      0.000000
     61 O2    c       0.000508     -0.000345     -0.001233      0.000000
     62 O2    c       0.000275      0.000313     -0.000305      0.000000
     63 O2    c       0.000538      0.000503     -0.000195      0.000000
     64 O2    c      -0.000145      0.000014     -0.000162      0.000000
     65 O2    c      -0.000137     -0.000030     -0.000108      0.000000
     66 O2    c       0.000008     -0.000688      0.000229      0.000000
     67 O2    c       0.000322      0.000416     -0.000021      0.000000
     68 O2    c       0.000005     -0.000204     -0.000220      0.000000
     69 O2    c       0.001270      0.000483     -0.000114      0.000000
     70 O2    c      -0.000534      0.000140      0.000901      0.000000
     71 O2    c      -0.000861     -0.000282      0.002829      0.000000
     72 O2    c       0.000446      0.000083      0.000169      0.000000
     73 O3    c       0.000341     -0.000112      0.000675      0.000000
     74 O2    c      -0.000115      0.000133     -0.000234      0.000000
     75 O2    c      -0.000002      0.000180     -0.000284      0.000000
     76 O2    c       0.000190      0.000024      0.000272      0.000000
     77 O2    c       0.000962     -0.000572     -0.000124      0.000000
     78 O3    c      -0.000298     -0.000233     -0.000772      0.000000
     79 O2    c       0.000287     -0.000246     -0.000360      0.000000
     80 O2    c       0.000110      0.000412     -0.000351      0.000000
     81 O2    c       0.000131      0.000147     -0.000226      0.000000
     82 O2    c       0.000200     -0.000087     -0.000377      0.000000
     83 O2    c      -0.000747     -0.000877      0.000737      0.000000
     84 O2    c       0.000632     -0.000218      0.001110      0.000000
     85 O2    c       0.000256      0.000263      0.000489      0.000000
     86 O2    c       0.000800      0.000743     -0.002237      0.000000
     87 O2    c       0.000127      0.000013     -0.000152      0.000000
     88 O2    c       0.000130     -0.000769      0.000145      0.000000
     89 O2    c       0.000342      0.000346      0.000380      0.000000
     90 O2    c       0.000578     -0.000034      0.000640      0.000000
     91 O2    c       0.000637      0.000177     -0.000594      0.000000
     92 O2    c      -0.000006     -0.000114      0.000116      0.000000
     93 O2    c       0.000180     -0.000063      0.000356      0.000000
     94 O2    c      -0.000271      0.000157     -0.000687      0.000000
     95 O2    c       0.000141      0.000236      0.001100      0.000000
     96 O2    c      -0.000055     -0.000136      0.000035      0.000000
     97 O2    c       0.000605      0.000164     -0.000648      0.000000
     98 O2    c       0.000502      0.000164      0.000796      0.000000
     99 O2    c      -0.000135      0.000009     -0.000405      0.000000
    100 O2    c       0.000194      0.000122      0.000587      0.000000
    101 O3    c       0.000108      0.000356      0.000654      0.000000
    102 O2    c       0.000045     -0.000047      0.000786      0.000000
    103 O2    c       0.000111      0.000131     -0.000569      0.000000
    104 O2    c      -0.000125     -0.000810     -0.000228      0.000000
    105 O2    c      -0.000065      0.000395     -0.000626      0.000000
    106 O2    c      -0.000995      0.000377     -0.000117      0.000000
    107 O2    c      -0.000070     -0.000227     -0.000466      0.000000
    108 O2    c       0.000473     -0.000257      0.000805      0.000000
    109 O2    c       0.000159      0.000317      0.000267      0.000000
    110 O2    c      -0.000083      0.000234     -0.000162      0.000000
    111 O2    c       0.000262      0.000186      0.001181      0.000000
    112 O2    c      -0.000453      0.000432     -0.000758      0.000000
    113 O3    c      -0.001475     -0.000956      0.006546      0.000000
    114 O2    c      -0.000002     -0.000133     -0.000041      0.000000
    115 O2    c       0.000442     -0.000152     -0.000454      0.000000
    116 O2    c      -0.000243      0.000336     -0.000457      0.000000
    117 O2    c       0.000107      0.000113     -0.000610      0.000000
    118 O2    c       0.000164     -0.000250     -0.000310      0.000000
    119 O3    c      -0.000691     -0.000667     -0.000107      0.000000
    120 O2    c       0.001467     -0.000342      0.001045      0.000000
    121 O2    c       0.000501      0.000399      0.000435      0.000000
    122 O2    c       0.001845      0.001085     -0.002616      0.000000
    123 O2    c       0.000180     -0.000224      0.000085      0.000000
    124 O2    c      -0.000139     -0.000206      0.000358      0.000000
    125 O2    c       0.000402      0.000500      0.000476      0.000000
    126 O2    c       0.000485      0.000144      0.000509      0.000000
    127 O3    c       0.001804     -0.000155     -0.001726      0.000000
    128 O2    c       0.000188      0.000197      0.000555      0.000000
    129 O2    c      -0.000098      0.000317     -0.000075      0.000000
    130 O2    c       0.000168      0.000058      0.000725      0.000000
    131 O3    c      -0.000092      0.000093      0.000187      0.000000
    132 O2    c       0.000577      0.000072      0.000918      0.000000
    133 O2    c       0.000436      0.000377     -0.000576      0.000000
    134 O2    c       0.000294     -0.000036      0.000227      0.000000
    135 O2    c      -0.000296      0.000092     -0.000722      0.000000
    136 O2    c      -0.000701     -0.000387      0.000369      0.000000
    137 O2    c       0.000219     -0.000171     -0.000508      0.000000
    138 O2    c       0.000270      0.000991      0.001235      0.000000
    139 O3    c      -0.002779     -0.000185     -0.002850      0.000000
    140 O2    c       0.000301      0.000114      0.000391      0.000000
    141 O2    c      -0.000228     -0.000202      0.000014      0.000000
    142 O2    c       0.000019      0.000367      0.000808      0.000000
    143 O2    c       0.000259     -0.000115      0.000542      0.000000
    144 O2    c       0.000724      0.000161      0.000945      0.000000
    145 O2    c      -0.000029      0.000291     -0.000479      0.000000
    146 O2    c       0.000234     -0.000026      0.000116      0.000000
    147 O2    c      -0.000060      0.000108     -0.000485      0.000000
    148 O2    c      -0.001088     -0.000203     -0.000319      0.000000
    149 O2    c       0.000068     -0.000296     -0.000420      0.000000
    150 O2    c       0.000837     -0.001136      0.001502      0.000000
    151 O3    c       0.000262     -0.000433      0.000710      0.000000
    152 O2    c      -0.000013      0.000227     -0.000046      0.000000
    153 O2    c       0.000314      0.000088      0.000290      0.000000
    154 O2    c       0.000232      0.000084      0.000239      0.000000
    155 O2    c      -0.000599     -0.000207      0.000287      0.000000
    156 O2    c       0.001177     -0.000475     -0.001398      0.000000
    157 O2    c       0.000212     -0.000068     -0.000229      0.000000
    158 O2    c       0.000576      0.002065      0.008090      0.000000
    159 O2    c       0.000154     -0.000473     -0.001595      0.000000
    160 O2    c       0.000742     -0.000156     -0.000614      0.000000
    161 O2    c      -0.000090      0.000264     -0.000335      0.000000
    162 O2    c       0.000421      0.000041     -0.000404      0.000000
    163 O2    c       0.000675     -0.000535     -0.000224      0.000000
    164 O2    c       0.000073      0.000261     -0.000789      0.000000
    165 O2    c      -0.000294      0.000024     -0.000714      0.000000
    166 O2    c       0.000077     -0.000205     -0.000433      0.000000
    167 O3    c      -0.001004     -0.000929      0.000337      0.000000
    168 O2    c       0.001354      0.000007      0.000894      0.000000
    169 O2    c       0.000642      0.000245      0.000771      0.000000
    170 O2    c       0.002380     -0.000453     -0.001100      0.000000
    171 O2    c       0.000250     -0.000347     -0.000495      0.000000
    172 O3    c       0.000190     -0.000217     -0.000015      0.000000
    173 O2    c       0.000287      0.000180      0.000605      0.000000
    174 O2    c       0.000512      0.000003      0.000546      0.000000
    175 O2    c       0.000315      0.000276     -0.000170      0.000000
    176 O2    c       0.000093      0.000002     -0.000100      0.000000
    177 O2    c       0.000071     -0.000211     -0.001116      0.000000
    178 O3    c      -0.000149     -0.000545     -0.000708      0.000000
    179 O2    c       0.002081      0.000082      0.001141      0.000000
    180 O2    c       0.000364      0.000089      0.000107      0.000000
    181 F     c       0.000322      0.000222      0.000188      0.000000
    182 F     c      -0.000079      0.000126     -0.000046      0.000000
    183 F     c       0.000147     -0.000295     -0.000331      0.000000
    184 F     c      -0.000258     -0.000412      0.000009      0.000000
    185 F     c      -0.000351      0.000699     -0.003578      0.000000
    186 F     c       0.000238     -0.000079      0.000038      0.000000
    187 O2    s       0.000248     -0.000165     -0.001651      0.000000
    188 O2    s       0.000001      0.000925      0.000072      0.000000
    189 O2    s       0.000592      0.000506     -0.000738      0.000000
    190 O2    s      -0.000141     -0.000113      0.000185      0.000000
    191 O2    s      -0.000645      0.000559     -0.000045      0.000000
    192 O2    s       0.000135     -0.000667      0.001742      0.000000
    193 O2    s       0.000750      0.000377     -0.000272      0.000000
    194 O2    s       0.000037     -0.000178     -0.000453      0.000000
    195 O2    s       0.000825      0.000869     -0.000068      0.000000
    196 O2    s      -0.000645     -0.000234      0.000942      0.000000
    197 O2    s       0.001289     -0.000466      0.005742      0.000000
    198 O2    s       0.000195      0.000186      0.000249      0.000000
    199 O3    s       0.001060     -0.000675     -0.000446      0.000000
    200 O2    s       0.000068     -0.000113     -0.000613      0.000000
    201 O2    s      -0.000149      0.000257     -0.000430      0.000000
    202 O2    s       0.000330      0.000023      0.000569      0.000000
    203 O2    s       0.000643     -0.000402      0.000304      0.000000
    204 O3    s      -0.000512      0.000350     -0.001159      0.000000
    205 O2    s       0.000263     -0.000150     -0.000816      0.000000
    206 O2    s       0.000260      0.000240     -0.000832      0.000000
    207 O2    s       0.000236      0.000093     -0.000534      0.000000
    208 O2    s       0.000264     -0.000148     -0.000555      0.000000
    209 O2    s      -0.000422     -0.001188      0.001046      0.000000
    210 O2    s       0.001151      0.000152      0.002981      0.000000
    211 O2    s       0.000344      0.000182      0.001247      0.000000
    212 O2    s       0.001298     -0.000085     -0.005416      0.000000
    213 O2    s      -0.000115      0.000306     -0.000166      0.000000
    214 O2    s      -0.000296     -0.000472      0.000178      0.000000
    215 O2    s       0.000496      0.000238      0.001006      0.000000
    216 O2    s       0.000610     -0.000089      0.001326      0.000000
    217 O2    s       0.000622      0.000569      0.000261      0.000000
    218 O2    s       0.000199     -0.000079     -0.000022      0.000000
    219 O2    s      -0.000052      0.000631      0.000213      0.000000
    220 O2    s      -0.001012      0.000711     -0.000177      0.000000
    221 O2    s      -0.000156      0.000292      0.001128      0.000000
    222 O2    s      -0.000070     -0.000078      0.000288      0.000000
    223 O2    s       0.001144      0.000606     -0.002186      0.000000
    224 O2    s       0.000495      0.000439      0.001050      0.000000
    225 O2    s       0.000051     -0.000113     -0.001103      0.000000
    226 O2    s       0.000139      0.000224      0.000897      0.000000
    227 O3    s      -0.000957      0.000713      0.000935      0.000000
    228 O2    s      -0.000312      0.000068      0.002266      0.000000
    229 O2    s       0.000130      0.000285     -0.000523      0.000000
    230 O2    s      -0.000513     -0.000373     -0.001057      0.000000
    231 O2    s      -0.000403      0.000519     -0.000738      0.000000
    232 O2    s      -0.000835      0.000206     -0.000346      0.000000
    233 O2    s       0.000094     -0.000376     -0.000477      0.000000
    234 O2    s       0.001308     -0.000504      0.002478      0.000000
    235 O2    s       0.000594      0.000026     -0.000284      0.000000
    236 O2    s       0.000230      0.000323      0.000316      0.000000
    237 O2    s       0.000922     -0.000036      0.000511      0.000000
    238 O2    s      -0.000155     -0.000179     -0.000934      0.000000
    239 O3    s       0.000264      0.001036      0.001128      0.000000
    240 O2    s      -0.000079     -0.000204      0.000086      0.000000
    241 O2    s      -0.000016     -0.000396     -0.000248      0.000000
    242 O2    s      -0.000077      0.000272     -0.000398      0.000000
    243 O2    s      -0.000043     -0.000015     -0.000866      0.000000
    244 O2    s       0.000276     -0.000290     -0.000172      0.000000
    245 O3    s      -0.000389     -0.000671     -0.000418      0.000000
    246 O2    s       0.000814      0.000487      0.001755      0.000000
    247 O2    s       0.000804      0.000255      0.000798      0.000000
    248 O2    s       0.001171      0.000268     -0.004062      0.000000
    249 O2    s      -0.000069     -0.000186      0.000262      0.000000
    250 O2    s      -0.000308     -0.000084      0.000344      0.000000
    251 O2    s       0.000394      0.000446      0.000964      0.000000
    252 O2    s       0.000773      0.000133      0.001251      0.000000
    253 O3    s       0.002589      0.000077     -0.001817      0.000000
    254 O2    s       0.000337      0.000245      0.001104      0.000000
    255 O2    s       0.000251      0.000019     -0.000297      0.000000
    256 O2    s       0.000183      0.000253      0.001287      0.000000
    257 O3    s       0.000067     -0.000388      0.001705      0.000000
    258 O2    s       0.000490      0.000038      0.001719      0.000000
    259 O2    s       0.000337      0.000422     -0.000342      0.000000
    260 O2    s       0.000380     -0.000029     -0.001272      0.000000
    261 O2    s      -0.000319      0.000288     -0.000989      0.000000
    262 O2    s      -0.001173     -0.000439     -0.000004      0.000000
    263 O2    s       0.000098     -0.000439     -0.000653      0.000000
    264 O2    s       0.001741     -0.001600      0.002980      0.000000
    265 O3    s      -0.000839     -0.000352     -0.005268      0.000000
    266 O2    s       0.000129      0.000130      0.000991      0.000000
    267 O2    s      -0.000409     -0.000057      0.000076      0.000000
    268 O2    s       0.000530      0.000315      0.001468      0.000000
    269 O2    s       0.000095     -0.000330      0.002120      0.000000
    270 O2    s       0.000718      0.000028      0.001251      0.000000
    271 O2    s       0.000469     -0.000313     -0.000558      0.000000
    272 O2    s       0.000563     -0.000023     -0.000435      0.000000
    273 O2    s       0.000018      0.000140     -0.000608      0.000000
    274 O2    s      -0.000508     -0.001126     -0.000785      0.000000
    275 O2    s       0.000228     -0.000201     -0.000429      0.000000
    276 O2    s       0.000456      0.000287      0.005322      0.000000
    277 O3    s      -0.000130     -0.000138      0.001017      0.000000
    278 O2    s       0.000442     -0.000111      0.000402      0.000000
    279 O2    s       0.000231      0.000271      0.000224      0.000000
    280 O2    s       0.000432      0.000329      0.000375      0.000000
    281 O2    s      -0.000412     -0.000640      0.000376      0.000000
    282 O2    s       0.001515      0.000830     -0.000060      0.000000
    283 O2    s       0.000344     -0.000325      0.000132      0.000000
    284 O2    s       0.002243      0.001027      0.006994      0.000000
    285 O2    s      -0.000295     -0.000505     -0.001146      0.000000
    286 O2    s       0.000724      0.000400     -0.000493      0.000000
    287 O2    s      -0.000024      0.000391     -0.000091      0.000000
    288 O2    s       0.000486      0.000381      0.000079      0.000000
    289 O2    s       0.000735      0.000127     -0.000814      0.000000
    290 O2    s      -0.000136      0.000968     -0.000979      0.000000
    291 O2    s      -0.000223     -0.000102     -0.000857      0.000000
    292 O2    s       0.000126     -0.000167     -0.000474      0.000000
    293 O3    s      -0.000994     -0.001113      0.000092      0.000000
    294 O2    s       0.001177     -0.000660      0.000347      0.000000
    295 O2    s       0.000526      0.000687      0.001182      0.000000
    296 O2    s       0.002337      0.000035     -0.001103      0.000000
    297 O2    s       0.000365     -0.000305     -0.000596      0.000000
    298 O3    s      -0.000277     -0.000136      0.001632      0.000000
    299 O2    s      -0.000028      0.000421      0.001480      0.000000
    300 O2    s       0.000466      0.000215      0.001631      0.000000
    301 O2    s       0.000350      0.000441     -0.000174      0.000000
    302 O2    s      -0.000182      0.000148      0.000201      0.000000
    303 O2    s       0.000175     -0.000491     -0.000782      0.000000
    304 O3    s      -0.000057     -0.000613      0.000439      0.000000
    305 O2    s       0.001732      0.000916      0.001171      0.000000
    306 O2    s       0.000713      0.000138      0.000073      0.000000
    307 F     s       0.000378      0.000476      0.000065      0.000000
    308 F     s      -0.000213      0.000164      0.000110      0.000000
    309 F     s      -0.000078     -0.000073     -0.000295      0.000000
    310 F     s      -0.000461     -0.000360      0.000030      0.000000
    311 F     s      -0.000177     -0.000048     -0.004319      0.000000
    312 F     s       0.000291     -0.000132     -0.000008      0.000000
--------------------------------------------------------------------------------
  Maximum abs         0.002779      0.002065      0.008219      0.000000
--------------------------------------------------------------------------------


  Time to end of optimisation =      54.6896 seconds


  Peak dynamic memory used =      19.13 MB 


  Timing analysis for GULP :

--------------------------------------------------------------------------------
  Task / Subroutine                                          Time (Seconds)
--------------------------------------------------------------------------------
  Calculation of reciprocal space energy and derivatives          1.4308
  Calculation of real space energy and derivatives               47.6163
  Calculation of three-body energy and derivatives                4.8050
  Calculation of matrix inversion                                 0.7438
--------------------------------------------------------------------------------
  Total CPU time                                                 54.6896
--------------------------------------------------------------------------------


  Dump file written as out.res                                                 
  CIF file written as out.cif                                                 


  Job Finished at 23:41.56 30th October    2016                               

