********************************************************************************
*                       GENERAL UTILITY LATTICE PROGRAM                        *
*                                 Julian Gale                                  *
*                      Nanochemistry Research Institute                        *
*                           Department of Chemistry                            *
*                    Curtin University, Western Australia                      *
********************************************************************************
* Version = 4.2.0 * Last modified =  20th January 2014                         *
********************************************************************************
*  optimise     - perform optimisation run                                     *
*  conp         - constant pressure calculation                                *
*  qok          - running with non charge neutral cell is OK                   *
********************************************************************************

  Job Started  at 00:32.41  1st November   2016                               

  Number of CPUs =     1


  Total number of configurations input =   1

********************************************************************************
*  Input for Configuration =   1                                               *
********************************************************************************

  Formula = Ge3Si57O120F6                                               

  Number of irreducible atoms/shells =     312


  Total number atoms/shells =     312

  Dimensionality = 3               :  Bulk   


  Charge on solid   =  -6.000000 =>neutralising background added


  Cartesian lattice vectors (Angstroms) :

       11.949415    0.000000    0.000000
       -6.026096   10.374457    0.000000
       -0.041637   -0.021539   29.537825

  Cell parameters (Angstroms/Degrees):

  a =      11.9494    alpha =  89.9956
  b =      11.9976    beta  =  90.0808
  c =      29.5379    gamma = 120.1505

  Initial cell volume =        3661.765537 Angs**3

  Temperature of configuration =  0.000     K 

  Pressure of configuration =         0.000 GPa 

  Fractional coordinates of asymmetric unit :

--------------------------------------------------------------------------------
   No.  Atomic       x           y          z         Charge      Occupancy
        Label      (Frac)      (Frac)     (Frac)        (e)         (Frac)  
--------------------------------------------------------------------------------
      1 Ge    c    0.699600    0.375700    0.033890     4.00000    1.000000    
      2 Si    c    0.623325 *  0.325301 *  0.366516 *   4.00000    1.000000    
      3 Si    c    0.677627 *  0.298075 *  0.699400 *   4.00000    1.000000    
      4 Si    c    0.299468 *  0.620758 *  0.534077 *   4.00000    1.000000    
      5 Si    c    0.379713 *  0.676048 *  0.864199 *   4.00000    1.000000    
      6 Si    c    0.324532 *  0.700760 *  0.200737 *   4.00000    1.000000    
      7 Si    c    0.378844 *  0.702342 *  0.301364 *   4.00000    1.000000    
      8 Si    c    0.324052 *  0.620842 *  0.964292 *   4.00000    1.000000    
      9 Si    c    0.296629 *  0.677162 *  0.633897 *   4.00000    1.000000    
     10 Si    c    0.622633 *  0.297564 *  0.799825 *   4.00000    1.000000    
     11 Si    c    0.675428 *  0.375869 *  0.467231 *   4.00000    1.000000    
     12 Si    c    0.697805 *  0.320087 *  0.135011 *   4.00000    1.000000    
     13 Si    c    0.529004 *  0.415055 *  0.965555 *   4.00000    1.000000    
     14 Si    c    0.583727 *  0.113557 *  0.302305 *   4.00000    1.000000    
     15 Si    c    0.886128 *  0.470639 *  0.633914 *   4.00000    1.000000    
     16 Si    c    0.466391 *  0.580297 *  0.467678 *   4.00000    1.000000    
     17 Si    c    0.417014 *  0.887055 *  0.800318 *   4.00000    1.000000    
     18 Ge    c    0.112004 *  0.533768 *  0.132319 *   4.00000    1.000000    
     19 Si    c    0.417876 *  0.531014 *  0.366213 *   4.00000    1.000000    
     20 Si    c    0.114012 *  0.585135 *  0.028934 *   4.00000    1.000000    
     21 Si    c    0.469150 *  0.886902 *  0.699036 *   4.00000    1.000000    
     22 Si    c    0.583764 *  0.469592 *  0.864245 *   4.00000    1.000000    
     23 Si    c    0.885406 *  0.415681 *  0.532702 *   4.00000    1.000000    
     24 Si    c    0.529795 *  0.110608 *  0.201043 *   4.00000    1.000000    
     25 Si    c    0.302261 *  0.398440 *  0.849652 *   4.00000    1.000000    
     26 Si    c    0.603582 *  0.904304 *  0.186124 *   4.00000    1.000000    
     27 Si    c    0.097226 *  0.695071 *  0.517742 *   4.00000    1.000000    
     28 Si    c    0.700513 *  0.603734 *  0.352520 *   4.00000    1.000000    
     29 Si    c    0.398447 *  0.095822 *  0.685238 *   4.00000    1.000000    
     30 Si    c    0.902572 *  0.299499 *  0.016242 *   4.00000    1.000000    
     31 Si    c    0.396534 *  0.300205 *  0.480804 *   4.00000    1.000000    
     32 Si    c    0.898441 *  0.603762 *  0.147494 *   4.00000    1.000000    
     33 Si    c    0.698709 *  0.096156 *  0.814666 *   4.00000    1.000000    
     34 Si    c    0.602524 *  0.696214 *  0.979862 *   4.00000    1.000000    
     35 Si    c    0.094753 *  0.398738 *  0.649444 *   4.00000    1.000000    
     36 Si    c    0.302020 *  0.903121 *  0.315506 *   4.00000    1.000000    
     37 Si    c    0.250171 *  0.339999 *  0.949808 *   4.00000    1.000000    
     38 Si    c    0.660650 *  0.912489 *  0.286660 *   4.00000    1.000000    
     39 Si    c    0.087594 *  0.749553 *  0.617611 *   4.00000    1.000000    
     40 Si    c    0.745019 *  0.655596 *  0.453376 *   4.00000    1.000000    
     41 Si    c    0.340144 *  0.088296 *  0.785504 *   4.00000    1.000000    
     42 Si    c    0.910428 *  0.249145 *  0.117715 *   4.00000    1.000000    
     43 Si    c    0.341233 *  0.252407 *  0.380137 *   4.00000    1.000000    
     44 Si    c    0.910337 *  0.661587 *  0.045849 *   4.00000    1.000000    
     45 Si    c    0.748609 *  0.088735 *  0.714213 *   4.00000    1.000000    
     46 Si    c    0.660998 *  0.747848 *  0.879448 *   4.00000    1.000000    
     47 Si    c    0.088243 *  0.341199 *  0.549105 *   4.00000    1.000000    
     48 Si    c    0.249457 *  0.907680 *  0.214911 *   4.00000    1.000000    
     49 Si    c    0.971926 *  0.120364 *  0.966003 *   4.00000    1.000000    
     50 Si    c    0.878109 *  0.850029 *  0.299908 *   4.00000    1.000000    
     51 Si    c    0.151014 *  0.029747 *  0.634128 *   4.00000    1.000000    
     52 Ge    c    0.028626 *  0.877436 *  0.467357 *   4.00000    1.000000    
     53 Si    c    0.121922 *  0.149973 *  0.799828 *   4.00000    1.000000    
     54 Si    c    0.847772 *  0.969236 *  0.133144 *   4.00000    1.000000    
     55 Si    c    0.122840 *  0.974086 *  0.364294 *   4.00000    1.000000    
     56 Si    c    0.849718 *  0.878802 *  0.031774 *   4.00000    1.000000    
     57 Si    c    0.028586 *  0.150389 *  0.699175 *   4.00000    1.000000    
     58 Si    c    0.878743 *  0.027907 *  0.865160 *   4.00000    1.000000    
     59 Si    c    0.151124 *  0.125038 *  0.533678 *   4.00000    1.000000    
     60 Si    c    0.968549 *  0.849793 *  0.198683 *   4.00000    1.000000    
     61 O2    c    0.929886 *  0.001744 *  0.999896 *   0.87073    1.000000    
     62 O2    c    0.004058 *  0.932749 *  0.330140 *   0.87073    1.000000    
     63 O2    c    0.070505 *  0.071028 *  0.666562 *   0.87073    1.000000    
     64 O3    c    0.066780 *  0.005022 *  0.502293 *   1.33043    1.000000    
     65 O2    c    0.000827 *  0.071063 *  0.832709 *   0.87073    1.000000    
     66 O2    c    0.933275 *  0.933364 *  0.165382 *   0.87073    1.000000    
     67 O2    c    0.340985 *  0.579385 *  0.333800 *   0.87073    1.000000    
     68 O2    c    0.419465 *  0.761456 *  0.666770 *   0.87073    1.000000    
     69 O2    c    0.237780 *  0.660294 *  0.995574 *   0.87073    1.000000    
     70 O2    c    0.661073 *  0.421088 *  0.832129 *   0.87073    1.000000    
     71 O2    c    0.580136 *  0.237881 *  0.169885 *   0.87073    1.000000    
     72 O2    c    0.759636 *  0.337538 *  0.500229 *   0.87073    1.000000    
     73 O3    c    0.569864 *  0.335211 *  0.997780 *   1.33043    1.000000    
     74 O2    c    0.760832 *  0.421065 *  0.666573 *   0.87073    1.000000    
     75 O2    c    0.661495 *  0.239991 *  0.334169 *   0.87073    1.000000    
     76 O2    c    0.421169 *  0.657864 *  0.500884 *   0.87073    1.000000    
     77 O3    c    0.243965 *  0.580687 *  0.168150 *   1.33043    1.000000    
     78 O2    c    0.340311 *  0.760676 *  0.832106 *   0.87073    1.000000    
     79 O2    c    0.126515 *  0.212233 *  0.970444 *   0.87073    1.000000    
     80 O2    c    0.786961 *  0.912448 *  0.306766 *   0.87073    1.000000    
     81 O2    c    0.086396 *  0.874994 *  0.637675 *   0.87073    1.000000    
     82 O3    c    0.865217 *  0.778969 *  0.475509 *   1.33043    1.000000    
     83 O2    c    0.213331 *  0.087358 *  0.805566 *   0.87073    1.000000    
     84 O2    c    0.908165 *  0.122399 *  0.137676 *   0.87073    1.000000    
     85 O2    c    0.216470 *  0.128001 *  0.358418 *   0.87073    1.000000    
     86 O2    c    0.918185 *  0.793150 *  0.027193 *   0.87073    1.000000    
     87 O2    c    0.873968 *  0.087311 *  0.693839 *   0.87073    1.000000    
     88 O2    c    0.787699 *  0.873940 *  0.859337 *   0.87073    1.000000    
     89 O2    c    0.088798 *  0.216475 *  0.528986 *   0.87073    1.000000    
     90 O2    c    0.123076 *  0.908122 *  0.194805 *   0.87073    1.000000    
     91 O2    c    0.924975 *  0.860997 *  0.248694 *   0.87073    1.000000    
     92 O2    c    0.142384 *  0.074278 *  0.584203 *   0.87073    1.000000    
     93 O2    c    0.930461 *  0.064967 *  0.915876 *   0.87073    1.000000    
     94 O2    c    0.068278 *  0.135504 *  0.749421 *   0.87073    1.000000    
     95 O2    c    0.856224 *  0.927931 *  0.082540 *   0.87073    1.000000    
     96 O3    c    0.065464 *  0.938316 *  0.413701 *   1.33043    1.000000    
     97 O2    c    0.904690 *  0.203772 *  0.977872 *   0.87073    1.000000    
     98 O2    c    0.798273 *  0.699654 *  0.313889 *   0.87073    1.000000    
     99 O2    c    0.302249 *  0.097866 *  0.646890 *   0.87073    1.000000    
    100 O3    c    0.104684 *  0.791128 *  0.478335 *   1.33043    1.000000    
    101 O2    c    0.204545 *  0.301903 *  0.811093 *   0.87073    1.000000    
    102 O2    c    0.697307 *  0.899190 *  0.147414 *   0.87073    1.000000    
    103 O2    c    0.204035 *  0.902332 *  0.353791 *   0.87073    1.000000    
    104 O2    c    0.698514 *  0.794230 *  0.018479 *   0.87073    1.000000    
    105 O2    c    0.097154 *  0.302383 *  0.687663 *   0.87073    1.000000    
    106 O2    c    0.796839 *  0.097675 *  0.853159 *   0.87073    1.000000    
    107 O2    c    0.301962 *  0.203114 *  0.519555 *   0.87073    1.000000    
    108 O2    c    0.892575 *  0.699340 *  0.185299 *   0.87073    1.000000    
    109 O2    c    0.322074 *  0.644815 *  0.251327 *   0.87073    1.000000    
    110 O2    c    0.356677 *  0.677636 *  0.584251 *   0.87073    1.000000    
    111 O2    c    0.323721 *  0.677664 *  0.914264 *   0.87073    1.000000    
    112 O2    c    0.679606 *  0.355086 *  0.749701 *   0.87073    1.000000    
    113 O3    c    0.633209 *  0.311570 *  0.086400 *   1.33043    1.000000    
    114 O2    c    0.678367 *  0.322110 *  0.416778 *   0.87073    1.000000    
    115 O2    c    0.372057 *  0.329791 *  0.967755 *   0.87073    1.000000    
    116 O2    c    0.670652 *  0.044244 *  0.305389 *   0.87073    1.000000    
    117 O2    c    0.954959 *  0.626921 *  0.636181 *   0.87073    1.000000    
    118 O2    c    0.622292 *  0.666325 *  0.470496 *   0.87073    1.000000    
    119 O2    c    0.329859 *  0.955980 *  0.803795 *   0.87073    1.000000    
    120 O3    c    0.042482 *  0.367630 *  0.135458 *   1.33043    1.000000    
    121 O2    c    0.331150 *  0.374967 *  0.362491 *   0.87073    1.000000    
    122 O2    c    0.042742 *  0.670238 *  0.027413 *   0.87073    1.000000    
    123 O2    c    0.625850 *  0.955989 *  0.696016 *   0.87073    1.000000    
    124 O2    c    0.671179 *  0.625847 *  0.861165 *   0.87073    1.000000    
    125 O2    c    0.955356 *  0.329626 *  0.530185 *   0.87073    1.000000    
    126 O2    c    0.372932 *  0.040672 *  0.197007 *   0.87073    1.000000    
    127 O3    c    0.768364 *  0.293991 *  0.008120 *   1.33043    1.000000    
    128 O2    c    0.699032 *  0.469111 *  0.344679 *   0.87073    1.000000    
    129 O2    c    0.533205 *  0.229416 *  0.677585 *   0.87073    1.000000    
    130 O2    c    0.231712 *  0.695215 *  0.511611 *   0.87073    1.000000    
    131 O2    c    0.304051 *  0.532905 *  0.841753 *   0.87073    1.000000    
    132 O2    c    0.468995 *  0.770964 *  0.178940 *   0.87073    1.000000    
    133 O2    c    0.303454 *  0.770249 *  0.323561 *   0.87073    1.000000    
    134 O2    c    0.467315 *  0.694949 *  0.987283 *   0.87073    1.000000    
    135 O2    c    0.227933 *  0.534360 *  0.656547 *   0.87073    1.000000    
    136 O2    c    0.697787 *  0.229535 *  0.822218 *   0.87073    1.000000    
    137 O2    c    0.530728 *  0.300261 *  0.488525 *   0.87073    1.000000    
    138 O2    c    0.765854 *  0.467177 *  0.154177 *   0.87073    1.000000    
    139 O3    c    0.782466 *  0.543094 *  0.025995 *   1.33043    1.000000    
    140 O2    c    0.467171 *  0.251666 *  0.361042 *   0.87073    1.000000    
    141 O2    c    0.750752 *  0.215348 *  0.694592 *   0.87073    1.000000    
    142 O2    c    0.216469 *  0.465138 *  0.529848 *   0.87073    1.000000    
    143 O2    c    0.536219 *  0.749759 *  0.859506 *   0.87073    1.000000    
    144 O2    c    0.248196 *  0.781442 *  0.195024 *   0.87073    1.000000    
    145 O2    c    0.535285 *  0.785464 *  0.305921 *   0.87073    1.000000    
    146 O2    c    0.248316 *  0.464786 *  0.969440 *   0.87073    1.000000    
    147 O2    c    0.214969 *  0.751840 *  0.637186 *   0.87073    1.000000    
    148 O2    c    0.466088 *  0.215218 *  0.804753 *   0.87073    1.000000    
    149 O2    c    0.748006 *  0.531071 *  0.472495 *   0.87073    1.000000    
    150 O2    c    0.786926 *  0.253476 *  0.137928 *   0.87073    1.000000    
    151 O2    c    0.229601 *  0.323514 *  0.895596 *   0.87073    1.000000    
    152 O2    c    0.679115 *  0.911399 *  0.232507 *   0.87073    1.000000    
    153 O2    c    0.089122 *  0.767983 *  0.563158 *   0.87073    1.000000    
    154 O2    c    0.771346 *  0.676576 *  0.399139 *   0.87073    1.000000    
    155 O2    c    0.322582 *  0.090128 *  0.731319 *   0.87073    1.000000    
    156 O2    c    0.907872 *  0.232774 *  0.063355 *   0.87073    1.000000    
    157 O2    c    0.321900 *  0.229552 *  0.434328 *   0.87073    1.000000    
    158 O2    c    0.908113 *  0.676835 *  0.100399 *   0.87073    1.000000    
    159 O2    c    0.768968 *  0.091723 *  0.768396 *   0.87073    1.000000    
    160 O2    c    0.677884 *  0.766945 *  0.933708 *   0.87073    1.000000    
    161 O2    c    0.089052 *  0.323647 *  0.603280 *   0.87073    1.000000    
    162 O2    c    0.230593 *  0.905571 *  0.269145 *   0.87073    1.000000    
    163 O2    c    0.588093 *  0.556971 *  0.988759 *   0.87073    1.000000    
    164 O2    c    0.441547 *  0.028895 *  0.324793 *   0.87073    1.000000    
    165 O2    c    0.969639 *  0.413774 *  0.657635 *   0.87073    1.000000    
    166 O2    c    0.408332 *  0.438151 *  0.489726 *   0.87073    1.000000    
    167 O2    c    0.558820 *  0.970721 *  0.823431 *   0.87073    1.000000    
    168 O3    c    0.022860 *  0.592593 *  0.158218 *   1.33043    1.000000    
    169 O2    c    0.560889 *  0.590556 *  0.344053 *   0.87073    1.000000    
    170 O2    c    0.026434 *  0.441538 *  0.008082 *   0.87073    1.000000    
    171 O2    c    0.411758 *  0.970526 *  0.676032 *   0.87073    1.000000    
    172 O2    c    0.441835 *  0.411872 *  0.841280 *   0.87073    1.000000    
    173 O2    c    0.969930 *  0.556130 *  0.509182 *   0.87073    1.000000    
    174 O2    c    0.589604 *  0.029695 *  0.177340 *   0.87073    1.000000    
    175 O2    c    0.583419 *  0.165270 *  0.251533 *   0.87073    1.000000    
    176 O2    c    0.831956 *  0.416058 *  0.583336 *   0.87073    1.000000    
    177 O2    c    0.584035 *  0.417197 *  0.914902 *   0.87073    1.000000    
    178 O2    c    0.415820 *  0.833691 *  0.749620 *   0.87073    1.000000    
    179 O3    c    0.171171 *  0.590188 *  0.078699 *   1.33043    1.000000    
    180 O2    c    0.413956 *  0.581837 *  0.416936 *   0.87073    1.000000    
    181 F     c    0.451664 *  0.904434 *  0.250658 *   0.56000    1.000000    
    182 F     c    0.094430 *  0.548761 *  0.583271 *   0.56000    1.000000    
    183 F     c    0.451912 *  0.547946 *  0.914693 *   0.56000    1.000000    
    184 F     c    0.547911 *  0.095106 *  0.749803 *   0.56000    1.000000    
    185 F     c    0.896575 *  0.452292 *  0.080195 *   0.56000    1.000000    
    186 F     c    0.547565 *  0.451922 *  0.416628 *   0.56000    1.000000    
    187 O2    s    0.925634 *  0.001292 *  0.999667 *  -2.87073    1.000000    
    188 O2    s    0.002950 *  0.927940 *  0.330486 *  -2.87073    1.000000    
    189 O2    s    0.074769 *  0.075275 *  0.666591 *  -2.87073    1.000000    
    190 O3    s    0.072644 *  0.006919 *  0.502678 *  -3.33043    1.000000    
    191 O2    s    0.000721 *  0.075078 *  0.832658 *  -2.87073    1.000000    
    192 O2    s    0.927765 *  0.928116 *  0.165498 *  -2.87073    1.000000    
    193 O2    s    0.352823 *  0.587104 *  0.333776 *  -2.87073    1.000000    
    194 O2    s    0.411872 *  0.765704 *  0.666692 *  -2.87073    1.000000    
    195 O2    s    0.233931 *  0.648525 *  0.995774 *  -2.87073    1.000000    
    196 O2    s    0.649184 *  0.413362 *  0.832097 *  -2.87073    1.000000    
    197 O2    s    0.587083 *  0.233139 *  0.169495 *  -2.87073    1.000000    
    198 O2    s    0.763855 *  0.349452 *  0.500155 *  -2.87073    1.000000    
    199 O3    s    0.575808 *  0.346418 *  0.997351 *  -3.33043    1.000000    
    200 O2    s    0.765154 *  0.413536 *  0.666602 *  -2.87073    1.000000    
    201 O2    s    0.649596 *  0.235709 *  0.334202 *  -2.87073    1.000000    
    202 O2    s    0.413247 *  0.645981 *  0.500891 *  -2.87073    1.000000    
    203 O3    s    0.241929 *  0.589185 *  0.168668 *  -3.33043    1.000000    
    204 O2    s    0.352321 *  0.765029 *  0.832136 *  -2.87073    1.000000    
    205 O2    s    0.122743 *  0.215610 *  0.967854 *  -2.87073    1.000000    
    206 O2    s    0.783501 *  0.905832 *  0.303968 *  -2.87073    1.000000    
    207 O2    s    0.093327 *  0.878400 *  0.635259 *  -2.87073    1.000000    
    208 O3    s    0.866646 *  0.774663 *  0.472606 *  -3.33043    1.000000    
    209 O2    s    0.216786 *  0.094100 *  0.802899 *  -2.87073    1.000000    
    210 O2    s    0.901817 *  0.119015 *  0.135107 *  -2.87073    1.000000    
    211 O2    s    0.219649 *  0.124807 *  0.361270 *  -2.87073    1.000000    
    212 O2    s    0.910007 *  0.789109 *  0.029552 *  -2.87073    1.000000    
    213 O2    s    0.877462 *  0.094183 *  0.696479 *  -2.87073    1.000000    
    214 O2    s    0.784300 *  0.877275 *  0.862013 *  -2.87073    1.000000    
    215 O2    s    0.095418 *  0.220003 *  0.531615 *  -2.87073    1.000000    
    216 O2    s    0.119775 *  0.901897 *  0.197261 *  -2.87073    1.000000    
    217 O2    s    0.924619 *  0.858487 *  0.248809 *  -2.87073    1.000000    
    218 O2    s    0.144346 *  0.074875 *  0.584245 *  -2.87073    1.000000    
    219 O2    s    0.929286 *  0.066989 *  0.915797 *  -2.87073    1.000000    
    220 O2    s    0.069833 *  0.138802 *  0.749435 *  -2.87073    1.000000    
    221 O2    s    0.854551 *  0.927131 *  0.082606 *  -2.87073    1.000000    
    222 O3    s    0.068491 *  0.936875 *  0.413031 *  -3.33043    1.000000    
    223 O2    s    0.911801 *  0.204526 *  0.980522 *  -2.87073    1.000000    
    224 O2    s    0.796783 *  0.705802 *  0.316343 *  -2.87073    1.000000    
    225 O2    s    0.295922 *  0.090317 *  0.649489 *  -2.87073    1.000000    
    226 O3    s    0.097679 *  0.789066 *  0.481192 *  -3.33043    1.000000    
    227 O2    s    0.205736 *  0.295585 *  0.813834 *  -2.87073    1.000000    
    228 O2    s    0.703741 *  0.907179 *  0.149857 *  -2.87073    1.000000    
    229 O2    s    0.205546 *  0.909885 *  0.351005 *  -2.87073    1.000000    
    230 O2    s    0.704735 *  0.793192 *  0.015938 *  -2.87073    1.000000    
    231 O2    s    0.089694 *  0.296211 *  0.684971 *  -2.87073    1.000000    
    232 O2    s    0.795494 *  0.090132 *  0.850502 *  -2.87073    1.000000    
    233 O2    s    0.295771 *  0.204865 *  0.517027 *  -2.87073    1.000000    
    234 O2    s    0.901262 *  0.705766 *  0.182891 *  -2.87073    1.000000    
    235 O2    s    0.328174 *  0.656426 *  0.251359 *  -2.87073    1.000000    
    236 O2    s    0.344730 *  0.671750 *  0.584157 *  -2.87073    1.000000    
    237 O2    s    0.329531 *  0.671625 *  0.914259 *  -2.87073    1.000000    
    238 O2    s    0.673592 *  0.343394 *  0.749674 *  -2.87073    1.000000    
    239 O3    s    0.644685 *  0.317435 *  0.086976 *  -3.33043    1.000000    
    240 O2    s    0.672477 *  0.327916 *  0.416797 *  -2.87073    1.000000    
    241 O2    s    0.375030 *  0.339722 *  0.965563 *  -2.87073    1.000000    
    242 O2    s    0.660685 *  0.037581 *  0.303100 *  -2.87073    1.000000    
    243 O2    s    0.961668 *  0.623611 *  0.634009 *  -2.87073    1.000000    
    244 O2    s    0.618664 *  0.655979 *  0.468356 *  -2.87073    1.000000    
    245 O2    s    0.339907 *  0.962720 *  0.801513 *  -2.87073    1.000000    
    246 O3    s    0.034456 *  0.368647 *  0.133364 *  -3.33043    1.000000    
    247 O2    s    0.341174 *  0.378214 *  0.364739 *  -2.87073    1.000000    
    248 O2    s    0.036449 *  0.660552 *  0.029467 *  -2.87073    1.000000    
    249 O2    s    0.622549 *  0.962782 *  0.698240 *  -2.87073    1.000000    
    250 O2    s    0.661145 *  0.622587 *  0.863409 *  -2.87073    1.000000    
    251 O2    s    0.962014 *  0.339763 *  0.532438 *  -2.87073    1.000000    
    252 O2    s    0.376149 *  0.034002 *  0.199281 *  -2.87073    1.000000    
    253 O3    s    0.776782 *  0.300918 *  0.011018 *  -3.33043    1.000000    
    254 O2    s    0.691412 *  0.468345 *  0.347766 *  -2.87073    1.000000    
    255 O2    s    0.533883 *  0.222391 *  0.680679 *  -2.87073    1.000000    
    256 O2    s    0.224558 *  0.687345 *  0.514672 *  -2.87073    1.000000    
    257 O2    s    0.311660 *  0.533466 *  0.844922 *  -2.87073    1.000000    
    258 O2    s    0.468632 *  0.778097 *  0.181979 *  -2.87073    1.000000    
    259 O2    s    0.311040 *  0.777224 *  0.320405 *  -2.87073    1.000000    
    260 O2    s    0.466706 *  0.687480 *  0.984135 *  -2.87073    1.000000    
    261 O2    s    0.220922 *  0.534713 *  0.653441 *  -2.87073    1.000000    
    262 O2    s    0.690176 *  0.222549 *  0.819100 *  -2.87073    1.000000    
    263 O2    s    0.531596 *  0.308088 *  0.485466 *  -2.87073    1.000000    
    264 O2    s    0.772780 *  0.466508 *  0.151485 *  -2.87073    1.000000    
    265 O3    s    0.789654 *  0.542717 *  0.028671 *  -3.33043    1.000000    
    266 O2    s    0.469929 *  0.259597 *  0.363662 *  -2.87073    1.000000    
    267 O2    s    0.742804 *  0.210208 *  0.697181 *  -2.87073    1.000000    
    268 O2    s    0.211196 *  0.468118 *  0.532374 *  -2.87073    1.000000    
    269 O2    s    0.533365 *  0.741751 *  0.862128 *  -2.87073    1.000000    
    270 O2    s    0.255946 *  0.786872 *  0.197650 *  -2.87073    1.000000    
    271 O2    s    0.532491 *  0.790643 *  0.303366 *  -2.87073    1.000000    
    272 O2    s    0.256417 *  0.467556 *  0.966838 *  -2.87073    1.000000    
    273 O2    s    0.209629 *  0.743713 *  0.634752 *  -2.87073    1.000000    
    274 O2    s    0.468765 *  0.209958 *  0.802177 *  -2.87073    1.000000    
    275 O2    s    0.739885 *  0.527987 *  0.469898 *  -2.87073    1.000000    
    276 O2    s    0.790852 *  0.260106 *  0.135473 *  -2.87073    1.000000    
    277 O2    s    0.239355 *  0.333089 *  0.896518 *  -2.87073    1.000000    
    278 O2    s    0.669220 *  0.910782 *  0.233365 *  -2.87073    1.000000    
    279 O2    s    0.089697 *  0.758764 *  0.564206 *  -2.87073    1.000000    
    280 O2    s    0.761411 *  0.666916 *  0.399815 *  -2.87073    1.000000    
    281 O2    s    0.332411 *  0.090534 *  0.732236 *  -2.87073    1.000000    
    282 O2    s    0.907584 *  0.241411 *  0.064220 *  -2.87073    1.000000    
    283 O2    s    0.331586 *  0.239171 *  0.433488 *  -2.87073    1.000000    
    284 O2    s    0.907277 *  0.667488 *  0.099727 *  -2.87073    1.000000    
    285 O2    s    0.759475 *  0.091876 *  0.767505 *  -2.87073    1.000000    
    286 O2    s    0.668218 *  0.757522 *  0.932791 *  -2.87073    1.000000    
    287 O2    s    0.089568 *  0.333451 *  0.602396 *  -2.87073    1.000000    
    288 O2    s    0.240044 *  0.905533 *  0.268251 *  -2.87073    1.000000    
    289 O2    s    0.583462 *  0.557507 *  0.985445 *  -2.87073    1.000000    
    290 O2    s    0.441474 *  0.024091 *  0.321432 *  -2.87073    1.000000    
    291 O2    s    0.974633 *  0.418251 *  0.654282 *  -2.87073    1.000000    
    292 O2    s    0.413296 *  0.438123 *  0.486428 *  -2.87073    1.000000    
    293 O2    s    0.559102 *  0.975689 *  0.820069 *  -2.87073    1.000000    
    294 O3    s    0.017147 *  0.588734 *  0.154976 *  -3.33043    1.000000    
    295 O2    s    0.560985 *  0.585613 *  0.347275 *  -2.87073    1.000000    
    296 O2    s    0.022320 *  0.441549 *  0.011145 *  -2.87073    1.000000    
    297 O2    s    0.416507 *  0.975445 *  0.679444 *  -2.87073    1.000000    
    298 O2    s    0.441618 *  0.416621 *  0.844587 *  -2.87073    1.000000    
    299 O2    s    0.974876 *  0.556352 *  0.512551 *  -2.87073    1.000000    
    300 O2    s    0.584760 *  0.024533 *  0.180719 *  -2.87073    1.000000    
    301 O2    s    0.577830 *  0.154119 *  0.251590 *  -2.87073    1.000000    
    302 O2    s    0.843064 *  0.421668 *  0.583327 *  -2.87073    1.000000    
    303 O2    s    0.578431 *  0.422469 *  0.914796 *  -2.87073    1.000000    
    304 O2    s    0.421519 *  0.844803 *  0.749610 *  -2.87073    1.000000    
    305 O3    s    0.160796 *  0.585114 *  0.078211 *  -3.33043    1.000000    
    306 O2    s    0.419737 *  0.576413 *  0.416939 *  -2.87073    1.000000    
    307 F     s    0.451431 *  0.904148 *  0.250624 *  -1.56000    1.000000    
    308 F     s    0.094759 *  0.549032 *  0.583227 *  -1.56000    1.000000    
    309 F     s    0.451622 *  0.548210 *  0.914689 *  -1.56000    1.000000    
    310 F     s    0.548050 *  0.095419 *  0.749797 *  -1.56000    1.000000    
    311 F     s    0.895120 *  0.451815 *  0.079949 *  -1.56000    1.000000    
    312 F     s    0.547753 *  0.451780 *  0.416626 *  -1.56000    1.000000    
--------------------------------------------------------------------------------



********************************************************************************
*  General input information                                                   *
********************************************************************************

  Species output for all configurations : 

--------------------------------------------------------------------------------
  Species    Type    Atomic    Atomic    Charge       Radii (Angs)     Library
                     Number     Mass       (e)     Cova   Ionic  VDW   Symbol
--------------------------------------------------------------------------------
    Si       Core       14      28.09   4.000000   1.200  0.000  2.100          
    O1       Core        8      16.00   1.733957   0.730  0.000  1.360          
    O1       Shell       8       0.00  -3.733957   0.730  0.000  1.360          
    O2       Core        8      16.00   0.870733   0.730  0.000  1.360          
    O2       Shell       8       0.00  -2.870733   0.730  0.000  1.360          
    O3       Core        8      16.00   1.330431   0.730  0.000  1.360          
    O3       Shell       8       0.00  -3.330431   0.730  0.000  1.360          
    F        Core        9      19.00   0.560000   0.710  0.000  1.300          
    F        Shell       9       0.00  -1.560000   0.710  0.000  1.300          
    Ge       Core       32      72.61   4.000000   1.170  0.000  1.750          
--------------------------------------------------------------------------------


  Lattice summation method               =    Ewald          (3-D)
                                         =    Parry          (2-D)
                                         =    Saunders et al (1-D)
  Accuracy factor for lattice sums       =   12.000


  Time limit = Infinity

  Maximum range for interatomic potentials =        16.000000 Angstroms

  Taper potentials to zero over   1.0000 Angstroms using polynomial

  General interatomic potentials :

--------------------------------------------------------------------------------
Atom  Types   Potential         A         B         C         D     Cutoffs(Ang)
  1     2                                                            Min    Max 
--------------------------------------------------------------------------------
Si   c O1   s Buckingham    0.132E+04 0.318      10.1      0.00     0.000 16.000
Si   c O2   s Buckingham    0.132E+04 0.318      10.1      0.00     0.000 16.000
Si   c O3   s Buckingham    0.132E+04 0.318      10.1      0.00     0.000 16.000
Ge   c O1   s Buckingham    0.150E+04 0.326      16.8      0.00     0.000 16.000
Ge   c O2   s Buckingham    0.150E+04 0.326      16.8      0.00     0.000 16.000
Ge   c O3   s Buckingham    0.150E+04 0.326      16.8      0.00     0.000 16.000
O1   s O1   s Buckingham    0.228E+05 0.149      10.9      0.00     0.000 16.000
O1   s O2   s Buckingham    0.228E+05 0.149      10.9      0.00     0.000 16.000
O1   s O3   s Buckingham    0.228E+05 0.149      10.9      0.00     0.000 16.000
O2   s O2   s Buckingham    0.228E+05 0.149      10.9      0.00     0.000 16.000
O2   s O3   s Buckingham    0.228E+05 0.149      10.9      0.00     0.000 16.000
O3   s O3   s Buckingham    0.228E+05 0.149      10.9      0.00     0.000 16.000
Si   c F    s Buckingham     977.     0.282      0.00      0.00     0.000 16.000
Ge   c F    s Buckingham     681.     0.320      0.00      0.00     0.000 16.000
F    s F    s Buckingham     540.     0.262      0.00      0.00     0.000 16.000
O1   s F    s Buckingham    0.168E+04 0.268      0.00      0.00     0.000 16.000
O2   s F    s Buckingham    0.168E+04 0.268      0.00      0.00     0.000 16.000
O3   s F    s Buckingham    0.168E+04 0.268      0.00      0.00     0.000 16.000
O2   c O2   s Spring (c-s)   76.0      0.00      0.00      0.00     0.000  0.800
O3   c O3   s Spring (c-s)   128.      0.00      0.00      0.00     0.000  0.800
O1   c O1   s Spring (c-s)   180.      0.00      0.00      0.00     0.000  0.800
F    c F    s Spring (c-s)   33.5      0.00      0.00      0.00     0.000  0.800
--------------------------------------------------------------------------------

  General Three-body potentials :

  Harmonic form:

--------------------------------------------------------------------------------
Atom    Atom    Atom           Force Constants            Theta     Cutoffs  
  1       2       3     (eVrad**-2/eVrad**-3/eVrad**-4)   (deg)  1-2  1-3  2-3
--------------------------------------------------------------------------------
Si    c O1    s O1    s  1.261        0.0000    0.0000   109.470 0.00 0.00 0.00
                                                                 1.90 1.90 3.50
Si    c O1    s O2    s  1.261        0.0000    0.0000   109.470 0.00 0.00 0.00
                                                                 1.90 1.90 3.50
Si    c O2    s O2    s  1.261        0.0000    0.0000   109.470 0.00 0.00 0.00
                                                                 1.90 1.90 3.50
--------------------------------------------------------------------------------

********************************************************************************
*  Output for configuration   1                                                *
********************************************************************************


  Components of energy : 

--------------------------------------------------------------------------------
  Interatomic potentials     =        2060.87619365 eV
  Three-body potentials      =           0.40876537 eV
  Monopole - monopole (real) =       -6610.83554138 eV
  Monopole - monopole (recip)=       -3169.92390483 eV
  Monopole - monopole (total)=       -9780.75944620 eV
  Neutralising energy        =          -6.45711370 eV
--------------------------------------------------------------------------------
  Total lattice energy       =       -7725.93160088 eV
--------------------------------------------------------------------------------
  Total lattice energy       =         -745434.2978 kJ/(mole unit cells)
--------------------------------------------------------------------------------


  Number of variables =      939

  Maximum number of calculations  =          5000
  Maximum Hessian update interval =            10
  Maximum step size               =   0.100000000
  Maximum parameter tolerance     =   0.000010000
  Maximum function  tolerance     =   0.000010000
  Maximum gradient  tolerance     =   0.001000000
  Maximum gradient  component     =   0.010000000

  Symmetry not applied to optimisation

  Cell parameters to be optimised using strains

  Newton-Raphson optimiser to be used

  BFGS hessian update to be used

  Dumpfile to be written after every cycle

  Start of bulk optimisation :

  Cycle:      0 Energy:     -7725.931601  Gnorm:      0.009901  CPU:    2.011
  ** Hessian calculated **
  Cycle:      1 Energy:     -7725.931860  Gnorm:      0.003607  CPU:    5.244
  Cycle:      2 Energy:     -7725.932033  Gnorm:      0.002039  CPU:    9.469
  Cycle:      3 Energy:     -7725.932247  Gnorm:      0.002681  CPU:   13.695
  Cycle:      4 Energy:     -7725.932525  Gnorm:      0.004100  CPU:   17.920
  Cycle:      5 Energy:     -7725.932902  Gnorm:      0.005416  CPU:   22.146
  Cycle:      6 Energy:     -7725.933410  Gnorm:      0.006623  CPU:   26.370
  Cycle:      7 Energy:     -7725.934086  Gnorm:      0.007835  CPU:   30.595
  Cycle:      8 Energy:     -7725.934979  Gnorm:      0.008984  CPU:   34.820
  Cycle:      9 Energy:     -7725.936125  Gnorm:      0.010145  CPU:   39.045
  Cycle:     10 Energy:     -7725.937603  Gnorm:      0.011062  CPU:   43.269
  ** Hessian calculated **
  Cycle:     11 Energy:     -7725.938426  Gnorm:      0.007224  CPU:   48.498
  Cycle:     12 Energy:     -7725.939439  Gnorm:      0.006599  CPU:   52.722
  Cycle:     13 Energy:     -7725.940541  Gnorm:      0.005521  CPU:   56.947
  Cycle:     14 Energy:     -7725.941212  Gnorm:      0.004987  CPU:   60.487
  Cycle:     15 Energy:     -7725.941597  Gnorm:      0.004226  CPU:   64.029
  Cycle:     16 Energy:     -7725.942005  Gnorm:      0.004058  CPU:   68.254
  Cycle:     17 Energy:     -7725.942513  Gnorm:      0.003821  CPU:   72.479
  Cycle:     18 Energy:     -7725.943039  Gnorm:      0.004183  CPU:   76.703
  Cycle:     19 Energy:     -7725.943742  Gnorm:      0.004688  CPU:   80.927
  Cycle:     20 Energy:     -7725.944669  Gnorm:      0.005126  CPU:   85.151
  ** Hessian calculated **
  Cycle:     21 Energy:     -7725.944955  Gnorm:      0.003940  CPU:   90.379
  Cycle:     22 Energy:     -7725.945444  Gnorm:      0.003686  CPU:   95.287
  Cycle:     23 Energy:     -7725.945989  Gnorm:      0.003243  CPU:   99.510
  Cycle:     24 Energy:     -7725.946629  Gnorm:      0.002985  CPU:  103.735
  Cycle:     25 Energy:     -7725.947285  Gnorm:      0.004371  CPU:  107.959
  Cycle:     26 Energy:     -7725.947804  Gnorm:      0.003696  CPU:  111.501
  Cycle:     27 Energy:     -7725.948223  Gnorm:      0.004162  CPU:  115.725
  Cycle:     28 Energy:     -7725.948799  Gnorm:      0.004941  CPU:  119.949
  Cycle:     29 Energy:     -7725.949678  Gnorm:      0.006000  CPU:  124.173
  Cycle:     30 Energy:     -7725.951020  Gnorm:      0.007341  CPU:  128.397
  ** Hessian calculated **
  Cycle:     31 Energy:     -7725.951370  Gnorm:      0.006623  CPU:  132.941
  Cycle:     32 Energy:     -7725.952202  Gnorm:      0.006106  CPU:  137.847
  Cycle:     33 Energy:     -7725.953204  Gnorm:      0.005396  CPU:  142.071
  Cycle:     34 Energy:     -7725.954384  Gnorm:      0.004565  CPU:  146.294
  Cycle:     35 Energy:     -7725.955293  Gnorm:      0.004550  CPU:  149.834
  Cycle:     36 Energy:     -7725.955872  Gnorm:      0.003401  CPU:  153.374
  Cycle:     37 Energy:     -7725.956215  Gnorm:      0.003529  CPU:  156.914
  Cycle:     38 Energy:     -7725.956732  Gnorm:      0.003649  CPU:  161.138
  Cycle:     39 Energy:     -7725.957514  Gnorm:      0.004561  CPU:  165.362
  Cycle:     40 Energy:     -7725.958714  Gnorm:      0.005575  CPU:  169.585
  ** Hessian calculated **
  Cycle:     41 Energy:     -7725.959146  Gnorm:      0.004834  CPU:  175.497
  Cycle:     42 Energy:     -7725.959827  Gnorm:      0.004696  CPU:  180.405
  Cycle:     43 Energy:     -7725.960600  Gnorm:      0.004098  CPU:  184.628
  Cycle:     44 Energy:     -7725.961546  Gnorm:      0.003452  CPU:  188.852
  Cycle:     45 Energy:     -7725.962592  Gnorm:      0.003728  CPU:  193.075
  Cycle:     46 Energy:     -7725.963579  Gnorm:      0.004654  CPU:  197.299
  Cycle:     47 Energy:     -7725.964046  Gnorm:      0.004440  CPU:  200.839
  Cycle:     48 Energy:     -7725.964589  Gnorm:      0.005437  CPU:  205.062
  Cycle:     49 Energy:     -7725.965391  Gnorm:      0.006467  CPU:  209.286
  Cycle:     50 Energy:     -7725.966652  Gnorm:      0.007765  CPU:  213.509
  ** Hessian calculated **
  Cycle:     51 Energy:     -7725.967119  Gnorm:      0.006863  CPU:  218.737
  Cycle:     52 Energy:     -7725.968063  Gnorm:      0.006498  CPU:  223.654
  Cycle:     53 Energy:     -7725.969179  Gnorm:      0.005787  CPU:  227.884
  Cycle:     54 Energy:     -7725.970493  Gnorm:      0.004984  CPU:  232.119
  Cycle:     55 Energy:     -7725.971804  Gnorm:      0.005161  CPU:  236.352
  Cycle:     56 Energy:     -7725.972458  Gnorm:      0.004191  CPU:  239.894
  Cycle:     57 Energy:     -7725.972930  Gnorm:      0.004064  CPU:  244.127
  Cycle:     58 Energy:     -7725.973566  Gnorm:      0.004679  CPU:  248.357
  Cycle:     59 Energy:     -7725.974608  Gnorm:      0.005451  CPU:  252.589
  Cycle:     60 Energy:     -7725.976541  Gnorm:      0.006929  CPU:  257.499
  ** Hessian calculated **
  Cycle:     61 Energy:     -7725.977060  Gnorm:      0.005830  CPU:  262.737
  Cycle:     62 Energy:     -7725.978022  Gnorm:      0.005587  CPU:  267.646
  Cycle:     63 Energy:     -7725.979158  Gnorm:      0.005224  CPU:  271.869
  Cycle:     64 Energy:     -7725.980553  Gnorm:      0.004237  CPU:  276.093
  Cycle:     65 Energy:     -7725.981989  Gnorm:      0.004789  CPU:  280.316
  Cycle:     66 Energy:     -7725.983003  Gnorm:      0.004872  CPU:  283.855
  Cycle:     67 Energy:     -7725.983545  Gnorm:      0.004881  CPU:  288.079
  Cycle:     68 Energy:     -7725.984167  Gnorm:      0.006205  CPU:  292.302
  Cycle:     69 Energy:     -7725.985115  Gnorm:      0.006790  CPU:  296.525
  Cycle:     70 Energy:     -7725.986641  Gnorm:      0.007978  CPU:  300.748
  ** Hessian calculated **
  Cycle:     71 Energy:     -7725.987044  Gnorm:      0.007120  CPU:  305.292
  Cycle:     72 Energy:     -7725.988035  Gnorm:      0.006666  CPU:  310.198
  Cycle:     73 Energy:     -7725.989268  Gnorm:      0.006130  CPU:  314.420
  Cycle:     74 Energy:     -7725.990765  Gnorm:      0.005196  CPU:  318.644
  Cycle:     75 Energy:     -7725.992347  Gnorm:      0.004964  CPU:  322.867
  Cycle:     76 Energy:     -7725.993193  Gnorm:      0.005087  CPU:  326.407
  Cycle:     77 Energy:     -7725.993810  Gnorm:      0.004331  CPU:  330.631
  Cycle:     78 Energy:     -7725.994361  Gnorm:      0.005148  CPU:  334.170
  Cycle:     79 Energy:     -7725.995527  Gnorm:      0.006086  CPU:  339.082
  Cycle:     80 Energy:     -7725.997216  Gnorm:      0.007121  CPU:  343.310
  ** Hessian calculated **
  Cycle:     81 Energy:     -7725.997759  Gnorm:      0.006034  CPU:  348.550
  Cycle:     82 Energy:     -7725.998765  Gnorm:      0.005823  CPU:  353.459
  Cycle:     83 Energy:     -7725.999956  Gnorm:      0.005455  CPU:  357.682
  Cycle:     84 Energy:     -7726.001433  Gnorm:      0.004456  CPU:  361.906
  Cycle:     85 Energy:     -7726.002987  Gnorm:      0.004905  CPU:  366.128
  Cycle:     86 Energy:     -7726.004060  Gnorm:      0.005526  CPU:  369.668
  Cycle:     87 Energy:     -7726.004720  Gnorm:      0.004976  CPU:  373.896
  Cycle:     88 Energy:     -7726.005358  Gnorm:      0.006230  CPU:  378.137
  Cycle:     89 Energy:     -7726.006349  Gnorm:      0.006808  CPU:  382.367
  Cycle:     90 Energy:     -7726.007972  Gnorm:      0.008541  CPU:  386.594
  ** Hessian calculated **
  Cycle:     91 Energy:     -7726.008440  Gnorm:      0.007269  CPU:  391.141
  Cycle:     92 Energy:     -7726.009589  Gnorm:      0.006867  CPU:  396.053
  Cycle:     93 Energy:     -7726.010988  Gnorm:      0.006515  CPU:  400.278
  Cycle:     94 Energy:     -7726.012669  Gnorm:      0.005249  CPU:  404.506
  Cycle:     95 Energy:     -7726.014181  Gnorm:      0.005598  CPU:  408.731
  Cycle:     96 Energy:     -7726.014900  Gnorm:      0.004548  CPU:  412.276
  Cycle:     97 Energy:     -7726.015404  Gnorm:      0.004353  CPU:  416.504
  Cycle:     98 Energy:     -7726.016136  Gnorm:      0.004755  CPU:  420.729
  Cycle:     99 Energy:     -7726.017282  Gnorm:      0.005510  CPU:  424.957
  Cycle:    100 Energy:     -7726.019348  Gnorm:      0.007161  CPU:  429.866
  ** Hessian calculated **
  Cycle:    101 Energy:     -7726.019883  Gnorm:      0.006115  CPU:  435.101
  Cycle:    102 Energy:     -7726.020880  Gnorm:      0.005994  CPU:  440.012
  Cycle:    103 Energy:     -7726.022065  Gnorm:      0.005543  CPU:  444.242
  Cycle:    104 Energy:     -7726.023520  Gnorm:      0.004757  CPU:  448.468
  Cycle:    105 Energy:     -7726.025045  Gnorm:      0.005092  CPU:  452.694
  Cycle:    106 Energy:     -7726.026088  Gnorm:      0.004642  CPU:  456.238
  Cycle:    107 Energy:     -7726.026611  Gnorm:      0.005004  CPU:  459.779
  Cycle:    108 Energy:     -7726.027287  Gnorm:      0.005520  CPU:  464.005
  Cycle:    109 Energy:     -7726.028281  Gnorm:      0.006675  CPU:  468.235
  Cycle:    110 Energy:     -7726.029795  Gnorm:      0.007660  CPU:  472.465
  ** Hessian calculated **
  Cycle:    111 Energy:     -7726.030186  Gnorm:      0.007121  CPU:  477.019
  Cycle:    112 Energy:     -7726.031154  Gnorm:      0.006579  CPU:  481.933
  Cycle:    113 Energy:     -7726.032366  Gnorm:      0.005933  CPU:  486.163
  Cycle:    114 Energy:     -7726.033836  Gnorm:      0.005244  CPU:  490.393
  Cycle:    115 Energy:     -7726.035458  Gnorm:      0.004171  CPU:  494.623
  Cycle:    116 Energy:     -7726.036293  Gnorm:      0.004562  CPU:  498.163
  Cycle:    117 Energy:     -7726.036910  Gnorm:      0.004177  CPU:  501.708
  Cycle:    118 Energy:     -7726.037375  Gnorm:      0.004762  CPU:  505.252
  Cycle:    119 Energy:     -7726.038341  Gnorm:      0.005342  CPU:  510.162
  Cycle:    120 Energy:     -7726.039769  Gnorm:      0.006219  CPU:  514.389
  ** Hessian calculated **
  Cycle:    121 Energy:     -7726.042156  Gnorm:      0.006217  CPU:  520.307
  Cycle:    122 Energy:     -7726.046172  Gnorm:      0.006213  CPU:  525.217
  Cycle:    123 Energy:     -7726.052253  Gnorm:      0.006203  CPU:  530.128
  Cycle:    124 Energy:     -7726.061067  Gnorm:      0.006178  CPU:  535.039
  Cycle:    125 Energy:     -7726.071390  Gnorm:      0.006131  CPU:  539.266
  Cycle:    126 Energy:     -7726.087465  Gnorm:      0.006025  CPU:  544.173
  Cycle:    127 Energy:     -7726.109505  Gnorm:      0.005816  CPU:  549.083
  Cycle:    128 Energy:     -7726.132779  Gnorm:      0.005473  CPU:  553.308
  Cycle:    129 Energy:     -7726.164642  Gnorm:      0.004815  CPU:  558.215
  Cycle:    130 Energy:     -7726.194316  Gnorm:      0.003935  CPU:  562.440
  ** Hessian calculated **
  Cycle:    131 Energy:     -7726.218779  Gnorm:      0.002482  CPU:  568.355
  Cycle:    132 Energy:     -7726.224256  Gnorm:      0.001646  CPU:  572.580
  Cycle:    133 Energy:     -7726.225539  Gnorm:      0.000895  CPU:  576.805
  Cycle:    134 Energy:     -7726.225858  Gnorm:      0.000476  CPU:  581.031
  Cycle:    135 Energy:     -7726.225938  Gnorm:      0.000242  CPU:  585.256
  Cycle:    136 Energy:     -7726.225951  Gnorm:      0.000171  CPU:  588.113
  Cycle:    137 Energy:     -7726.225958  Gnorm:      0.000119  CPU:  590.971
  Cycle:    138 Energy:     -7726.225961  Gnorm:      0.000084  CPU:  593.829
  Cycle:    139 Energy:     -7726.225963  Gnorm:      0.000059  CPU:  596.687
  Cycle:    140 Energy:     -7726.225964  Gnorm:      0.000041  CPU:  599.544
  ** Hessian calculated **
  Cycle:    141 Energy:     -7726.225964  Gnorm:      0.000027  CPU:  604.092
  Cycle:    142 Energy:     -7726.225964  Gnorm:      0.000023  CPU:  606.951


  **** Optimisation achieved ****


  Final energy =   -7726.22596363 eV
  Final Gnorm  =       0.00002069

  Components of energy : 

--------------------------------------------------------------------------------
  Interatomic potentials     =        2061.35201321 eV
  Three-body potentials      =           0.43073048 eV
  Monopole - monopole (real) =       -6611.93480165 eV
  Monopole - monopole (recip)=       -3169.61739883 eV
  Monopole - monopole (total)=       -9781.55220048 eV
  Neutralising energy        =          -6.45650684 eV
--------------------------------------------------------------------------------
  Total lattice energy       =       -7726.22596363 eV
--------------------------------------------------------------------------------
  Total lattice energy       =         -745462.6993 kJ/(mole unit cells)
--------------------------------------------------------------------------------

  Final fractional coordinates of atoms :

--------------------------------------------------------------------------------
   No.  Atomic        x           y          z          Radius
        Label       (Frac)      (Frac)     (Frac)       (Angs) 
--------------------------------------------------------------------------------
     1  Ge    c     0.699600    0.375700    0.033890    0.000000
     2  Si    c     0.600672    0.309990    0.364799    0.000000
     3  Si    c     0.659834    0.285718    0.698308    0.000000
     4  Si    c     0.276695    0.605378    0.532342    0.000000
     5  Si    c     0.363026    0.663163    0.862122    0.000000
     6  Si    c     0.302457    0.687543    0.199871    0.000000
     7  Si    c     0.356148    0.686944    0.300269    0.000000
     8  Si    c     0.307039    0.609710    0.962079    0.000000
     9  Si    c     0.278327    0.664820    0.632250    0.000000
    10  Si    c     0.606859    0.285923    0.799093    0.000000
    11  Si    c     0.652790    0.359637    0.465831    0.000000
    12  Si    c     0.664416    0.303055    0.131752    0.000000
    13  Si    c     0.520733    0.408858    0.966200    0.000000
    14  Si    c     0.559936    0.097612    0.300848    0.000000
    15  Si    c     0.867602    0.458270    0.632850    0.000000
    16  Si    c     0.442185    0.562252    0.466246    0.000000
    17  Si    c     0.401085    0.874856    0.798654    0.000000
    18  Ge    c     0.089934    0.521555    0.131381    0.000000
    19  Si    c     0.394640    0.513830    0.364433    0.000000
    20  Si    c     0.094894    0.574973    0.026233    0.000000
    21  Si    c     0.452540    0.876112    0.697021    0.000000
    22  Si    c     0.570051    0.459653    0.863548    0.000000
    23  Si    c     0.864464    0.401722    0.531409    0.000000
    24  Si    c     0.503308    0.093770    0.199189    0.000000
    25  Si    c     0.288079    0.387562    0.848072    0.000000
    26  Si    c     0.579689    0.889824    0.184198    0.000000
    27  Si    c     0.074992    0.680080    0.516092    0.000000
    28  Si    c     0.677457    0.587236    0.350925    0.000000
    29  Si    c     0.381022    0.083802    0.683520    0.000000
    30  Si    c     0.881407    0.285841    0.011143    0.000000
    31  Si    c     0.373148    0.282969    0.478896    0.000000
    32  Si    c     0.868108    0.588423    0.143877    0.000000
    33  Si    c     0.683054    0.084526    0.813372    0.000000
    34  Si    c     0.586222    0.688842    0.977727    0.000000
    35  Si    c     0.077394    0.386979    0.648079    0.000000
    36  Si    c     0.277950    0.886329    0.314152    0.000000
    37  Si    c     0.239917    0.331788    0.948527    0.000000
    38  Si    c     0.637600    0.897247    0.285113    0.000000
    39  Si    c     0.068141    0.736453    0.616170    0.000000
    40  Si    c     0.721527    0.638356    0.452107    0.000000
    41  Si    c     0.324570    0.076104    0.784048    0.000000
    42  Si    c     0.883029    0.235741    0.114370    0.000000
    43  Si    c     0.318417    0.236363    0.377834    0.000000
    44  Si    c     0.891603    0.657065    0.040947    0.000000
    45  Si    c     0.731800    0.077842    0.712628    0.000000
    46  Si    c     0.644842    0.737050    0.877123    0.000000
    47  Si    c     0.067302    0.326840    0.547547    0.000000
    48  Si    c     0.223086    0.889698    0.213303    0.000000
    49  Si    c     0.961574    0.112411    0.963291    0.000000
    50  Si    c     0.854112    0.833207    0.298217    0.000000
    51  Si    c     0.131838    0.016197    0.632490    0.000000
    52  Ge    c     0.004882    0.861607    0.465817    0.000000
    53  Si    c     0.107227    0.138606    0.798125    0.000000
    54  Si    c     0.825091    0.958641    0.131558    0.000000
    55  Si    c     0.099819    0.958459    0.362728    0.000000
    56  Si    c     0.833862    0.874462    0.029818    0.000000
    57  Si    c     0.011876    0.139011    0.697452    0.000000
    58  Si    c     0.863824    0.015429    0.863145    0.000000
    59  Si    c     0.127714    0.109067    0.531850    0.000000
    60  Si    c     0.942323    0.834565    0.196389    0.000000
    61  O2    c     0.916129    0.999165    0.999525    0.000000
    62  O2    c     0.981513    0.916479    0.327937    0.000000
    63  O2    c     0.051905    0.058765    0.664543    0.000000
    64  O3    c     0.041237    0.989382    0.500427    0.000000
    65  O2    c     0.985232    0.059463    0.830427    0.000000
    66  O2    c     0.911030    0.924031    0.164515    0.000000
    67  O2    c     0.318338    0.563933    0.332297    0.000000
    68  O2    c     0.402399    0.750613    0.664665    0.000000
    69  O2    c     0.219439    0.647726    0.993584    0.000000
    70  O2    c     0.645972    0.408893    0.831605    0.000000
    71  O2    c     0.552312    0.221037    0.168515    0.000000
    72  O2    c     0.737729    0.322516    0.499036    0.000000
    73  O3    c     0.564112    0.333545    0.998186    0.000000
    74  O2    c     0.742956    0.408919    0.665631    0.000000
    75  O2    c     0.638384    0.224138    0.332513    0.000000
    76  O2    c     0.397805    0.640777    0.499056    0.000000
    77  O3    c     0.219750    0.565891    0.167441    0.000000
    78  O2    c     0.323949    0.748210    0.829921    0.000000
    79  O2    c     0.115936    0.202710    0.968508    0.000000
    80  O2    c     0.763872    0.896553    0.305183    0.000000
    81  O2    c     0.067664    0.861922    0.636251    0.000000
    82  O3    c     0.841638    0.762096    0.474090    0.000000
    83  O2    c     0.197918    0.075401    0.804073    0.000000
    84  O2    c     0.881607    0.110952    0.135661    0.000000
    85  O2    c     0.193368    0.111669    0.356244    0.000000
    86  O2    c     0.907400    0.793571    0.025336    0.000000
    87  O2    c     0.857293    0.076877    0.692195    0.000000
    88  O2    c     0.772033    0.862210    0.856943    0.000000
    89  O2    c     0.066943    0.201725    0.527593    0.000000
    90  O2    c     0.096275    0.889340    0.193046    0.000000
    91  O2    c     0.897757    0.841455    0.246678    0.000000
    92  O2    c     0.121001    0.058199    0.582238    0.000000
    93  O2    c     0.918533    0.050612    0.913887    0.000000
    94  O2    c     0.053494    0.124265    0.747504    0.000000
    95  O2    c     0.836574    0.918471    0.081205    0.000000
    96  O3    c     0.041758    0.923166    0.412046    0.000000
    97  O2    c     0.894960    0.197282    0.973021    0.000000
    98  O2    c     0.775048    0.683721    0.312520    0.000000
    99  O2    c     0.283475    0.084952    0.645152    0.000000
   100  O3    c     0.081559    0.776091    0.476725    0.000000
   101  O2    c     0.190025    0.289854    0.809594    0.000000
   102  O2    c     0.674218    0.886344    0.145577    0.000000
   103  O2    c     0.181432    0.886930    0.352641    0.000000
   104  O2    c     0.683442    0.789603    0.015840    0.000000
   105  O2    c     0.080724    0.290752    0.686047    0.000000
   106  O2    c     0.781612    0.085407    0.851876    0.000000
   107  O2    c     0.278114    0.185153    0.517172    0.000000
   108  O2    c     0.864071    0.685725    0.181212    0.000000
   109  O2    c     0.300154    0.629175    0.249950    0.000000
   110  O2    c     0.336205    0.663392    0.582328    0.000000
   111  O2    c     0.303884    0.664546    0.911821    0.000000
   112  O2    c     0.662039    0.342637    0.748692    0.000000
   113  O3    c     0.603115    0.295287    0.083335    0.000000
   114  O2    c     0.656429    0.306985    0.415124    0.000000
   115  O2    c     0.362480    0.323710    0.966702    0.000000
   116  O2    c     0.647437    0.028926    0.303366    0.000000
   117  O2    c     0.936225    0.614098    0.634930    0.000000
   118  O2    c     0.598161    0.648111    0.468895    0.000000
   119  O2    c     0.313990    0.943821    0.801948    0.000000
   120  O3    c     0.015467    0.355647    0.131361    0.000000
   121  O2    c     0.308179    0.358360    0.359819    0.000000
   122  O2    c     0.023675    0.659783    0.025030    0.000000
   123  O2    c     0.609353    0.945716    0.693788    0.000000
   124  O2    c     0.655534    0.615367    0.859204    0.000000
   125  O2    c     0.933862    0.315342    0.528864    0.000000
   126  O2    c     0.346125    0.021713    0.195058    0.000000
   127  O3    c     0.749953    0.282467    0.001538    0.000000
   128  O2    c     0.676133    0.453065    0.342699    0.000000
   129  O2    c     0.515611    0.217205    0.675851    0.000000
   130  O2    c     0.209404    0.680072    0.509516    0.000000
   131  O2    c     0.288515    0.520809    0.839059    0.000000
   132  O2    c     0.444876    0.756599    0.176613    0.000000
   133  O2    c     0.279623    0.753949    0.322157    0.000000
   134  O2    c     0.450762    0.687916    0.984931    0.000000
   135  O2    c     0.210437    0.522667    0.654994    0.000000
   136  O2    c     0.682582    0.217655    0.820966    0.000000
   137  O2    c     0.507629    0.283181    0.486620    0.000000
   138  O2    c     0.735292    0.452631    0.149841    0.000000
   139  O3    c     0.766304    0.543123    0.019026    0.000000
   140  O2    c     0.444346    0.235412    0.358782    0.000000
   141  O2    c     0.734398    0.204578    0.693195    0.000000
   142  O2    c     0.194542    0.450115    0.527774    0.000000
   143  O2    c     0.519891    0.739092    0.857010    0.000000
   144  O2    c     0.220451    0.762643    0.193430    0.000000
   145  O2    c     0.512562    0.771596    0.304854    0.000000
   146  O2    c     0.233749    0.454443    0.968161    0.000000
   147  O2    c     0.195984    0.738613    0.635442    0.000000
   148  O2    c     0.450404    0.202292    0.803745    0.000000
   149  O2    c     0.724098    0.514183    0.471321    0.000000
   150  O2    c     0.761769    0.244440    0.133943    0.000000
   151  O2    c     0.216503    0.314181    0.894264    0.000000
   152  O2    c     0.654542    0.895653    0.230833    0.000000
   153  O2    c     0.067636    0.753355    0.561542    0.000000
   154  O2    c     0.748245    0.659070    0.397795    0.000000
   155  O2    c     0.306210    0.078620    0.729760    0.000000
   156  O2    c     0.880628    0.220710    0.059918    0.000000
   157  O2    c     0.298926    0.213691    0.432047    0.000000
   158  O2    c     0.881359    0.658999    0.096170    0.000000
   159  O2    c     0.752583    0.080031    0.766902    0.000000
   160  O2    c     0.661736    0.757703    0.931438    0.000000
   161  O2    c     0.070797    0.311680    0.601809    0.000000
   162  O2    c     0.205637    0.888254    0.267687    0.000000
   163  O2    c     0.571210    0.551267    0.987780    0.000000
   164  O2    c     0.418252    0.011090    0.323179    0.000000
   165  O2    c     0.952697    0.402614    0.656261    0.000000
   166  O2    c     0.385175    0.420514    0.488117    0.000000
   167  O2    c     0.543024    0.959660    0.821868    0.000000
   168  O3    c     0.989217    0.570513    0.154078    0.000000
   169  O2    c     0.537770    0.574438    0.342298    0.000000
   170  O2    c     0.004623    0.430858    0.007237    0.000000
   171  O2    c     0.393952    0.958726    0.673977    0.000000
   172  O2    c     0.427781    0.400688    0.840296    0.000000
   173  O2    c     0.947657    0.541291    0.507410    0.000000
   174  O2    c     0.564975    0.014578    0.175640    0.000000
   175  O2    c     0.556218    0.146917    0.249967    0.000000
   176  O2    c     0.812557    0.403566    0.582144    0.000000
   177  O2    c     0.572916    0.412754    0.914640    0.000000
   178  O2    c     0.400442    0.822973    0.747656    0.000000
   179  O3    c     0.143624    0.577547    0.077459    0.000000
   180  O2    c     0.389215    0.562689    0.415317    0.000000
   181  F     c     0.424021    0.883850    0.247899    0.000000
   182  F     c     0.075156    0.535782    0.581032    0.000000
   183  F     c     0.433987    0.541350    0.912178    0.000000
   184  F     c     0.531777    0.083673    0.747562    0.000000
   185  F     c     0.845235    0.429915    0.071061    0.000000
   186  F     c     0.524183    0.434377    0.414234    0.000000
   187  O2    s     0.911849    0.997704    0.998898    0.000000
   188  O2    s     0.980091    0.911622    0.328397    0.000000
   189  O2    s     0.056371    0.062918    0.664623    0.000000
   190  O3    s     0.047438    0.991181    0.500805    0.000000
   191  O2    s     0.985278    0.063415    0.830478    0.000000
   192  O2    s     0.905124    0.918010    0.164423    0.000000
   193  O2    s     0.330126    0.571604    0.332254    0.000000
   194  O2    s     0.394653    0.754588    0.664608    0.000000
   195  O2    s     0.215149    0.636255    0.993852    0.000000
   196  O2    s     0.634232    0.401340    0.831475    0.000000
   197  O2    s     0.558729    0.216130    0.167937    0.000000
   198  O2    s     0.741827    0.334378    0.498886    0.000000
   199  O3    s     0.568878    0.344809    0.997191    0.000000
   200  O2    s     0.747379    0.401488    0.665580    0.000000
   201  O2    s     0.626449    0.219742    0.332511    0.000000
   202  O2    s     0.389949    0.628925    0.499069    0.000000
   203  O3    s     0.217316    0.574143    0.167687    0.000000
   204  O2    s     0.335971    0.752729    0.829954    0.000000
   205  O2    s     0.111788    0.206026    0.965938    0.000000
   206  O2    s     0.760247    0.889935    0.302382    0.000000
   207  O2    s     0.074446    0.865216    0.633811    0.000000
   208  O3    s     0.842994    0.757781    0.471186    0.000000
   209  O2    s     0.201414    0.082188    0.801390    0.000000
   210  O2    s     0.875620    0.107453    0.133021    0.000000
   211  O2    s     0.196567    0.108566    0.359145    0.000000
   212  O2    s     0.897939    0.788180    0.027411    0.000000
   213  O2    s     0.860858    0.083634    0.694840    0.000000
   214  O2    s     0.768762    0.865698    0.859650    0.000000
   215  O2    s     0.073500    0.205101    0.530148    0.000000
   216  O2    s     0.093065    0.883546    0.195480    0.000000
   217  O2    s     0.897910    0.839753    0.246787    0.000000
   218  O2    s     0.123005    0.059168    0.582278    0.000000
   219  O2    s     0.917281    0.053652    0.913789    0.000000
   220  O2    s     0.054812    0.127570    0.747507    0.000000
   221  O2    s     0.834958    0.918214    0.081287    0.000000
   222  O3    s     0.044900    0.921680    0.411314    0.000000
   223  O2    s     0.900828    0.197450    0.976011    0.000000
   224  O2    s     0.773488    0.689740    0.314921    0.000000
   225  O2    s     0.277171    0.077439    0.647726    0.000000
   226  O3    s     0.074585    0.774077    0.479553    0.000000
   227  O2    s     0.191156    0.283612    0.812286    0.000000
   228  O2    s     0.680459    0.894352    0.148074    0.000000
   229  O2    s     0.182836    0.894263    0.349764    0.000000
   230  O2    s     0.689823    0.788577    0.013496    0.000000
   231  O2    s     0.073191    0.284738    0.683354    0.000000
   232  O2    s     0.780273    0.077943    0.849155    0.000000
   233  O2    s     0.272133    0.187299    0.514719    0.000000
   234  O2    s     0.872821    0.691689    0.179015    0.000000
   235  O2    s     0.306139    0.641118    0.249980    0.000000
   236  O2    s     0.324235    0.657583    0.582257    0.000000
   237  O2    s     0.310214    0.658747    0.911938    0.000000
   238  O2    s     0.656216    0.331052    0.748648    0.000000
   239  O3    s     0.615784    0.301268    0.085245    0.000000
   240  O2    s     0.650379    0.312636    0.415129    0.000000
   241  O2    s     0.364642    0.333095    0.964623    0.000000
   242  O2    s     0.637442    0.022179    0.301190    0.000000
   243  O2    s     0.942918    0.610854    0.632749    0.000000
   244  O2    s     0.594646    0.637877    0.466795    0.000000
   245  O2    s     0.324042    0.950623    0.799723    0.000000
   246  O3    s     0.007960    0.356694    0.129634    0.000000
   247  O2    s     0.318170    0.361641    0.362185    0.000000
   248  O2    s     0.017718    0.650766    0.026757    0.000000
   249  O2    s     0.605973    0.952347    0.696098    0.000000
   250  O2    s     0.645683    0.612190    0.861525    0.000000
   251  O2    s     0.940632    0.325494    0.531091    0.000000
   252  O2    s     0.349384    0.015315    0.197387    0.000000
   253  O3    s     0.760724    0.289115    0.004805    0.000000
   254  O2    s     0.668551    0.452301    0.345841    0.000000
   255  O2    s     0.516259    0.210194    0.678997    0.000000
   256  O2    s     0.202215    0.672238    0.512650    0.000000
   257  O2    s     0.296095    0.521462    0.842388    0.000000
   258  O2    s     0.444555    0.763679    0.179845    0.000000
   259  O2    s     0.287281    0.760968    0.319041    0.000000
   260  O2    s     0.449998    0.680037    0.981835    0.000000
   261  O2    s     0.203379    0.522956    0.651903    0.000000
   262  O2    s     0.674878    0.210676    0.817895    0.000000
   263  O2    s     0.508518    0.291071    0.483609    0.000000
   264  O2    s     0.742415    0.452527    0.147440    0.000000
   265  O3    s     0.775762    0.544656    0.022340    0.000000
   266  O2    s     0.447106    0.243416    0.361441    0.000000
   267  O2    s     0.726269    0.199278    0.695791    0.000000
   268  O2    s     0.189239    0.453035    0.530381    0.000000
   269  O2    s     0.517166    0.730932    0.859679    0.000000
   270  O2    s     0.228742    0.768531    0.196063    0.000000
   271  O2    s     0.509701    0.776460    0.302247    0.000000
   272  O2    s     0.241991    0.457540    0.965507    0.000000
   273  O2    s     0.190643    0.730586    0.633040    0.000000
   274  O2    s     0.453136    0.197260    0.801146    0.000000
   275  O2    s     0.716147    0.511176    0.468678    0.000000
   276  O2    s     0.765128    0.249478    0.131619    0.000000
   277  O2    s     0.226435    0.323736    0.895118    0.000000
   278  O2    s     0.644860    0.895218    0.231684    0.000000
   279  O2    s     0.068361    0.744268    0.562584    0.000000
   280  O2    s     0.738256    0.649515    0.398410    0.000000
   281  O2    s     0.316029    0.078895    0.730629    0.000000
   282  O2    s     0.880925    0.228732    0.060859    0.000000
   283  O2    s     0.308625    0.223185    0.431227    0.000000
   284  O2    s     0.880925    0.651138    0.095797    0.000000
   285  O2    s     0.743129    0.080268    0.766003    0.000000
   286  O2    s     0.652063    0.748339    0.930528    0.000000
   287  O2    s     0.071103    0.321232    0.600878    0.000000
   288  O2    s     0.215018    0.888208    0.266767    0.000000
   289  O2    s     0.567535    0.552234    0.984474    0.000000
   290  O2    s     0.418115    0.006631    0.319850    0.000000
   291  O2    s     0.957504    0.406905    0.652929    0.000000
   292  O2    s     0.390024    0.420511    0.484806    0.000000
   293  O2    s     0.543329    0.964477    0.818522    0.000000
   294  O3    s     0.985080    0.568202    0.151154    0.000000
   295  O2    s     0.537845    0.569345    0.345528    0.000000
   296  O2    s     0.001492    0.431463    0.009705    0.000000
   297  O2    s     0.398854    0.963714    0.677415    0.000000
   298  O2    s     0.427512    0.405567    0.843551    0.000000
   299  O2    s     0.952735    0.541605    0.510819    0.000000
   300  O2    s     0.560031    0.009353    0.178976    0.000000
   301  O2    s     0.551045    0.136135    0.250005    0.000000
   302  O2    s     0.823589    0.409000    0.582087    0.000000
   303  O2    s     0.567439    0.417425    0.914296    0.000000
   304  O2    s     0.405976    0.833937    0.747632    0.000000
   305  O3    s     0.134574    0.572751    0.076936    0.000000
   306  O2    s     0.395231    0.557542    0.415287    0.000000
   307  F     s     0.423402    0.882998    0.247720    0.000000
   308  F     s     0.075577    0.536116    0.580896    0.000000
   309  F     s     0.433298    0.541983    0.912064    0.000000
   310  F     s     0.531943    0.084003    0.747469    0.000000
   311  F     s     0.835101    0.426257    0.068574    0.000000
   312  F     s     0.524354    0.434160    0.414146    0.000000
--------------------------------------------------------------------------------

  Final Cartesian lattice vectors (Angstroms) :

       11.939291   -0.011955   -0.023148
       -6.031371   10.413121   -0.000076
       -0.098801   -0.055019   29.478761


  Final cell parameters and derivatives :

--------------------------------------------------------------------------------
       a           11.939320 Angstrom     dE/de1(xx)     0.000176 eV/strain
       b           12.033725 Angstrom     dE/de2(yy)     0.000431 eV/strain
       c           29.478978 Angstrom     dE/de3(zz)     0.000916 eV/strain
       alpha       89.996652 Degrees      dE/de4(yz)    -0.000083 eV/strain
       beta        90.303011 Degrees      dE/de5(xz)    -0.000312 eV/strain
       gamma      120.137107 Degrees      dE/de6(xy)    -0.000092 eV/strain
--------------------------------------------------------------------------------

  Primitive cell volume =          3662.798177 Angs**3

  Density of cell =      1.746777 g/cm**3

  Non-primitive cell volume =          3662.798177 Angs**3


  Final internal derivatives :

--------------------------------------------------------------------------------
   No.  Atomic          a             b             c           Radius
        Label          (eV)          (eV)          (eV)        (eV/Angs)
--------------------------------------------------------------------------------
      1 Ge    c       0.000000      0.000000      0.000000      0.000000
      2 Si    c      -0.000162     -0.000026      0.000008      0.000000
      3 Si    c       0.000032      0.000004     -0.000207      0.000000
      4 Si    c       0.000067     -0.000035      0.000211      0.000000
      5 Si    c       0.000127      0.000003      0.000015      0.000000
      6 Si    c      -0.000068     -0.000202     -0.000502      0.000000
      7 Si    c      -0.000000     -0.000114     -0.000469      0.000000
      8 Si    c       0.000232     -0.000114     -0.000316      0.000000
      9 Si    c      -0.000035      0.000029      0.000095      0.000000
     10 Si    c      -0.000063      0.000094     -0.000280      0.000000
     11 Si    c       0.000008      0.000205     -0.000320      0.000000
     12 Si    c       0.001505      0.000528      0.008755      0.000000
     13 Si    c      -0.000308     -0.000754      0.000278      0.000000
     14 Si    c       0.000054     -0.000252      0.000591      0.000000
     15 Si    c      -0.000057      0.000135     -0.000132      0.000000
     16 Si    c       0.000115      0.000158     -0.000047      0.000000
     17 Si    c       0.000010      0.000089      0.000112      0.000000
     18 Ge    c      -0.000163      0.000084     -0.000552      0.000000
     19 Si    c       0.000079      0.000001      0.000269      0.000000
     20 Si    c       0.000006      0.000220     -0.000086      0.000000
     21 Si    c       0.000087     -0.000050      0.000127      0.000000
     22 Si    c      -0.000060     -0.000037     -0.000018      0.000000
     23 Si    c       0.000131     -0.000025     -0.000021      0.000000
     24 Si    c      -0.000112     -0.000222      0.000775      0.000000
     25 Si    c       0.000092     -0.000116      0.000432      0.000000
     26 Si    c       0.000087     -0.000039     -0.000626      0.000000
     27 Si    c       0.000115     -0.000017     -0.000200      0.000000
     28 Si    c       0.000004      0.000117      0.000400      0.000000
     29 Si    c       0.000063      0.000023      0.000017      0.000000
     30 Si    c       0.001315      0.000007      0.000304      0.000000
     31 Si    c       0.000044      0.000164      0.000006      0.000000
     32 Si    c       0.000514     -0.000144      0.000597      0.000000
     33 Si    c      -0.000037      0.000231     -0.000126      0.000000
     34 Si    c       0.000112      0.000008     -0.000325      0.000000
     35 Si    c       0.000078      0.000025      0.000412      0.000000
     36 Si    c      -0.000089     -0.000250      0.000003      0.000000
     37 Si    c       0.000309      0.000029     -0.000279      0.000000
     38 Si    c       0.000028     -0.000204     -0.000359      0.000000
     39 Si    c       0.000028      0.000119     -0.000453      0.000000
     40 Si    c       0.000314      0.000361      0.000145      0.000000
     41 Si    c      -0.000049     -0.000015     -0.000041      0.000000
     42 Si    c       0.000672      0.000236      0.001159      0.000000
     43 Si    c      -0.000017      0.000064      0.000332      0.000000
     44 Si    c       0.000578      0.000441     -0.001077      0.000000
     45 Si    c       0.000124      0.000064      0.000365      0.000000
     46 Si    c       0.000019     -0.000112      0.000363      0.000000
     47 Si    c       0.000158     -0.000079      0.000175      0.000000
     48 Si    c      -0.000015     -0.000081      0.000148      0.000000
     49 Si    c       0.000023     -0.000249      0.000266      0.000000
     50 Si    c      -0.000154     -0.000133     -0.000547      0.000000
     51 Si    c      -0.000073      0.000034      0.000205      0.000000
     52 Ge    c       0.000334      0.000384      0.000024      0.000000
     53 Si    c       0.000085      0.000106     -0.000045      0.000000
     54 Si    c       0.000186     -0.000093      0.000390      0.000000
     55 Si    c      -0.000236     -0.000096     -0.000034      0.000000
     56 Si    c      -0.000106     -0.000373      0.000482      0.000000
     57 Si    c       0.000034     -0.000028     -0.000072      0.000000
     58 Si    c       0.000136      0.000007     -0.000672      0.000000
     59 Si    c       0.000127      0.000004      0.000237      0.000000
     60 Si    c       0.000203     -0.000043      0.000298      0.000000
     61 O2    c       0.000347     -0.001349      0.001963      0.000000
     62 O2    c      -0.000278     -0.000034     -0.000413      0.000000
     63 O2    c       0.000071      0.000052      0.000048      0.000000
     64 O3    c       0.000214     -0.000104     -0.000220      0.000000
     65 O2    c       0.000257      0.000071     -0.000396      0.000000
     66 O2    c      -0.000129     -0.000128      0.000128      0.000000
     67 O2    c       0.000056      0.000103      0.000106      0.000000
     68 O2    c      -0.000043     -0.000091     -0.000721      0.000000
     69 O2    c       0.000658     -0.000161      0.000009      0.000000
     70 O2    c      -0.000056     -0.000128      0.000021      0.000000
     71 O2    c       0.000605     -0.000431     -0.001356      0.000000
     72 O2    c      -0.000103     -0.000020     -0.000097      0.000000
     73 O3    c       0.000257     -0.000625      0.000744      0.000000
     74 O2    c      -0.000067     -0.000046      0.000652      0.000000
     75 O2    c       0.000039      0.000079     -0.000096      0.000000
     76 O2    c      -0.000224      0.000021     -0.000209      0.000000
     77 O3    c       0.000366     -0.000265      0.001088      0.000000
     78 O2    c      -0.000041      0.000043      0.000472      0.000000
     79 O2    c       0.000393      0.000111     -0.000202      0.000000
     80 O2    c       0.000032      0.000047      0.000813      0.000000
     81 O2    c       0.000060      0.000100      0.000200      0.000000
     82 O3    c       0.000268      0.000061     -0.000357      0.000000
     83 O2    c       0.000028     -0.000096      0.000280      0.000000
     84 O2    c       0.000261     -0.000561     -0.000140      0.000000
     85 O2    c       0.000167      0.000012     -0.000139      0.000000
     86 O2    c       0.000432     -0.000189     -0.000917      0.000000
     87 O2    c       0.000057      0.000003      0.000043      0.000000
     88 O2    c      -0.000063     -0.000073     -0.000012      0.000000
     89 O2    c       0.000135     -0.000092     -0.000400      0.000000
     90 O2    c       0.000096      0.000202      0.000017      0.000000
     91 O2    c       0.000273     -0.000025      0.000071      0.000000
     92 O2    c       0.000102      0.000053      0.000113      0.000000
     93 O2    c      -0.000076      0.000126     -0.000539      0.000000
     94 O2    c      -0.000138      0.000164      0.000471      0.000000
     95 O2    c      -0.000058      0.000307     -0.000048      0.000000
     96 O3    c       0.000071     -0.000108      0.001424      0.000000
     97 O2    c      -0.000102     -0.000108     -0.001208      0.000000
     98 O2    c       0.000047      0.000266     -0.000536      0.000000
     99 O2    c      -0.000126      0.000048      0.000045      0.000000
    100 O3    c      -0.000463      0.000307      0.000280      0.000000
    101 O2    c      -0.000107     -0.000127     -0.000175      0.000000
    102 O2    c       0.000295     -0.000112      0.000345      0.000000
    103 O2    c      -0.000050      0.000266     -0.000218      0.000000
    104 O2    c       0.000121      0.000074     -0.000032      0.000000
    105 O2    c       0.000020     -0.000276     -0.000002      0.000000
    106 O2    c      -0.000146     -0.000010     -0.000112      0.000000
    107 O2    c      -0.000164      0.000064      0.000181      0.000000
    108 O2    c       0.000201     -0.000118      0.000831      0.000000
    109 O2    c      -0.000212      0.000107     -0.000796      0.000000
    110 O2    c       0.000076      0.000247      0.000835      0.000000
    111 O2    c       0.000318     -0.000105     -0.000878      0.000000
    112 O2    c       0.000228     -0.000127     -0.000571      0.000000
    113 O3    c      -0.003532     -0.000433      0.005563      0.000000
    114 O2    c      -0.000147      0.000124     -0.000028      0.000000
    115 O2    c       0.000159      0.000017     -0.000083      0.000000
    116 O2    c       0.000298     -0.000260     -0.000180      0.000000
    117 O2    c      -0.000054      0.000172      0.000327      0.000000
    118 O2    c      -0.000058     -0.000138     -0.000467      0.000000
    119 O2    c      -0.000104      0.000133     -0.000054      0.000000
    120 O3    c       0.000319      0.000140      0.000665      0.000000
    121 O2    c       0.000120      0.000105     -0.000134      0.000000
    122 O2    c       0.000180      0.000463      0.001623      0.000000
    123 O2    c       0.000145     -0.000103     -0.000124      0.000000
    124 O2    c      -0.000086     -0.000046     -0.000166      0.000000
    125 O2    c       0.000210     -0.000216      0.000349      0.000000
    126 O2    c      -0.000522      0.000151      0.000004      0.000000
    127 O3    c       0.001185     -0.000742     -0.002134      0.000000
    128 O2    c      -0.000271      0.000139      0.000723      0.000000
    129 O2    c      -0.000218      0.000270     -0.000366      0.000000
    130 O2    c       0.000257     -0.000092      0.000132      0.000000
    131 O2    c       0.000268     -0.000164      0.001248      0.000000
    132 O2    c       0.000362     -0.000420     -0.000038      0.000000
    133 O2    c       0.000185     -0.000089     -0.000280      0.000000
    134 O2    c       0.000555     -0.000288     -0.000177      0.000000
    135 O2    c       0.000326     -0.000200      0.000242      0.000000
    136 O2    c      -0.000232      0.000111     -0.000317      0.000000
    137 O2    c      -0.000099      0.000118     -0.000488      0.000000
    138 O2    c      -0.000096      0.000322      0.002754      0.000000
    139 O3    c      -0.000712      0.001543     -0.001410      0.000000
    140 O2    c      -0.000088      0.000123      0.000390      0.000000
    141 O2    c       0.000108     -0.000045     -0.000006      0.000000
    142 O2    c       0.000080     -0.000107     -0.000941      0.000000
    143 O2    c       0.000096     -0.000177      0.000690      0.000000
    144 O2    c       0.000017      0.000296      0.000356      0.000000
    145 O2    c       0.000134     -0.000079      0.000878      0.000000
    146 O2    c       0.000102     -0.000130      0.000172      0.000000
    147 O2    c       0.000061      0.000220      0.000194      0.000000
    148 O2    c      -0.000057     -0.000025      0.000619      0.000000
    149 O2    c      -0.000065      0.000036     -0.000403      0.000000
    150 O2    c       0.000339     -0.000741      0.002223      0.000000
    151 O2    c       0.000065      0.000097     -0.000173      0.000000
    152 O2    c      -0.000011      0.000144     -0.000995      0.000000
    153 O2    c       0.000066     -0.000156     -0.000965      0.000000
    154 O2    c      -0.000156     -0.000191      0.000413      0.000000
    155 O2    c       0.000028     -0.000125     -0.000408      0.000000
    156 O2    c       0.000922     -0.000728      0.002945      0.000000
    157 O2    c       0.000239     -0.000087      0.000390      0.000000
    158 O2    c       0.000854      0.000542      0.004398      0.000000
    159 O2    c      -0.000119     -0.000046      0.000602      0.000000
    160 O2    c      -0.000296      0.000030      0.000429      0.000000
    161 O2    c      -0.000284      0.000113      0.000640      0.000000
    162 O2    c       0.000374      0.000029     -0.000138      0.000000
    163 O2    c      -0.000109      0.000099     -0.000688      0.000000
    164 O2    c      -0.000238      0.000147     -0.000378      0.000000
    165 O2    c      -0.000138     -0.000128     -0.000596      0.000000
    166 O2    c       0.000044      0.000232     -0.000449      0.000000
    167 O2    c       0.000129     -0.000028     -0.000122      0.000000
    168 O3    c       0.001299      0.000449      0.000717      0.000000
    169 O2    c      -0.000141     -0.000165      0.000571      0.000000
    170 O2    c       0.000617      0.000759      0.000750      0.000000
    171 O2    c      -0.000057     -0.000114      0.000264      0.000000
    172 O2    c       0.000179      0.000068      0.000487      0.000000
    173 O2    c      -0.000119      0.000317      0.000230      0.000000
    174 O2    c       0.000093      0.000437      0.000287      0.000000
    175 O2    c       0.000186      0.000011      0.000487      0.000000
    176 O2    c       0.000181     -0.000104     -0.000192      0.000000
    177 O2    c      -0.000285      0.000085     -0.000229      0.000000
    178 O2    c      -0.000025      0.000080     -0.000014      0.000000
    179 O3    c       0.000470      0.000175     -0.000051      0.000000
    180 O2    c       0.000246     -0.000114      0.000058      0.000000
    181 F     c      -0.000139      0.000211      0.000287      0.000000
    182 F     c      -0.000216      0.000016     -0.000064      0.000000
    183 F     c       0.000064      0.000015     -0.000107      0.000000
    184 F     c       0.000071     -0.000141      0.000316      0.000000
    185 F     c       0.000732      0.000237     -0.003351      0.000000
    186 F     c       0.000120      0.000058     -0.000104      0.000000
    187 O2    s       0.000325     -0.001235      0.001760      0.000000
    188 O2    s      -0.000242     -0.000033     -0.000426      0.000000
    189 O2    s       0.000101     -0.000015      0.000092      0.000000
    190 O3    s       0.000238     -0.000301     -0.000524      0.000000
    191 O2    s       0.000285      0.000136     -0.000686      0.000000
    192 O2    s      -0.000037     -0.000202      0.000380      0.000000
    193 O2    s      -0.000010      0.000087     -0.000019      0.000000
    194 O2    s      -0.000304     -0.000330     -0.000971      0.000000
    195 O2    s       0.000583     -0.000075     -0.000410      0.000000
    196 O2    s      -0.000052     -0.000020     -0.000177      0.000000
    197 O2    s       0.001683      0.000396     -0.001210      0.000000
    198 O2    s       0.000058     -0.000049      0.000010      0.000000
    199 O3    s       0.000880      0.000366     -0.000468      0.000000
    200 O2    s      -0.000220     -0.000286      0.000878      0.000000
    201 O2    s       0.000064     -0.000060     -0.000085      0.000000
    202 O2    s      -0.000068     -0.000007      0.000103      0.000000
    203 O3    s       0.000862      0.000343      0.001752      0.000000
    204 O2    s      -0.000111      0.000035      0.000409      0.000000
    205 O2    s       0.000427      0.000223     -0.000218      0.000000
    206 O2    s      -0.000053     -0.000022      0.000670      0.000000
    207 O2    s       0.000088      0.000050      0.000124      0.000000
    208 O3    s      -0.000219     -0.000311     -0.000573      0.000000
    209 O2    s       0.000045     -0.000022      0.000105      0.000000
    210 O2    s       0.000298     -0.000240     -0.000189      0.000000
    211 O2    s       0.000225      0.000084     -0.000039      0.000000
    212 O2    s       0.000080     -0.000106     -0.001067      0.000000
    213 O2    s       0.000054     -0.000001      0.000255      0.000000
    214 O2    s      -0.000011     -0.000006      0.000043      0.000000
    215 O2    s       0.000165     -0.000076     -0.000289      0.000000
    216 O2    s      -0.000056      0.000289      0.000436      0.000000
    217 O2    s       0.000384     -0.000041      0.000020      0.000000
    218 O2    s       0.000212     -0.000010      0.000091      0.000000
    219 O2    s      -0.000247      0.000274     -0.000203      0.000000
    220 O2    s      -0.000126      0.000221      0.000095      0.000000
    221 O2    s      -0.000361      0.000280      0.000253      0.000000
    222 O3    s      -0.000005     -0.000235      0.001395      0.000000
    223 O2    s       0.000079      0.000197     -0.000843      0.000000
    224 O2    s       0.000302      0.000578     -0.001154      0.000000
    225 O2    s      -0.000117      0.000008      0.000114      0.000000
    226 O3    s      -0.000295      0.000446      0.000119      0.000000
    227 O2    s      -0.000223     -0.000360     -0.000475      0.000000
    228 O2    s       0.000118     -0.000068      0.000136      0.000000
    229 O2    s      -0.000184      0.000123     -0.000197      0.000000
    230 O2    s       0.000488     -0.000175      0.000251      0.000000
    231 O2    s       0.000017     -0.000207      0.000173      0.000000
    232 O2    s      -0.000038      0.000016     -0.000337      0.000000
    233 O2    s      -0.000416     -0.000016      0.000674      0.000000
    234 O2    s       0.000281     -0.000103      0.001208      0.000000
    235 O2    s      -0.000280      0.000160     -0.000660      0.000000
    236 O2    s       0.000176      0.000180      0.000687      0.000000
    237 O2    s       0.000703     -0.000324     -0.000776      0.000000
    238 O2    s       0.000220     -0.000088     -0.000542      0.000000
    239 O3    s       0.001802      0.001610     -0.000543      0.000000
    240 O2    s      -0.000322      0.000266     -0.000139      0.000000
    241 O2    s       0.000111      0.000136     -0.000136      0.000000
    242 O2    s       0.000311     -0.000301     -0.000273      0.000000
    243 O2    s      -0.000168      0.000030      0.000454      0.000000
    244 O2    s      -0.000127     -0.000053     -0.000335      0.000000
    245 O2    s      -0.000111      0.000124     -0.000129      0.000000
    246 O3    s       0.000426     -0.000468      0.001060      0.000000
    247 O2    s       0.000064      0.000112      0.000001      0.000000
    248 O2    s      -0.000077      0.000597      0.001506      0.000000
    249 O2    s       0.000063     -0.000283     -0.000121      0.000000
    250 O2    s       0.000006     -0.000094      0.000231      0.000000
    251 O2    s       0.000230     -0.000220      0.000554      0.000000
    252 O2    s      -0.000470      0.000277      0.000136      0.000000
    253 O3    s       0.000085      0.001026      0.001272      0.000000
    254 O2    s      -0.000298      0.000142      0.001001      0.000000
    255 O2    s      -0.000275      0.000291     -0.000587      0.000000
    256 O2    s       0.000145     -0.000050      0.000096      0.000000
    257 O2    s       0.000404     -0.000161      0.001852      0.000000
    258 O2    s       0.000391     -0.000339     -0.000475      0.000000
    259 O2    s       0.000205     -0.000170     -0.000326      0.000000
    260 O2    s       0.000597     -0.000499     -0.000576      0.000000
    261 O2    s       0.000224     -0.000251      0.000530      0.000000
    262 O2    s      -0.000173      0.000096     -0.000454      0.000000
    263 O2    s      -0.000170      0.000220     -0.000570      0.000000
    264 O2    s      -0.000471     -0.000381      0.004109      0.000000
    265 O3    s      -0.001002      0.000801     -0.001541      0.000000
    266 O2    s       0.000009      0.000230      0.000669      0.000000
    267 O2    s       0.000105     -0.000083     -0.000027      0.000000
    268 O2    s       0.000408     -0.000138     -0.001000      0.000000
    269 O2    s       0.000105     -0.000371      0.001363      0.000000
    270 O2    s       0.000220      0.000130      0.000375      0.000000
    271 O2    s       0.000033     -0.000191      0.000865      0.000000
    272 O2    s       0.000272     -0.000146     -0.000267      0.000000
    273 O2    s      -0.000071      0.000236      0.000293      0.000000
    274 O2    s      -0.000090      0.000154      0.000593      0.000000
    275 O2    s      -0.000109      0.000036     -0.000549      0.000000
    276 O2    s      -0.000240     -0.000088      0.003152      0.000000
    277 O2    s       0.000132      0.000242     -0.000300      0.000000
    278 O2    s      -0.000030      0.000154     -0.000894      0.000000
    279 O2    s       0.000078     -0.000041     -0.000753      0.000000
    280 O2    s      -0.000138     -0.000177      0.000015      0.000000
    281 O2    s      -0.000046     -0.000069     -0.000296      0.000000
    282 O2    s       0.001317     -0.000587      0.001434      0.000000
    283 O2    s       0.000287     -0.000051      0.000435      0.000000
    284 O2    s       0.001064      0.001235      0.001305      0.000000
    285 O2    s      -0.000012     -0.000037      0.000402      0.000000
    286 O2    s      -0.000199     -0.000130      0.000446      0.000000
    287 O2    s      -0.000310      0.000187      0.000370      0.000000
    288 O2    s       0.000285      0.000099      0.000127      0.000000
    289 O2    s       0.000400     -0.000144     -0.001019      0.000000
    290 O2    s      -0.000218      0.000270     -0.000264      0.000000
    291 O2    s      -0.000087      0.000018     -0.000648      0.000000
    292 O2    s       0.000024      0.000194     -0.000451      0.000000
    293 O2    s       0.000048     -0.000120     -0.000135      0.000000
    294 O3    s       0.000832      0.000216      0.001385      0.000000
    295 O2    s      -0.000043     -0.000156      0.000841      0.000000
    296 O2    s       0.000978      0.000323      0.000302      0.000000
    297 O2    s      -0.000011     -0.000068      0.000333      0.000000
    298 O2    s       0.000198      0.000083      0.000760      0.000000
    299 O2    s       0.000016      0.000433      0.000111      0.000000
    300 O2    s       0.000028      0.000296      0.000205      0.000000
    301 O2    s       0.000309      0.000007      0.000098      0.000000
    302 O2    s       0.000270     -0.000204     -0.000070      0.000000
    303 O2    s      -0.000372      0.000314      0.000100      0.000000
    304 O2    s      -0.000116      0.000088     -0.000141      0.000000
    305 O3    s       0.000719      0.000047      0.000485      0.000000
    306 O2    s       0.000388     -0.000165      0.000121      0.000000
    307 F     s      -0.000029      0.000298      0.000280      0.000000
    308 F     s      -0.000250      0.000052      0.000059      0.000000
    309 F     s       0.000023      0.000152     -0.000175      0.000000
    310 F     s       0.000081     -0.000177      0.000287      0.000000
    311 F     s      -0.000713     -0.000199     -0.003008      0.000000
    312 F     s       0.000122     -0.000022     -0.000086      0.000000
--------------------------------------------------------------------------------
  Maximum abs         0.003532      0.001610      0.008755      0.000000
--------------------------------------------------------------------------------


  Time to end of optimisation =     609.8166 seconds


  Peak dynamic memory used =      19.13 MB 


  Timing analysis for GULP :

--------------------------------------------------------------------------------
  Task / Subroutine                                          Time (Seconds)
--------------------------------------------------------------------------------
  Calculation of reciprocal space energy and derivatives         13.9481
  Calculation of real space energy and derivatives              535.5062
  Calculation of three-body energy and derivatives               54.0563
  Calculation of matrix inversion                                 5.5850
  Global summation overhead                                       0.0010
--------------------------------------------------------------------------------
  Total CPU time                                                609.8167
--------------------------------------------------------------------------------


  Dump file written as out.res                                                 
  CIF file written as out.cif                                                 


  Job Finished at 00:42.51  1st November   2016                               

