********************************************************************************
*                       GENERAL UTILITY LATTICE PROGRAM                        *
*                                 Julian Gale                                  *
*                      Nanochemistry Research Institute                        *
*                           Department of Chemistry                            *
*                    Curtin University, Western Australia                      *
********************************************************************************
* Version = 4.2.0 * Last modified =  20th January 2014                         *
********************************************************************************
*  optimise     - perform optimisation run                                     *
*  conp         - constant pressure calculation                                *
*  qok          - running with non charge neutral cell is OK                   *
********************************************************************************

  Job Started  at 13:48.39  2nd November   2016                               

  Number of CPUs =     1


  Total number of configurations input =   1

********************************************************************************
*  Input for Configuration =   1                                               *
********************************************************************************

  Formula = Ge3Si57O120F6                                               

  Number of irreducible atoms/shells =     312


  Total number atoms/shells =     312

  Dimensionality = 3               :  Bulk   


  Charge on solid   =  -6.000000 =>neutralising background added


  Cartesian lattice vectors (Angstroms) :

       12.004157    0.000000    0.000000
       -5.988140   10.341544    0.000000
        0.284476   -0.389189   29.443668

  Cell parameters (Angstroms/Degrees):

  a =      12.0042    alpha =  90.9327
  b =      11.9501    beta  =  89.4465
  c =      29.4476    gamma = 120.0724

  Initial cell volume =        3655.181772 Angs**3

  Temperature of configuration =  0.000     K 

  Pressure of configuration =         0.000 GPa 

  Fractional coordinates of asymmetric unit :

--------------------------------------------------------------------------------
   No.  Atomic       x           y          z         Charge      Occupancy
        Label      (Frac)      (Frac)     (Frac)        (e)         (Frac)  
--------------------------------------------------------------------------------
      1 Ge    c    0.699600    0.375700    0.033890     4.00000    1.000000    
      2 Si    c    0.621668 *  0.320363 *  0.365758 *   4.00000    1.000000    
      3 Si    c    0.676996 *  0.297621 *  0.695710 *   4.00000    1.000000    
      4 Si    c    0.297476 *  0.624451 *  0.531584 *   4.00000    1.000000    
      5 Si    c    0.377971 *  0.676142 *  0.868756 *   4.00000    1.000000    
      6 Si    c    0.330800 *  0.691838 *  0.200186 *   4.00000    1.000000    
      7 Si    c    0.382345 *  0.695150 *  0.300612 *   4.00000    1.000000    
      8 Si    c    0.325685 *  0.617650 *  0.969216 *   4.00000    1.000000    
      9 Si    c    0.303660 *  0.685456 *  0.633419 *   4.00000    1.000000    
     10 Si    c    0.619213 *  0.294429 *  0.798036 *   4.00000    1.000000    
     11 Si    c    0.676457 *  0.378549 *  0.466440 *   4.00000    1.000000    
     12 Si    c    0.688445 *  0.309866 *  0.136580 *   4.00000    1.000000    
     13 Si    c    0.529829 *  0.412051 *  0.965369 *   4.00000    1.000000    
     14 Si    c    0.581868 *  0.105493 *  0.301082 *   4.00000    1.000000    
     15 Si    c    0.890653 *  0.474700 *  0.632556 *   4.00000    1.000000    
     16 Si    c    0.470500 *  0.583562 *  0.466940 *   4.00000    1.000000    
     17 Si    c    0.406788 *  0.873775 *  0.800717 *   4.00000    1.000000    
     18 Si    c    0.118008 *  0.525821 *  0.137434 *   4.00000    1.000000    
     19 Si    c    0.419867 *  0.525490 *  0.365350 *   4.00000    1.000000    
     20 Si    c    0.116111 *  0.584410 *  0.034776 *   4.00000    1.000000    
     21 Ge    c    0.471834 *  0.903163 *  0.701360 *   4.00000    1.000000    
     22 Si    c    0.579847 *  0.467533 *  0.864058 *   4.00000    1.000000    
     23 Si    c    0.887033 *  0.419251 *  0.531174 *   4.00000    1.000000    
     24 Si    c    0.523866 *  0.093513 *  0.199960 *   4.00000    1.000000    
     25 Si    c    0.300538 *  0.397147 *  0.850982 *   4.00000    1.000000    
     26 Si    c    0.606537 *  0.893221 *  0.184890 *   4.00000    1.000000    
     27 Si    c    0.095709 *  0.699728 *  0.517029 *   4.00000    1.000000    
     28 Si    c    0.700307 *  0.598966 *  0.350266 *   4.00000    1.000000    
     29 Si    c    0.393435 *  0.096318 *  0.678022 *   4.00000    1.000000    
     30 Si    c    0.904799 *  0.296791 *  0.018057 *   4.00000    1.000000    
     31 Si    c    0.398985 *  0.302696 *  0.481002 *   4.00000    1.000000    
     32 Ge    c    0.899232 *  0.583156 *  0.142704 *   4.00000    1.000000    
     33 Si    c    0.694317 *  0.089047 *  0.812802 *   4.00000    1.000000    
     34 Si    c    0.604162 *  0.694140 *  0.981812 *   4.00000    1.000000    
     35 Si    c    0.099220 *  0.405142 *  0.646484 *   4.00000    1.000000    
     36 Si    c    0.300935 *  0.894156 *  0.314447 *   4.00000    1.000000    
     37 Si    c    0.252274 *  0.336863 *  0.951223 *   4.00000    1.000000    
     38 Si    c    0.662804 *  0.905679 *  0.285830 *   4.00000    1.000000    
     39 Si    c    0.091161 *  0.752927 *  0.618135 *   4.00000    1.000000    
     40 Si    c    0.748245 *  0.659475 *  0.451301 *   4.00000    1.000000    
     41 Si    c    0.333760 *  0.080115 *  0.781360 *   4.00000    1.000000    
     42 Si    c    0.908992 *  0.244296 *  0.119945 *   4.00000    1.000000    
     43 Si    c    0.340866 *  0.246643 *  0.380378 *   4.00000    1.000000    
     44 Si    c    0.914596 *  0.667559 *  0.046716 *   4.00000    1.000000    
     45 Si    c    0.751078 *  0.084341 *  0.710379 *   4.00000    1.000000    
     46 Si    c    0.659085 *  0.747191 *  0.880922 *   4.00000    1.000000    
     47 Si    c    0.087884 *  0.342878 *  0.545863 *   4.00000    1.000000    
     48 Si    c    0.245379 *  0.892304 *  0.213642 *   4.00000    1.000000    
     49 Si    c    0.974269 *  0.119878 *  0.964440 *   4.00000    1.000000    
     50 Si    c    0.880521 *  0.845122 *  0.298732 *   4.00000    1.000000    
     51 Si    c    0.149127 *  0.034132 *  0.630348 *   4.00000    1.000000    
     52 Si    c    0.027700 *  0.877185 *  0.465415 *   4.00000    1.000000    
     53 Si    c    0.121175 *  0.150475 *  0.798025 *   4.00000    1.000000    
     54 Si    c    0.854476 *  0.965668 *  0.133441 *   4.00000    1.000000    
     55 Si    c    0.121859 *  0.965653 *  0.364410 *   4.00000    1.000000    
     56 Si    c    0.853174 *  0.879933 *  0.030616 *   4.00000    1.000000    
     57 Si    c    0.035927 *  0.160699 *  0.696979 *   4.00000    1.000000    
     58 Si    c    0.877339 *  0.026502 *  0.863231 *   4.00000    1.000000    
     59 Si    c    0.148996 *  0.124032 *  0.529939 *   4.00000    1.000000    
     60 Si    c    0.966286 *  0.835056 *  0.196913 *   4.00000    1.000000    
     61 O2    c    0.926021 *  0.998241 *  0.996521 *   0.87073    1.000000    
     62 O2    c    0.003491 *  0.925748 *  0.330793 *   0.87073    1.000000    
     63 O2    c    0.070839 *  0.076477 *  0.663648 *   0.87073    1.000000    
     64 O2    c    0.070794 *  0.003773 *  0.496176 *   0.87073    1.000000    
     65 O2    c    0.996032 *  0.066653 *  0.829093 *   0.87073    1.000000    
     66 O2    c    0.938071 *  0.927139 *  0.164429 *   0.87073    1.000000    
     67 O2    c    0.343142 *  0.573076 *  0.333144 *   0.87073    1.000000    
     68 O3    c    0.421873 *  0.766114 *  0.665304 *   1.33043    1.000000    
     69 O2    c    0.242448 *  0.656669 *  0.002802 *   0.87073    1.000000    
     70 O2    c    0.655223 *  0.417273 *  0.830820 *   0.87073    1.000000    
     71 O2    c    0.566142 *  0.215535 *  0.167126 *   0.87073    1.000000    
     72 O2    c    0.760992 *  0.341478 *  0.499027 *   0.87073    1.000000    
     73 O3    c    0.573249 *  0.332999 *  0.996389 *   1.33043    1.000000    
     74 O2    c    0.764169 *  0.423192 *  0.665390 *   0.87073    1.000000    
     75 O2    c    0.658798 *  0.232992 *  0.333106 *   0.87073    1.000000    
     76 O2    c    0.420824 *  0.661463 *  0.498960 *   0.87073    1.000000    
     77 O2    c    0.246732 *  0.567020 *  0.166909 *   0.87073    1.000000    
     78 O2    c    0.337022 *  0.762345 *  0.838952 *   0.87073    1.000000    
     79 O2    c    0.127971 *  0.207729 *  0.970507 *   0.87073    1.000000    
     80 O2    c    0.789117 *  0.907837 *  0.305951 *   0.87073    1.000000    
     81 O2    c    0.092132 *  0.881435 *  0.637861 *   0.87073    1.000000    
     82 O2    c    0.874072 *  0.786551 *  0.471621 *   0.87073    1.000000    
     83 O2    c    0.211929 *  0.087004 *  0.802524 *   0.87073    1.000000    
     84 O2    c    0.909801 *  0.119752 *  0.139832 *   0.87073    1.000000    
     85 O2    c    0.214595 *  0.120088 *  0.360154 *   0.87073    1.000000    
     86 O2    c    0.919998 *  0.793078 *  0.023096 *   0.87073    1.000000    
     87 O2    c    0.883711 *  0.098558 *  0.692057 *   0.87073    1.000000    
     88 O2    c    0.785352 *  0.871464 *  0.859991 *   0.87073    1.000000    
     89 O2    c    0.087378 *  0.216028 *  0.525034 *   0.87073    1.000000    
     90 O2    c    0.120907 *  0.890225 *  0.192560 *   0.87073    1.000000    
     91 O2    c    0.930819 *  0.859025 *  0.247799 *   0.87073    1.000000    
     92 O2    c    0.129996 *  0.066278 *  0.579766 *   0.87073    1.000000    
     93 O2    c    0.934280 *  0.071352 *  0.913214 *   0.87073    1.000000    
     94 O2    c    0.074967 *  0.145082 *  0.747285 *   0.87073    1.000000    
     95 O2    c    0.868889 *  0.936308 *  0.081069 *   0.87073    1.000000    
     96 O2    c    0.065063 *  0.923947 *  0.414323 *   0.87073    1.000000    
     97 O2    c    0.910675 *  0.206698 *  0.977801 *   0.87073    1.000000    
     98 O2    c    0.798410 *  0.693612 *  0.311639 *   0.87073    1.000000    
     99 O2    c    0.300933 *  0.113940 *  0.642375 *   0.87073    1.000000    
    100 O2    c    0.097908 *  0.797387 *  0.478804 *   0.87073    1.000000    
    101 O2    c    0.201388 *  0.301051 *  0.812629 *   0.87073    1.000000    
    102 O2    c    0.703222 *  0.891421 *  0.146165 *   0.87073    1.000000    
    103 O2    c    0.203454 *  0.894906 *  0.352838 *   0.87073    1.000000    
    104 O2    c    0.700657 *  0.793050 *  0.020241 *   0.87073    1.000000    
    105 O2    c    0.105065 *  0.311935 *  0.685244 *   0.87073    1.000000    
    106 O2    c    0.792249 *  0.092629 *  0.851330 *   0.87073    1.000000    
    107 O2    c    0.301398 *  0.205977 *  0.519402 *   0.87073    1.000000    
    108 O3    c    0.890713 *  0.688147 *  0.184918 *   1.33043    1.000000    
    109 O2    c    0.328206 *  0.634685 *  0.250186 *   0.87073    1.000000    
    110 O2    c    0.353234 *  0.682918 *  0.581582 *   0.87073    1.000000    
    111 O2    c    0.323027 *  0.674564 *  0.919646 *   0.87073    1.000000    
    112 O2    c    0.674673 *  0.345157 *  0.747764 *   0.87073    1.000000    
    113 O3    c    0.634854 *  0.313641 *  0.086262 *   1.33043    1.000000    
    114 O2    c    0.677630 *  0.320463 *  0.416017 *   0.87073    1.000000    
    115 O2    c    0.373653 *  0.325945 *  0.968217 *   0.87073    1.000000    
    116 O2    c    0.670268 *  0.037992 *  0.303995 *   0.87073    1.000000    
    117 O2    c    0.957155 *  0.631210 *  0.636486 *   0.87073    1.000000    
    118 O2    c    0.626569 *  0.670905 *  0.469784 *   0.87073    1.000000    
    119 O2    c    0.323859 *  0.949462 *  0.800735 *   0.87073    1.000000    
    120 O2    c    0.039879 *  0.368356 *  0.137762 *   0.87073    1.000000    
    121 O2    c    0.331637 *  0.368942 *  0.362058 *   0.87073    1.000000    
    122 O2    c    0.049284 *  0.672760 *  0.032329 *   0.87073    1.000000    
    123 O3    c    0.638252 *  0.952459 *  0.691508 *   1.33043    1.000000    
    124 O2    c    0.666630 *  0.623782 *  0.860934 *   0.87073    1.000000    
    125 O2    c    0.955599 *  0.331507 *  0.527394 *   0.87073    1.000000    
    126 O2    c    0.368791 *  0.024796 *  0.196155 *   0.87073    1.000000    
    127 O3    c    0.771347 *  0.291489 *  0.011986 *   1.33043    1.000000    
    128 O2    c    0.698053 *  0.462952 *  0.343207 *   0.87073    1.000000    
    129 O2    c    0.532098 *  0.230017 *  0.675864 *   0.87073    1.000000    
    130 O2    c    0.228032 *  0.697132 *  0.509041 *   0.87073    1.000000    
    131 O2    c    0.304300 *  0.533325 *  0.844901 *   0.87073    1.000000    
    132 O2    c    0.473183 *  0.758039 *  0.177237 *   0.87073    1.000000    
    133 O2    c    0.304947 *  0.762523 *  0.322304 *   0.87073    1.000000    
    134 O2    c    0.469516 *  0.691960 *  0.990688 *   0.87073    1.000000    
    135 O2    c    0.231742 *  0.538817 *  0.653488 *   0.87073    1.000000    
    136 O2    c    0.690170 *  0.221903 *  0.818873 *   0.87073    1.000000    
    137 O2    c    0.532986 *  0.303800 *  0.488728 *   0.87073    1.000000    
    138 O3    c    0.751851 *  0.449029 *  0.160081 *   1.33043    1.000000    
    139 O3    c    0.791360 *  0.541146 *  0.025988 *   1.33043    1.000000    
    140 O2    c    0.465955 *  0.244940 *  0.360770 *   0.87073    1.000000    
    141 O2    c    0.740533 *  0.206838 *  0.692399 *   0.87073    1.000000    
    142 O2    c    0.214643 *  0.467921 *  0.526770 *   0.87073    1.000000    
    143 O2    c    0.533866 *  0.750545 *  0.863379 *   0.87073    1.000000    
    144 O2    c    0.251921 *  0.768399 *  0.194385 *   0.87073    1.000000    
    145 O2    c    0.537864 *  0.779552 *  0.305439 *   0.87073    1.000000    
    146 O2    c    0.249931 *  0.460891 *  0.972882 *   0.87073    1.000000    
    147 O2    c    0.214682 *  0.753121 *  0.638496 *   0.87073    1.000000    
    148 O2    c    0.465014 *  0.203775 *  0.799212 *   0.87073    1.000000    
    149 O2    c    0.749397 *  0.535016 *  0.471039 *   0.87073    1.000000    
    150 O2    c    0.783028 *  0.247656 *  0.136460 *   0.87073    1.000000    
    151 O2    c    0.230215 *  0.321923 *  0.896990 *   0.87073    1.000000    
    152 O2    c    0.680974 *  0.901502 *  0.231401 *   0.87073    1.000000    
    153 O2    c    0.093294 *  0.771412 *  0.563807 *   0.87073    1.000000    
    154 O2    c    0.768639 *  0.674893 *  0.396945 *   0.87073    1.000000    
    155 O2    c    0.321186 *  0.081173 *  0.727165 *   0.87073    1.000000    
    156 O2    c    0.911909 *  0.233814 *  0.065183 *   0.87073    1.000000    
    157 O2    c    0.323858 *  0.229753 *  0.434769 *   0.87073    1.000000    
    158 O3    c    0.906164 *  0.690066 *  0.099635 *   1.33043    1.000000    
    159 O2    c    0.761519 *  0.086461 *  0.765676 *   0.87073    1.000000    
    160 O2    c    0.677704 *  0.764732 *  0.935300 *   0.87073    1.000000    
    161 O2    c    0.090217 *  0.325795 *  0.600171 *   0.87073    1.000000    
    162 O2    c    0.228607 *  0.892817 *  0.268175 *   0.87073    1.000000    
    163 O2    c    0.589969 *  0.554133 *  0.989719 *   0.87073    1.000000    
    164 O2    c    0.439830 *  0.020683 *  0.323190 *   0.87073    1.000000    
    165 O2    c    0.972153 *  0.416441 *  0.656344 *   0.87073    1.000000    
    166 O2    c    0.413324 *  0.442797 *  0.490015 *   0.87073    1.000000    
    167 O2    c    0.552967 *  0.967416 *  0.820269 *   0.87073    1.000000    
    168 O3    c    0.038571 *  0.584312 *  0.161108 *   1.33043    1.000000    
    169 O2    c    0.560527 *  0.583102 *  0.341736 *   0.87073    1.000000    
    170 O2    c    0.021602 *  0.443037 *  0.012994 *   0.87073    1.000000    
    171 O3    c    0.401919 *  0.972826 *  0.665308 *   1.33043    1.000000    
    172 O2    c    0.438405 *  0.407907 *  0.841363 *   0.87073    1.000000    
    173 O2    c    0.969331 *  0.560392 *  0.508083 *   0.87073    1.000000    
    174 O2    c    0.589039 *  0.016485 *  0.175945 *   0.87073    1.000000    
    175 O2    c    0.580039 *  0.154021 *  0.249986 *   0.87073    1.000000    
    176 O2    c    0.832812 *  0.418491 *  0.582246 *   0.87073    1.000000    
    177 O2    c    0.583066 *  0.414174 *  0.914054 *   0.87073    1.000000    
    178 O3    c    0.400263 *  0.810552 *  0.752606 *   1.33043    1.000000    
    179 O2    c    0.161958 *  0.577786 *  0.085545 *   0.87073    1.000000    
    180 O2    c    0.418748 *  0.581283 *  0.415954 *   0.87073    1.000000    
    181 F     c    0.453729 *  0.892906 *  0.248723 *   0.56000    1.000000    
    182 F     c    0.087970 *  0.546943 *  0.581964 *   0.56000    1.000000    
    183 F     c    0.452420 *  0.543913 *  0.916611 *   0.56000    1.000000    
    184 F     c    0.525781 *  0.049336 *  0.738557 *   0.56000    1.000000    
    185 F     c    0.894119 *  0.473403 *  0.091717 *   0.56000    1.000000    
    186 F     c    0.547802 *  0.449479 *  0.415761 *   0.56000    1.000000    
    187 O2    s    0.923411 *  0.999052 *  0.996634 *  -2.87073    1.000000    
    188 O2    s    0.003124 *  0.921274 *  0.331012 *  -2.87073    1.000000    
    189 O2    s    0.075778 *  0.081337 *  0.663688 *  -2.87073    1.000000    
    190 O2    s    0.074766 *  0.003082 *  0.496526 *  -2.87073    1.000000    
    191 O2    s    0.996495 *  0.071307 *  0.829497 *  -2.87073    1.000000    
    192 O2    s    0.931501 *  0.922168 *  0.164225 *  -2.87073    1.000000    
    193 O2    s    0.355156 *  0.580939 *  0.333052 *  -2.87073    1.000000    
    194 O3    s    0.412406 *  0.766886 *  0.664340 *  -3.33043    1.000000    
    195 O2    s    0.237880 *  0.645077 *  0.002658 *  -2.87073    1.000000    
    196 O2    s    0.643736 *  0.409295 *  0.830700 *  -2.87073    1.000000    
    197 O2    s    0.574919 *  0.212932 *  0.167241 *  -2.87073    1.000000    
    198 O2    s    0.765155 *  0.353252 *  0.498943 *  -2.87073    1.000000    
    199 O3    s    0.578667 *  0.344298 *  0.996169 *  -3.33043    1.000000    
    200 O2    s    0.767352 *  0.414871 *  0.665403 *  -2.87073    1.000000    
    201 O2    s    0.647005 *  0.228687 *  0.333128 *  -2.87073    1.000000    
    202 O2    s    0.413374 *  0.649637 *  0.498986 *  -2.87073    1.000000    
    203 O2    s    0.241858 *  0.575126 *  0.167179 *  -2.87073    1.000000    
    204 O2    s    0.348282 *  0.764579 *  0.838229 *  -2.87073    1.000000    
    205 O2    s    0.124322 *  0.211637 *  0.967888 *  -2.87073    1.000000    
    206 O2    s    0.785516 *  0.901079 *  0.303136 *  -2.87073    1.000000    
    207 O2    s    0.098098 *  0.884569 *  0.635082 *  -2.87073    1.000000    
    208 O2    s    0.877405 *  0.783056 *  0.468888 *  -2.87073    1.000000    
    209 O2    s    0.214934 *  0.092993 *  0.799888 *  -2.87073    1.000000    
    210 O2    s    0.903957 *  0.117088 *  0.137062 *  -2.87073    1.000000    
    211 O2    s    0.217857 *  0.116812 *  0.362684 *  -2.87073    1.000000    
    212 O2    s    0.912344 *  0.789935 *  0.026186 *  -2.87073    1.000000    
    213 O2    s    0.886189 *  0.104019 *  0.694624 *  -2.87073    1.000000    
    214 O2    s    0.782127 *  0.875153 *  0.862467 *  -2.87073    1.000000    
    215 O2    s    0.094039 *  0.219292 *  0.527689 *  -2.87073    1.000000    
    216 O2    s    0.118773 *  0.884968 *  0.195218 *  -2.87073    1.000000    
    217 O2    s    0.928858 *  0.854914 *  0.248212 *  -2.87073    1.000000    
    218 O2    s    0.134329 *  0.069100 *  0.579956 *  -2.87073    1.000000    
    219 O2    s    0.932359 *  0.071741 *  0.913350 *  -2.87073    1.000000    
    220 O2    s    0.075960 *  0.147440 *  0.747556 *  -2.87073    1.000000    
    221 O2    s    0.865520 *  0.933172 *  0.081122 *  -2.87073    1.000000    
    222 O2    s    0.067298 *  0.923396 *  0.414442 *  -2.87073    1.000000    
    223 O2    s    0.916919 *  0.206915 *  0.980630 *  -2.87073    1.000000    
    224 O2    s    0.796955 *  0.699741 *  0.314242 *  -2.87073    1.000000    
    225 O2    s    0.294497 *  0.103860 *  0.644745 *  -2.87073    1.000000    
    226 O2    s    0.090198 *  0.795915 *  0.481285 *  -2.87073    1.000000    
    227 O2    s    0.203113 *  0.294938 *  0.815067 *  -2.87073    1.000000    
    228 O2    s    0.709380 *  0.899427 *  0.148748 *  -2.87073    1.000000    
    229 O2    s    0.204858 *  0.902321 *  0.350104 *  -2.87073    1.000000    
    230 O2    s    0.706619 *  0.791904 *  0.017351 *  -2.87073    1.000000    
    231 O2    s    0.097006 *  0.304824 *  0.682679 *  -2.87073    1.000000    
    232 O2    s    0.791193 *  0.085346 *  0.848660 *  -2.87073    1.000000    
    233 O2    s    0.295184 *  0.207123 *  0.516623 *  -2.87073    1.000000    
    234 O3    s    0.899822 *  0.697720 *  0.183456 *  -3.33043    1.000000    
    235 O2    s    0.333999 *  0.646769 *  0.250140 *  -2.87073    1.000000    
    236 O2    s    0.342426 *  0.677009 *  0.581441 *  -2.87073    1.000000    
    237 O2    s    0.328963 *  0.668835 *  0.919519 *  -2.87073    1.000000    
    238 O2    s    0.669029 *  0.334989 *  0.747854 *  -2.87073    1.000000    
    239 O3    s    0.645006 *  0.318445 *  0.086534 *  -3.33043    1.000000    
    240 O2    s    0.671793 *  0.326367 *  0.416020 *  -2.87073    1.000000    
    241 O2    s    0.376542 *  0.335985 *  0.966068 *  -2.87073    1.000000    
    242 O2    s    0.660400 *  0.031019 *  0.301777 *  -2.87073    1.000000    
    243 O2    s    0.963924 *  0.627510 *  0.634214 *  -2.87073    1.000000    
    244 O2    s    0.623259 *  0.660740 *  0.467552 *  -2.87073    1.000000    
    245 O2    s    0.332858 *  0.955908 *  0.798690 *  -2.87073    1.000000    
    246 O2    s    0.033769 *  0.371055 *  0.135803 *  -2.87073    1.000000    
    247 O2    s    0.341720 *  0.372281 *  0.364330 *  -2.87073    1.000000    
    248 O2    s    0.043025 *  0.662947 *  0.034026 *  -2.87073    1.000000    
    249 O3    s    0.639377 *  0.963443 *  0.694243 *  -3.33043    1.000000    
    250 O2    s    0.656809 *  0.620381 *  0.863350 *  -2.87073    1.000000    
    251 O2    s    0.962362 *  0.341704 *  0.529722 *  -2.87073    1.000000    
    252 O2    s    0.372162 *  0.018098 *  0.198406 *  -2.87073    1.000000    
    253 O3    s    0.779613 *  0.298671 *  0.014361 *  -3.33043    1.000000    
    254 O2    s    0.690441 *  0.462510 *  0.346296 *  -2.87073    1.000000    
    255 O2    s    0.533363 *  0.223660 *  0.678202 *  -2.87073    1.000000    
    256 O2    s    0.221218 *  0.689945 *  0.512218 *  -2.87073    1.000000    
    257 O2    s    0.311468 *  0.533527 *  0.848020 *  -2.87073    1.000000    
    258 O2    s    0.472542 *  0.765421 *  0.180433 *  -2.87073    1.000000    
    259 O2    s    0.312505 *  0.769503 *  0.319203 *  -2.87073    1.000000    
    260 O2    s    0.468644 *  0.684463 *  0.987497 *  -2.87073    1.000000    
    261 O2    s    0.224245 *  0.538640 *  0.650675 *  -2.87073    1.000000    
    262 O2    s    0.683209 *  0.215647 *  0.816065 *  -2.87073    1.000000    
    263 O2    s    0.533565 *  0.311318 *  0.485607 *  -2.87073    1.000000    
    264 O3    s    0.756049 *  0.444497 *  0.156351 *  -3.33043    1.000000    
    265 O3    s    0.796135 *  0.540181 *  0.028659 *  -3.33043    1.000000    
    266 O2    s    0.468634 *  0.253066 *  0.363383 *  -2.87073    1.000000    
    267 O2    s    0.734551 *  0.203985 *  0.694591 *  -2.87073    1.000000    
    268 O2    s    0.209412 *  0.470653 *  0.529319 *  -2.87073    1.000000    
    269 O2    s    0.531294 *  0.742424 *  0.865803 *  -2.87073    1.000000    
    270 O2    s    0.259542 *  0.773803 *  0.197010 *  -2.87073    1.000000    
    271 O2    s    0.535120 *  0.784485 *  0.302834 *  -2.87073    1.000000    
    272 O2    s    0.258035 *  0.463850 *  0.970228 *  -2.87073    1.000000    
    273 O2    s    0.209683 *  0.746128 *  0.635768 *  -2.87073    1.000000    
    274 O2    s    0.467605 *  0.200246 *  0.797183 *  -2.87073    1.000000    
    275 O2    s    0.741512 *  0.532117 *  0.468437 *  -2.87073    1.000000    
    276 O2    s    0.787741 *  0.253604 *  0.134632 *  -2.87073    1.000000    
    277 O2    s    0.239990 *  0.331474 *  0.897920 *  -2.87073    1.000000    
    278 O2    s    0.671205 *  0.901066 *  0.232198 *  -2.87073    1.000000    
    279 O2    s    0.093311 *  0.761910 *  0.564624 *  -2.87073    1.000000    
    280 O2    s    0.759310 *  0.665291 *  0.397796 *  -2.87073    1.000000    
    281 O2    s    0.329521 *  0.082459 *  0.728357 *  -2.87073    1.000000    
    282 O2    s    0.910865 *  0.241575 *  0.065903 *  -2.87073    1.000000    
    283 O2    s    0.333503 *  0.239164 *  0.433838 *  -2.87073    1.000000    
    284 O3    s    0.906509 *  0.680356 *  0.097124 *  -3.33043    1.000000    
    285 O2    s    0.753149 *  0.086509 *  0.765288 *  -2.87073    1.000000    
    286 O2    s    0.668117 *  0.755559 *  0.934319 *  -2.87073    1.000000    
    287 O2    s    0.090872 *  0.335796 *  0.599281 *  -2.87073    1.000000    
    288 O2    s    0.237967 *  0.892899 *  0.267271 *  -2.87073    1.000000    
    289 O2    s    0.585232 *  0.554627 *  0.986421 *  -2.87073    1.000000    
    290 O2    s    0.439819 *  0.015816 *  0.319918 *  -2.87073    1.000000    
    291 O2    s    0.977196 *  0.421372 *  0.652863 *  -2.87073    1.000000    
    292 O2    s    0.417920 *  0.442397 *  0.486633 *  -2.87073    1.000000    
    293 O2    s    0.554226 *  0.971787 *  0.817505 *  -2.87073    1.000000    
    294 O3    s    0.036088 *  0.577966 *  0.157255 *  -3.33043    1.000000    
    295 O2    s    0.560924 *  0.578641 *  0.345111 *  -2.87073    1.000000    
    296 O2    s    0.018909 *  0.442232 *  0.015848 *  -2.87073    1.000000    
    297 O3    s    0.405794 *  0.982020 *  0.669054 *  -3.33043    1.000000    
    298 O2    s    0.438552 *  0.413108 *  0.844757 *  -2.87073    1.000000    
    299 O2    s    0.974495 *  0.560658 *  0.511452 *  -2.87073    1.000000    
    300 O2    s    0.584100 *  0.011049 *  0.179370 *  -2.87073    1.000000    
    301 O2    s    0.574420 *  0.142693 *  0.250103 *  -2.87073    1.000000    
    302 O2    s    0.844346 *  0.424381 *  0.582235 *  -2.87073    1.000000    
    303 O2    s    0.577317 *  0.419558 *  0.914054 *  -2.87073    1.000000    
    304 O3    s    0.405492 *  0.823175 *  0.754481 *  -3.33043    1.000000    
    305 O2    s    0.152682 *  0.573338 *  0.085263 *  -2.87073    1.000000    
    306 O2    s    0.424264 *  0.575712 *  0.415999 *  -2.87073    1.000000    
    307 F     s    0.453616 *  0.892469 *  0.248548 *  -1.56000    1.000000    
    308 F     s    0.087262 *  0.546518 *  0.581962 *  -1.56000    1.000000    
    309 F     s    0.452250 *  0.543921 *  0.916613 *  -1.56000    1.000000    
    310 F     s    0.521784 *  0.038923 *  0.735990 *  -1.56000    1.000000    
    311 F     s    0.893067 *  0.478918 *  0.094039 *  -1.56000    1.000000    
    312 F     s    0.547875 *  0.449188 *  0.415741 *  -1.56000    1.000000    
--------------------------------------------------------------------------------



********************************************************************************
*  General input information                                                   *
********************************************************************************

  Species output for all configurations : 

--------------------------------------------------------------------------------
  Species    Type    Atomic    Atomic    Charge       Radii (Angs)     Library
                     Number     Mass       (e)     Cova   Ionic  VDW   Symbol
--------------------------------------------------------------------------------
    Si       Core       14      28.09   4.000000   1.200  0.000  2.100          
    O1       Core        8      16.00   1.733957   0.730  0.000  1.360          
    O1       Shell       8       0.00  -3.733957   0.730  0.000  1.360          
    O2       Core        8      16.00   0.870733   0.730  0.000  1.360          
    O2       Shell       8       0.00  -2.870733   0.730  0.000  1.360          
    O3       Core        8      16.00   1.330431   0.730  0.000  1.360          
    O3       Shell       8       0.00  -3.330431   0.730  0.000  1.360          
    F        Core        9      19.00   0.560000   0.710  0.000  1.300          
    F        Shell       9       0.00  -1.560000   0.710  0.000  1.300          
    Ge       Core       32      72.61   4.000000   1.170  0.000  1.750          
--------------------------------------------------------------------------------


  Lattice summation method               =    Ewald          (3-D)
                                         =    Parry          (2-D)
                                         =    Saunders et al (1-D)
  Accuracy factor for lattice sums       =   12.000


  Time limit = Infinity

  Maximum range for interatomic potentials =        16.000000 Angstroms

  Taper potentials to zero over   1.0000 Angstroms using polynomial

  General interatomic potentials :

--------------------------------------------------------------------------------
Atom  Types   Potential         A         B         C         D     Cutoffs(Ang)
  1     2                                                            Min    Max 
--------------------------------------------------------------------------------
Si   c O1   s Buckingham    0.132E+04 0.318      10.1      0.00     0.000 16.000
Si   c O2   s Buckingham    0.132E+04 0.318      10.1      0.00     0.000 16.000
Si   c O3   s Buckingham    0.132E+04 0.318      10.1      0.00     0.000 16.000
Ge   c O1   s Buckingham    0.150E+04 0.326      16.8      0.00     0.000 16.000
Ge   c O2   s Buckingham    0.150E+04 0.326      16.8      0.00     0.000 16.000
Ge   c O3   s Buckingham    0.150E+04 0.326      16.8      0.00     0.000 16.000
O1   s O1   s Buckingham    0.228E+05 0.149      10.9      0.00     0.000 16.000
O1   s O2   s Buckingham    0.228E+05 0.149      10.9      0.00     0.000 16.000
O1   s O3   s Buckingham    0.228E+05 0.149      10.9      0.00     0.000 16.000
O2   s O2   s Buckingham    0.228E+05 0.149      10.9      0.00     0.000 16.000
O2   s O3   s Buckingham    0.228E+05 0.149      10.9      0.00     0.000 16.000
O3   s O3   s Buckingham    0.228E+05 0.149      10.9      0.00     0.000 16.000
Si   c F    s Buckingham     977.     0.282      0.00      0.00     0.000 16.000
Ge   c F    s Buckingham     681.     0.320      0.00      0.00     0.000 16.000
F    s F    s Buckingham     540.     0.262      0.00      0.00     0.000 16.000
O1   s F    s Buckingham    0.168E+04 0.268      0.00      0.00     0.000 16.000
O2   s F    s Buckingham    0.168E+04 0.268      0.00      0.00     0.000 16.000
O3   s F    s Buckingham    0.168E+04 0.268      0.00      0.00     0.000 16.000
O2   c O2   s Spring (c-s)   76.0      0.00      0.00      0.00     0.000  0.800
O3   c O3   s Spring (c-s)   128.      0.00      0.00      0.00     0.000  0.800
O1   c O1   s Spring (c-s)   180.      0.00      0.00      0.00     0.000  0.800
F    c F    s Spring (c-s)   33.5      0.00      0.00      0.00     0.000  0.800
--------------------------------------------------------------------------------

  General Three-body potentials :

  Harmonic form:

--------------------------------------------------------------------------------
Atom    Atom    Atom           Force Constants            Theta     Cutoffs  
  1       2       3     (eVrad**-2/eVrad**-3/eVrad**-4)   (deg)  1-2  1-3  2-3
--------------------------------------------------------------------------------
Si    c O1    s O1    s  1.261        0.0000    0.0000   109.470 0.00 0.00 0.00
                                                                 1.90 1.90 3.50
Si    c O1    s O2    s  1.261        0.0000    0.0000   109.470 0.00 0.00 0.00
                                                                 1.90 1.90 3.50
Si    c O2    s O2    s  1.261        0.0000    0.0000   109.470 0.00 0.00 0.00
                                                                 1.90 1.90 3.50
--------------------------------------------------------------------------------

********************************************************************************
*  Output for configuration   1                                                *
********************************************************************************


  Components of energy : 

--------------------------------------------------------------------------------
  Interatomic potentials     =        2064.65293807 eV
  Three-body potentials      =           0.46660682 eV
  Monopole - monopole (real) =       -6613.66218251 eV
  Monopole - monopole (recip)=       -3171.80791751 eV
  Monopole - monopole (total)=       -9785.47010002 eV
  Neutralising energy        =          -6.46098826 eV
--------------------------------------------------------------------------------
  Total lattice energy       =       -7726.81154340 eV
--------------------------------------------------------------------------------
  Total lattice energy       =         -745519.1988 kJ/(mole unit cells)
--------------------------------------------------------------------------------


  Number of variables =      939

  Maximum number of calculations  =          5000
  Maximum Hessian update interval =            10
  Maximum step size               =   0.100000000
  Maximum parameter tolerance     =   0.000010000
  Maximum function  tolerance     =   0.000010000
  Maximum gradient  tolerance     =   0.001000000
  Maximum gradient  component     =   0.010000000

  Symmetry not applied to optimisation

  Cell parameters to be optimised using strains

  Newton-Raphson optimiser to be used

  BFGS hessian update to be used

  Dumpfile to be written after every cycle

  Start of bulk optimisation :

  Cycle:      0 Energy:     -7726.811543  Gnorm:      0.000229  CPU:    2.015
  ** Hessian calculated **
  Cycle:      1 Energy:     -7726.817551  Gnorm:      0.000184  CPU:    6.649
  Cycle:      2 Energy:     -7726.822757  Gnorm:      0.000333  CPU:   10.908
  Cycle:      3 Energy:     -7726.824202  Gnorm:      0.000298  CPU:   15.166
  Cycle:      4 Energy:     -7726.824562  Gnorm:      0.000185  CPU:   19.425
  Cycle:      5 Energy:     -7726.824652  Gnorm:      0.000102  CPU:   23.684
  Cycle:      6 Energy:     -7726.824667  Gnorm:      0.000073  CPU:   26.553
  Cycle:      7 Energy:     -7726.824674  Gnorm:      0.000051  CPU:   29.423
  Cycle:      8 Energy:     -7726.824678  Gnorm:      0.000036  CPU:   32.293


  **** Optimisation achieved ****


  Final energy =   -7726.82467993 eV
  Final Gnorm  =       0.00002529

  Components of energy : 

--------------------------------------------------------------------------------
  Interatomic potentials     =        2064.61664893 eV
  Three-body potentials      =           0.46560585 eV
  Monopole - monopole (real) =       -6613.83308572 eV
  Monopole - monopole (recip)=       -3171.61325640 eV
  Monopole - monopole (total)=       -9785.44634212 eV
  Neutralising energy        =          -6.46059259 eV
--------------------------------------------------------------------------------
  Total lattice energy       =       -7726.82467993 eV
--------------------------------------------------------------------------------
  Total lattice energy       =         -745520.4663 kJ/(mole unit cells)
--------------------------------------------------------------------------------

  Final fractional coordinates of atoms :

--------------------------------------------------------------------------------
   No.  Atomic        x           y          z          Radius
        Label       (Frac)      (Frac)     (Frac)       (Angs) 
--------------------------------------------------------------------------------
     1  Ge    c     0.699600    0.375700    0.033890    0.000000
     2  Si    c     0.615278    0.311229    0.365321    0.000000
     3  Si    c     0.670385    0.287238    0.695229    0.000000
     4  Si    c     0.291374    0.614397    0.531508    0.000000
     5  Si    c     0.373249    0.667881    0.868774    0.000000
     6  Si    c     0.325418    0.683734    0.200259    0.000000
     7  Si    c     0.376432    0.686505    0.300632    0.000000
     8  Si    c     0.322492    0.610239    0.969340    0.000000
     9  Si    c     0.297032    0.675222    0.633339    0.000000
    10  Si    c     0.613275    0.285509    0.797589    0.000000
    11  Si    c     0.670226    0.368407    0.465998    0.000000
    12  Si    c     0.683498    0.303796    0.136112    0.000000
    13  Si    c     0.526067    0.404559    0.964956    0.000000
    14  Si    c     0.575658    0.096896    0.300526    0.000000
    15  Si    c     0.884010    0.464223    0.632031    0.000000
    16  Si    c     0.464405    0.573436    0.466917    0.000000
    17  Si    c     0.400926    0.864933    0.800726    0.000000
    18  Si    c     0.113072    0.518047    0.137624    0.000000
    19  Si    c     0.413586    0.516272    0.365301    0.000000
    20  Si    c     0.113865    0.578981    0.035033    0.000000
    21  Ge    c     0.465276    0.892921    0.701310    0.000000
    22  Si    c     0.575023    0.459514    0.863549    0.000000
    23  Si    c     0.880885    0.409035    0.530656    0.000000
    24  Si    c     0.518393    0.085932    0.199256    0.000000
    25  Si    c     0.295628    0.389044    0.850758    0.000000
    26  Si    c     0.600667    0.885001    0.184730    0.000000
    27  Si    c     0.089613    0.689538    0.516723    0.000000
    28  Si    c     0.694039    0.589905    0.349981    0.000000
    29  Si    c     0.386791    0.085939    0.677846    0.000000
    30  Si    c     0.901583    0.292140    0.017865    0.000000
    31  Si    c     0.392779    0.292456    0.480794    0.000000
    32  Ge    c     0.894994    0.576532    0.142922    0.000000
    33  Si    c     0.688343    0.080185    0.812608    0.000000
    34  Si    c     0.601052    0.686659    0.981652    0.000000
    35  Si    c     0.092573    0.394786    0.646119    0.000000
    36  Si    c     0.294874    0.885506    0.314102    0.000000
    37  Si    c     0.248506    0.329451    0.951122    0.000000
    38  Si    c     0.656672    0.897040    0.285652    0.000000
    39  Si    c     0.084438    0.742530    0.617812    0.000000
    40  Si    c     0.742136    0.649451    0.451062    0.000000
    41  Si    c     0.327818    0.071104    0.781220    0.000000
    42  Si    c     0.903550    0.237118    0.119584    0.000000
    43  Si    c     0.334559    0.237376    0.380150    0.000000
    44  Si    c     0.914940    0.665573    0.047181    0.000000
    45  Si    c     0.744563    0.074149    0.710204    0.000000
    46  Si    c     0.654514    0.739093    0.880650    0.000000
    47  Si    c     0.081795    0.332772    0.545522    0.000000
    48  Si    c     0.239893    0.884136    0.213255    0.000000
    49  Si    c     0.969760    0.114310    0.964221    0.000000
    50  Si    c     0.874390    0.836536    0.298618    0.000000
    51  Si    c     0.142380    0.023681    0.630214    0.000000
    52  Si    c     0.021586    0.867144    0.465249    0.000000
    53  Si    c     0.115844    0.142293    0.797938    0.000000
    54  Si    c     0.848971    0.958558    0.133452    0.000000
    55  Si    c     0.115633    0.956569    0.364266    0.000000
    56  Si    c     0.849739    0.874532    0.030590    0.000000
    57  Si    c     0.029477    0.150541    0.696848    0.000000
    58  Si    c     0.872042    0.018836    0.863197    0.000000
    59  Si    c     0.142744    0.113809    0.529760    0.000000
    60  Si    c     0.960890    0.827742    0.196821    0.000000
    61  O2    c     0.920309    0.993021    0.996536    0.000000
    62  O2    c     0.996881    0.916606    0.330872    0.000000
    63  O2    c     0.064345    0.065850    0.663735    0.000000
    64  O2    c     0.064371    0.993284    0.496178    0.000000
    65  O2    c     0.990947    0.059119    0.829163    0.000000
    66  O2    c     0.932708    0.920158    0.164466    0.000000
    67  O2    c     0.337063    0.564462    0.333236    0.000000
    68  O3    c     0.414930    0.755662    0.665346    0.000000
    69  O2    c     0.240482    0.650241    0.003171    0.000000
    70  O2    c     0.649737    0.408826    0.830142    0.000000
    71  O2    c     0.560811    0.208043    0.166378    0.000000
    72  O2    c     0.755021    0.331300    0.498461    0.000000
    73  O3    c     0.572522    0.328760    0.996160    0.000000
    74  O2    c     0.757294    0.412551    0.664756    0.000000
    75  O2    c     0.652510    0.224319    0.332496    0.000000
    76  O2    c     0.414987    0.651380    0.499011    0.000000
    77  O2    c     0.241296    0.558473    0.167210    0.000000
    78  O2    c     0.331647    0.753837    0.839107    0.000000
    79  O2    c     0.123587    0.200567    0.970280    0.000000
    80  O2    c     0.782959    0.899227    0.305811    0.000000
    81  O2    c     0.085150    0.870878    0.637528    0.000000
    82  O2    c     0.867973    0.776311    0.471392    0.000000
    83  O2    c     0.206284    0.078451    0.802438    0.000000
    84  O2    c     0.903590    0.112464    0.139769    0.000000
    85  O2    c     0.208191    0.110977    0.359970    0.000000
    86  O2    c     0.920525    0.791138    0.023546    0.000000
    87  O2    c     0.877201    0.088051    0.691987    0.000000
    88  O2    c     0.780749    0.863772    0.859885    0.000000
    89  O2    c     0.081483    0.206086    0.524669    0.000000
    90  O2    c     0.115365    0.882164    0.192240    0.000000
    91  O2    c     0.925658    0.851484    0.247773    0.000000
    92  O2    c     0.123386    0.056503    0.579697    0.000000
    93  O2    c     0.928791    0.064624    0.913156    0.000000
    94  O2    c     0.069160    0.136297    0.747228    0.000000
    95  O2    c     0.863652    0.929941    0.081069    0.000000
    96  O2    c     0.059246    0.914626    0.414228    0.000000
    97  O2    c     0.907635    0.202615    0.977399    0.000000
    98  O2    c     0.792014    0.684879    0.311352    0.000000
    99  O2    c     0.294172    0.103199    0.642154    0.000000
   100  O2    c     0.091904    0.787315    0.478495    0.000000
   101  O2    c     0.196358    0.292875    0.812466    0.000000
   102  O2    c     0.697676    0.883502    0.146074    0.000000
   103  O2    c     0.197261    0.886008    0.352483    0.000000
   104  O2    c     0.697717    0.785048    0.020074    0.000000
   105  O2    c     0.098375    0.301535    0.684870    0.000000
   106  O2    c     0.786414    0.084267    0.851156    0.000000
   107  O2    c     0.295162    0.195385    0.519159    0.000000
   108  O3    c     0.884982    0.680742    0.185006    0.000000
   109  O2    c     0.322547    0.626094    0.250210    0.000000
   110  O2    c     0.346857    0.672786    0.581520    0.000000
   111  O2    c     0.318884    0.666538    0.919742    0.000000
   112  O2    c     0.668269    0.335388    0.747190    0.000000
   113  O3    c     0.631919    0.311247    0.085910    0.000000
   114  O2    c     0.671299    0.310698    0.415513    0.000000
   115  O2    c     0.369829    0.318052    0.967990    0.000000
   116  O2    c     0.664047    0.029429    0.303576    0.000000
   117  O2    c     0.950374    0.620657    0.636041    0.000000
   118  O2    c     0.620453    0.660673    0.469676    0.000000
   119  O2    c     0.317887    0.940506    0.800701    0.000000
   120  O2    c     0.034429    0.360704    0.137565    0.000000
   121  O2    c     0.325302    0.359786    0.361921    0.000000
   122  O2    c     0.048325    0.668633    0.032517    0.000000
   123  O3    c     0.631687    0.942162    0.691465    0.000000
   124  O2    c     0.661944    0.615798    0.860459    0.000000
   125  O2    c     0.949607    0.321418    0.526954    0.000000
   126  O2    c     0.363241    0.016540    0.195601    0.000000
   127  O3    c     0.769719    0.289698    0.011917    0.000000
   128  O2    c     0.691692    0.453913    0.342818    0.000000
   129  O2    c     0.525475    0.219433    0.675429    0.000000
   130  O2    c     0.222081    0.687125    0.508852    0.000000
   131  O2    c     0.299375    0.525252    0.844850    0.000000
   132  O2    c     0.467540    0.749741    0.177064    0.000000
   133  O2    c     0.298898    0.753943    0.322144    0.000000
   134  O2    c     0.466503    0.684656    0.990562    0.000000
   135  O2    c     0.224934    0.528431    0.653284    0.000000
   136  O2    c     0.684293    0.213100    0.818487    0.000000
   137  O2    c     0.526816    0.293472    0.488368    0.000000
   138  O3    c     0.747488    0.442315    0.160119    0.000000
   139  O3    c     0.790540    0.540473    0.026099    0.000000
   140  O2    c     0.459552    0.235724    0.360382    0.000000
   141  O2    c     0.733999    0.196484    0.692022    0.000000
   142  O2    c     0.208690    0.457937    0.526571    0.000000
   143  O2    c     0.529131    0.742372    0.863231    0.000000
   144  O2    c     0.246241    0.760022    0.194146    0.000000
   145  O2    c     0.531927    0.771017    0.305444    0.000000
   146  O2    c     0.246706    0.453506    0.973019    0.000000
   147  O2    c     0.207852    0.742691    0.638262    0.000000
   148  O2    c     0.459108    0.194826    0.798923    0.000000
   149  O2    c     0.743222    0.524807    0.470666    0.000000
   150  O2    c     0.777587    0.240980    0.135729    0.000000
   151  O2    c     0.225917    0.314244    0.896913    0.000000
   152  O2    c     0.674971    0.892908    0.231230    0.000000
   153  O2    c     0.086837    0.761076    0.563475    0.000000
   154  O2    c     0.762374    0.665300    0.396701    0.000000
   155  O2    c     0.314907    0.071628    0.727020    0.000000
   156  O2    c     0.907589    0.227446    0.064814    0.000000
   157  O2    c     0.317619    0.220021    0.434539    0.000000
   158  O3    c     0.905653    0.686248    0.100111    0.000000
   159  O2    c     0.755247    0.076899    0.765493    0.000000
   160  O2    c     0.673889    0.756753    0.934989    0.000000
   161  O2    c     0.083853    0.315532    0.599837    0.000000
   162  O2    c     0.222921    0.884483    0.267783    0.000000
   163  O2    c     0.586322    0.546547    0.989397    0.000000
   164  O2    c     0.433705    0.012063    0.322691    0.000000
   165  O2    c     0.965329    0.405844    0.655900    0.000000
   166  O2    c     0.407284    0.432553    0.489929    0.000000
   167  O2    c     0.547038    0.958709    0.820210    0.000000
   168  O3    c     0.033238    0.576005    0.161396    0.000000
   169  O2    c     0.554180    0.573994    0.341607    0.000000
   170  O2    c     0.019220    0.438135    0.013148    0.000000
   171  O3    c     0.394944    0.962186    0.665281    0.000000
   172  O2    c     0.433517    0.400042    0.840958    0.000000
   173  O2    c     0.963390    0.550276    0.507641    0.000000
   174  O2    c     0.583352    0.008345    0.175596    0.000000
   175  O2    c     0.573899    0.145483    0.249406    0.000000
   176  O2    c     0.826452    0.408183    0.581700    0.000000
   177  O2    c     0.578516    0.406187    0.913521    0.000000
   178  O3    c     0.394068    0.801056    0.752714    0.000000
   179  O2    c     0.158114    0.571363    0.085931    0.000000
   180  O2    c     0.412512    0.571491    0.415983    0.000000
   181  F     c     0.447572    0.883519    0.248397    0.000000
   182  F     c     0.081603    0.536633    0.581627    0.000000
   183  F     c     0.448184    0.535810    0.916385    0.000000
   184  F     c     0.519433    0.039545    0.738330    0.000000
   185  F     c     0.889793    0.468217    0.091450    0.000000
   186  F     c     0.541511    0.439579    0.415495    0.000000
   187  O2    s     0.918042    0.993702    0.996637    0.000000
   188  O2    s     0.996613    0.912197    0.331045    0.000000
   189  O2    s     0.069254    0.070777    0.663724    0.000000
   190  O2    s     0.068400    0.992681    0.496489    0.000000
   191  O2    s     0.991372    0.063708    0.829539    0.000000
   192  O2    s     0.926137    0.915139    0.164252    0.000000
   193  O2    s     0.349073    0.572257    0.333123    0.000000
   194  O3    s     0.405530    0.756461    0.664361    0.000000
   195  O2    s     0.235707    0.638632    0.003003    0.000000
   196  O2    s     0.638285    0.400850    0.830061    0.000000
   197  O2    s     0.569545    0.205557    0.166539    0.000000
   198  O2    s     0.759140    0.343070    0.498396    0.000000
   199  O3    s     0.577502    0.340116    0.995866    0.000000
   200  O2    s     0.760535    0.404269    0.664794    0.000000
   201  O2    s     0.640700    0.219961    0.332538    0.000000
   202  O2    s     0.407485    0.639552    0.499016    0.000000
   203  O2    s     0.236425    0.566671    0.167430    0.000000
   204  O2    s     0.342935    0.756079    0.838350    0.000000
   205  O2    s     0.119992    0.204613    0.967679    0.000000
   206  O2    s     0.779367    0.892469    0.302994    0.000000
   207  O2    s     0.091165    0.874041    0.634771    0.000000
   208  O2    s     0.871299    0.772857    0.468664    0.000000
   209  O2    s     0.209299    0.084433    0.799795    0.000000
   210  O2    s     0.897898    0.109818    0.136975    0.000000
   211  O2    s     0.211477    0.107685    0.362498    0.000000
   212  O2    s     0.912471    0.787579    0.026593    0.000000
   213  O2    s     0.879685    0.093582    0.694533    0.000000
   214  O2    s     0.777452    0.867418    0.862351    0.000000
   215  O2    s     0.088086    0.209304    0.527346    0.000000
   216  O2    s     0.113254    0.876979    0.194909    0.000000
   217  O2    s     0.923565    0.847283    0.248168    0.000000
   218  O2    s     0.127743    0.059196    0.579868    0.000000
   219  O2    s     0.927008    0.065043    0.913279    0.000000
   220  O2    s     0.070139    0.138573    0.747489    0.000000
   221  O2    s     0.860448    0.926824    0.081125    0.000000
   222  O2    s     0.061401    0.914020    0.414336    0.000000
   223  O2    s     0.913693    0.202592    0.980254    0.000000
   224  O2    s     0.790598    0.690980    0.313971    0.000000
   225  O2    s     0.287741    0.093177    0.644539    0.000000
   226  O2    s     0.084176    0.785837    0.480990    0.000000
   227  O2    s     0.198061    0.286780    0.814901    0.000000
   228  O2    s     0.703822    0.891572    0.148661    0.000000
   229  O2    s     0.198678    0.893443    0.349770    0.000000
   230  O2    s     0.703639    0.784233    0.017192    0.000000
   231  O2    s     0.090330    0.294441    0.682326    0.000000
   232  O2    s     0.785397    0.076997    0.848495    0.000000
   233  O2    s     0.288958    0.196606    0.516394    0.000000
   234  O3    s     0.894216    0.690324    0.183517    0.000000
   235  O2    s     0.328355    0.638241    0.250172    0.000000
   236  O2    s     0.336060    0.666880    0.581375    0.000000
   237  O2    s     0.324862    0.660841    0.919609    0.000000
   238  O2    s     0.662651    0.325244    0.747303    0.000000
   239  O3    s     0.642095    0.315856    0.086294    0.000000
   240  O2    s     0.665469    0.316631    0.415534    0.000000
   241  O2    s     0.372715    0.328132    0.965845    0.000000
   242  O2    s     0.654181    0.022439    0.301366    0.000000
   243  O2    s     0.957170    0.616990    0.633772    0.000000
   244  O2    s     0.617149    0.650540    0.467438    0.000000
   245  O2    s     0.326902    0.946949    0.798649    0.000000
   246  O2    s     0.028401    0.363493    0.135628    0.000000
   247  O2    s     0.335389    0.363110    0.364191    0.000000
   248  O2    s     0.041967    0.658941    0.034255    0.000000
   249  O3    s     0.632796    0.953137    0.694181    0.000000
   250  O2    s     0.652149    0.612399    0.862886    0.000000
   251  O2    s     0.956341    0.331601    0.529283    0.000000
   252  O2    s     0.366652    0.009959    0.197847    0.000000
   253  O3    s     0.778166    0.296675    0.014278    0.000000
   254  O2    s     0.684091    0.453474    0.345912    0.000000
   255  O2    s     0.526730    0.213107    0.677789    0.000000
   256  O2    s     0.215235    0.679918    0.512028    0.000000
   257  O2    s     0.306559    0.525414    0.847956    0.000000
   258  O2    s     0.466927    0.757172    0.180285    0.000000
   259  O2    s     0.306473    0.760907    0.319041    0.000000
   260  O2    s     0.465585    0.677121    0.987391    0.000000
   261  O2    s     0.217483    0.528287    0.650467    0.000000
   262  O2    s     0.677313    0.206825    0.815691    0.000000
   263  O2    s     0.527384    0.301013    0.485257    0.000000
   264  O3    s     0.751651    0.437897    0.156360    0.000000
   265  O3    s     0.795197    0.539001    0.028790    0.000000
   266  O2    s     0.462234    0.243850    0.363007    0.000000
   267  O2    s     0.728017    0.193637    0.694223    0.000000
   268  O2    s     0.203422    0.460638    0.529117    0.000000
   269  O2    s     0.526592    0.734260    0.865657    0.000000
   270  O2    s     0.253884    0.765497    0.196780    0.000000
   271  O2    s     0.529162    0.775925    0.302822    0.000000
   272  O2    s     0.254759    0.456478    0.970341    0.000000
   273  O2    s     0.202891    0.735717    0.635537    0.000000
   274  O2    s     0.461691    0.191295    0.796894    0.000000
   275  O2    s     0.735341    0.521940    0.468071    0.000000
   276  O2    s     0.782364    0.246922    0.133966    0.000000
   277  O2    s     0.235692    0.323789    0.897816    0.000000
   278  O2    s     0.665203    0.892509    0.232029    0.000000
   279  O2    s     0.086864    0.751589    0.564299    0.000000
   280  O2    s     0.753062    0.655710    0.397547    0.000000
   281  O2    s     0.323248    0.072894    0.728207    0.000000
   282  O2    s     0.906552    0.235266    0.065574    0.000000
   283  O2    s     0.327264    0.229432    0.433612    0.000000
   284  O3    s     0.905853    0.676599    0.097514    0.000000
   285  O2    s     0.746882    0.076961    0.765099    0.000000
   286  O2    s     0.664276    0.747602    0.934039    0.000000
   287  O2    s     0.084508    0.325542    0.598940    0.000000
   288  O2    s     0.232272    0.884553    0.266887    0.000000
   289  O2    s     0.581671    0.547224    0.986115    0.000000
   290  O2    s     0.433688    0.007192    0.319428    0.000000
   291  O2    s     0.970414    0.410813    0.652420    0.000000
   292  O2    s     0.411854    0.432164    0.486543    0.000000
   293  O2    s     0.548296    0.963051    0.817434    0.000000
   294  O3    s     0.030802    0.569855    0.157524    0.000000
   295  O2    s     0.554595    0.569530    0.344973    0.000000
   296  O2    s     0.016544    0.437427    0.015986    0.000000
   297  O3    s     0.398892    0.971416    0.669013    0.000000
   298  O2    s     0.433659    0.405202    0.844359    0.000000
   299  O2    s     0.968510    0.550516    0.511017    0.000000
   300  O2    s     0.578399    0.003009    0.179010    0.000000
   301  O2    s     0.568341    0.134259    0.249502    0.000000
   302  O2    s     0.837983    0.414068    0.581693    0.000000
   303  O2    s     0.572819    0.411627    0.913516    0.000000
   304  O3    s     0.399323    0.813705    0.754549    0.000000
   305  O2    s     0.148882    0.566889    0.085607    0.000000
   306  O2    s     0.418038    0.565938    0.416010    0.000000
   307  F     s     0.447414    0.882942    0.248217    0.000000
   308  F     s     0.080898    0.536204    0.581624    0.000000
   309  F     s     0.448004    0.535793    0.916384    0.000000
   310  F     s     0.515437    0.029158    0.735790    0.000000
   311  F     s     0.888613    0.473646    0.093742    0.000000
   312  F     s     0.541583    0.439266    0.415471    0.000000
--------------------------------------------------------------------------------

  Final Cartesian lattice vectors (Angstroms) :

       12.003465    0.001435    0.000976
       -5.986559   10.343869    0.004583
        0.286807   -0.374833   29.441960


  Final cell parameters and derivatives :

--------------------------------------------------------------------------------
       a           12.003465 Angstrom     dE/de1(xx)     0.003641 eV/strain
       b           11.951341 Angstrom     dE/de2(yy)     0.002925 eV/strain
       c           29.445743 Angstrom     dE/de3(zz)     0.003660 eV/strain
       alpha       90.888864 Degrees      dE/de4(yz)    -0.000425 eV/strain
       beta        89.437348 Degrees      dE/de5(xz)     0.000847 eV/strain
       gamma      120.053448 Degrees      dE/de6(xy)    -0.000299 eV/strain
--------------------------------------------------------------------------------

  Primitive cell volume =          3655.853382 Angs**3

  Density of cell =      1.750095 g/cm**3

  Non-primitive cell volume =          3655.853382 Angs**3


  Final internal derivatives :

--------------------------------------------------------------------------------
   No.  Atomic          a             b             c           Radius
        Label          (eV)          (eV)          (eV)        (eV/Angs)
--------------------------------------------------------------------------------
      1 Ge    c       0.000000      0.000000      0.000000      0.000000
      2 Si    c      -0.000064      0.000196     -0.000052      0.000000
      3 Si    c       0.000047      0.000008     -0.000294      0.000000
      4 Si    c      -0.000007      0.000120      0.000125      0.000000
      5 Si    c       0.000092      0.000071      0.000067      0.000000
      6 Si    c      -0.000019      0.000083      0.000109      0.000000
      7 Si    c       0.000046      0.000268     -0.000124      0.000000
      8 Si    c       0.000385     -0.000074     -0.000633      0.000000
      9 Si    c       0.000007      0.000128     -0.000081      0.000000
     10 Si    c       0.000000     -0.000108      0.000124      0.000000
     11 Si    c      -0.000018      0.000123      0.000078      0.000000
     12 Si    c       0.000782     -0.001590      0.006895      0.000000
     13 Si    c      -0.004171      0.003617     -0.008885      0.000000
     14 Si    c       0.000025      0.000014      0.000108      0.000000
     15 Si    c       0.000016      0.000052      0.000024      0.000000
     16 Si    c       0.000027      0.000112      0.000037      0.000000
     17 Si    c      -0.000011      0.000222      0.000504      0.000000
     18 Si    c       0.000070      0.000558      0.000861      0.000000
     19 Si    c       0.000069      0.000079      0.000033      0.000000
     20 Si    c       0.000206      0.000227     -0.000099      0.000000
     21 Ge    c       0.000056      0.000133     -0.000206      0.000000
     22 Si    c      -0.000216      0.000238     -0.000241      0.000000
     23 Si    c      -0.000017      0.000067      0.000112      0.000000
     24 Si    c      -0.000102      0.000412     -0.000476      0.000000
     25 Si    c       0.000022      0.000045     -0.000327      0.000000
     26 Si    c       0.000120      0.000068      0.000317      0.000000
     27 Si    c      -0.000016      0.000138      0.000034      0.000000
     28 Si    c       0.000011      0.000111      0.000027      0.000000
     29 Si    c       0.000037      0.000066     -0.000221      0.000000
     30 Si    c       0.002511     -0.002140     -0.001279      0.000000
     31 Si    c       0.000001      0.000104      0.000085      0.000000
     32 Ge    c       0.000808     -0.000511      0.003076      0.000000
     33 Si    c      -0.000126      0.000118      0.000198      0.000000
     34 Si    c       0.000022     -0.000046      0.000196      0.000000
     35 Si    c      -0.000015      0.000013      0.000028      0.000000
     36 Si    c       0.000133      0.000084     -0.000258      0.000000
     37 Si    c       0.000162      0.000145     -0.000264      0.000000
     38 Si    c      -0.000037      0.000149     -0.000224      0.000000
     39 Si    c       0.000012      0.000128     -0.000015      0.000000
     40 Si    c       0.000000      0.000156      0.000099      0.000000
     41 Si    c       0.000093      0.000023      0.000281      0.000000
     42 Si    c       0.000423     -0.000432      0.000780      0.000000
     43 Si    c      -0.000010      0.000103     -0.000062      0.000000
     44 Si    c      -0.000258      0.000958     -0.002212      0.000000
     45 Si    c      -0.000001      0.000080     -0.000219      0.000000
     46 Si    c      -0.000056      0.000204     -0.000208      0.000000
     47 Si    c      -0.000021      0.000042      0.000064      0.000000
     48 Si    c       0.000032      0.000073      0.000261      0.000000
     49 Si    c      -0.000254     -0.000111     -0.000036      0.000000
     50 Si    c      -0.000080      0.000154      0.000263      0.000000
     51 Si    c       0.000085      0.000104     -0.000002      0.000000
     52 Si    c      -0.000008      0.000057      0.000038      0.000000
     53 Si    c       0.000082      0.000093      0.000490      0.000000
     54 Si    c       0.000429     -0.000328     -0.000524      0.000000
     55 Si    c       0.000051      0.000142      0.000033      0.000000
     56 Si    c      -0.001258      0.002446      0.002402      0.000000
     57 Si    c      -0.000182      0.000248     -0.000875      0.000000
     58 Si    c       0.000054      0.000037     -0.000499      0.000000
     59 Si    c       0.000029      0.000126     -0.000121      0.000000
     60 Si    c      -0.000113      0.000050     -0.000550      0.000000
     61 O2    c       0.000753      0.000065     -0.001533      0.000000
     62 O2    c       0.000032      0.000128      0.000102      0.000000
     63 O2    c       0.000002      0.000056      0.000244      0.000000
     64 O2    c      -0.000006      0.000144      0.000212      0.000000
     65 O2    c      -0.000063      0.000060      0.000218      0.000000
     66 O2    c      -0.000007      0.000109     -0.000109      0.000000
     67 O2    c      -0.000052      0.000197     -0.000100      0.000000
     68 O3    c       0.000046      0.000046      0.000159      0.000000
     69 O2    c      -0.000158      0.000602      0.000149      0.000000
     70 O2    c       0.000110      0.000085     -0.000202      0.000000
     71 O2    c      -0.000243     -0.000090      0.000447      0.000000
     72 O2    c       0.000008      0.000073      0.000045      0.000000
     73 O3    c      -0.001734     -0.005088     -0.004009      0.000000
     74 O2    c      -0.000004      0.000113      0.000043      0.000000
     75 O2    c       0.000090      0.000045     -0.000141      0.000000
     76 O2    c       0.000005      0.000120      0.000005      0.000000
     77 O2    c       0.000099      0.000062     -0.000159      0.000000
     78 O2    c      -0.000088      0.000166     -0.000057      0.000000
     79 O2    c       0.000463      0.000011      0.000526      0.000000
     80 O2    c       0.000046      0.000131     -0.000001      0.000000
     81 O2    c       0.000017     -0.000017      0.000075      0.000000
     82 O2    c      -0.000022      0.000119      0.000018      0.000000
     83 O2    c      -0.000015      0.000092      0.000078      0.000000
     84 O2    c       0.000232     -0.000120      0.000349      0.000000
     85 O2    c       0.000011      0.000110      0.000011      0.000000
     86 O2    c       0.003772     -0.004008     -0.001470      0.000000
     87 O2    c       0.000035      0.000065      0.000004      0.000000
     88 O2    c       0.000041      0.000042     -0.000066      0.000000
     89 O2    c      -0.000064      0.000148      0.000074      0.000000
     90 O2    c       0.000227      0.000062      0.000120      0.000000
     91 O2    c       0.000084      0.000090     -0.000378      0.000000
     92 O2    c       0.000005      0.000042      0.000482      0.000000
     93 O2    c       0.000071      0.000029      0.000169      0.000000
     94 O2    c       0.000179     -0.000074      0.001113      0.000000
     95 O2    c       0.000137     -0.000037      0.000909      0.000000
     96 O2    c       0.000002      0.000085      0.000093      0.000000
     97 O2    c      -0.000438      0.000631      0.000213      0.000000
     98 O2    c       0.000033      0.000057     -0.000014      0.000000
     99 O2    c      -0.000030      0.000116      0.000072      0.000000
    100 O2    c       0.000032      0.000042      0.000086      0.000000
    101 O2    c       0.000039      0.000081      0.000083      0.000000
    102 O2    c      -0.000087      0.000109      0.000161      0.000000
    103 O2    c       0.000113      0.000063      0.000070      0.000000
    104 O2    c      -0.001960      0.000202     -0.000957      0.000000
    105 O2    c       0.000003      0.000120      0.000076      0.000000
    106 O2    c      -0.000015      0.000138      0.000166      0.000000
    107 O2    c       0.000019      0.000092      0.000117      0.000000
    108 O3    c      -0.000081      0.000429     -0.000513      0.000000
    109 O2    c       0.000044      0.000145      0.000197      0.000000
    110 O2    c      -0.000009      0.000081      0.000032      0.000000
    111 O2    c      -0.000072      0.000227     -0.000163      0.000000
    112 O2    c       0.000031      0.000155     -0.000069      0.000000
    113 O3    c      -0.003176     -0.000582     -0.002906      0.000000
    114 O2    c       0.000057      0.000075      0.000158      0.000000
    115 O2    c       0.000063      0.000033     -0.000161      0.000000
    116 O2    c       0.000024      0.000175      0.000060      0.000000
    117 O2    c      -0.000033      0.000092      0.000124      0.000000
    118 O2    c      -0.000039      0.000137      0.000010      0.000000
    119 O2    c       0.000034      0.000083     -0.000019      0.000000
    120 O2    c       0.000189     -0.000247      0.000383      0.000000
    121 O2    c      -0.000013      0.000131      0.000025      0.000000
    122 O2    c       0.000880      0.000167     -0.000521      0.000000
    123 O3    c      -0.000013      0.000088      0.000056      0.000000
    124 O2    c       0.000050      0.000041     -0.000138      0.000000
    125 O2    c      -0.000029      0.000091      0.000034      0.000000
    126 O2    c      -0.000171      0.000160      0.000042      0.000000
    127 O3    c      -0.002221     -0.000613     -0.002141      0.000000
    128 O2    c       0.000019      0.000107      0.000053      0.000000
    129 O2    c       0.000029      0.000101      0.000061      0.000000
    130 O2    c       0.000003      0.000078      0.000011      0.000000
    131 O2    c      -0.000010      0.000126     -0.000006      0.000000
    132 O2    c       0.000125      0.000120     -0.000153      0.000000
    133 O2    c       0.000017      0.000184      0.000050      0.000000
    134 O2    c       0.000022      0.000136      0.000023      0.000000
    135 O2    c       0.000039      0.000080      0.000154      0.000000
    136 O2    c      -0.000004      0.000108     -0.000074      0.000000
    137 O2    c       0.000030      0.000091     -0.000017      0.000000
    138 O3    c       0.000162      0.000997      0.002323      0.000000
    139 O3    c      -0.002052      0.000219     -0.004040      0.000000
    140 O2    c       0.000058      0.000104     -0.000037      0.000000
    141 O2    c      -0.000008      0.000111      0.000009      0.000000
    142 O2    c       0.000030      0.000070     -0.000129      0.000000
    143 O2    c       0.000019      0.000107      0.000038      0.000000
    144 O2    c      -0.000109      0.000221     -0.000171      0.000000
    145 O2    c      -0.000003      0.000175     -0.000007      0.000000
    146 O2    c      -0.000073      0.000257      0.000138      0.000000
    147 O2    c      -0.000013      0.000118      0.000081      0.000000
    148 O2    c       0.000023      0.000084     -0.000003      0.000000
    149 O2    c       0.000028      0.000077      0.000051      0.000000
    150 O2    c      -0.000096      0.000072      0.000478      0.000000
    151 O2    c      -0.000027      0.000026      0.000057      0.000000
    152 O2    c       0.000045      0.000146      0.000205      0.000000
    153 O2    c      -0.000016      0.000090      0.000086      0.000000
    154 O2    c       0.000027      0.000135     -0.000024      0.000000
    155 O2    c      -0.000068      0.000105      0.000186      0.000000
    156 O2    c       0.000224     -0.000411      0.000528      0.000000
    157 O2    c       0.000000      0.000097      0.000066      0.000000
    158 O3    c      -0.000823      0.003517     -0.003315      0.000000
    159 O2    c       0.000091      0.000039      0.000056      0.000000
    160 O2    c       0.000149      0.000188      0.000155      0.000000
    161 O2    c      -0.000001      0.000085      0.000116      0.000000
    162 O2    c       0.000042      0.000134     -0.000021      0.000000
    163 O2    c       0.000378      0.000283      0.001033      0.000000
    164 O2    c       0.000069      0.000120     -0.000000      0.000000
    165 O2    c      -0.000018      0.000095      0.000062      0.000000
    166 O2    c      -0.000026      0.000149      0.000042      0.000000
    167 O2    c       0.000033      0.000082     -0.000045      0.000000
    168 O3    c       0.000556      0.000183     -0.000302      0.000000
    169 O2    c      -0.000035      0.000150      0.000051      0.000000
    170 O2    c       0.000589      0.000239     -0.000133      0.000000
    171 O3    c      -0.000001      0.000066     -0.000102      0.000000
    172 O2    c       0.000065      0.000050     -0.000027      0.000000
    173 O2    c      -0.000038      0.000088     -0.000048      0.000000
    174 O2    c       0.000268     -0.000028     -0.000516      0.000000
    175 O2    c       0.000104      0.000198      0.000557      0.000000
    176 O2    c      -0.000005      0.000079     -0.000038      0.000000
    177 O2    c      -0.000027     -0.000028     -0.000639      0.000000
    178 O3    c       0.000054     -0.000167     -0.000252      0.000000
    179 O2    c       0.000301      0.000158      0.000196      0.000000
    180 O2    c      -0.000034      0.000174      0.000123      0.000000
    181 F     c       0.000017      0.000253     -0.000498      0.000000
    182 F     c      -0.000012      0.000079      0.000020      0.000000
    183 F     c       0.000012      0.000087      0.000085      0.000000
    184 F     c       0.000013      0.000115     -0.000019      0.000000
    185 F     c      -0.000176      0.000332     -0.001075      0.000000
    186 F     c       0.000001      0.000125     -0.000042      0.000000
    187 O2    s      -0.000173      0.000956     -0.000138      0.000000
    188 O2    s       0.000047      0.000174     -0.000136      0.000000
    189 O2    s      -0.000019      0.000081     -0.000321      0.000000
    190 O2    s       0.000008      0.000121     -0.000226      0.000000
    191 O2    s       0.000096      0.000038     -0.000278      0.000000
    192 O2    s       0.000070      0.000242      0.000467      0.000000
    193 O2    s       0.000051      0.000102     -0.000015      0.000000
    194 O3    s       0.000002      0.000112     -0.000080      0.000000
    195 O2    s       0.000165     -0.000352     -0.000195      0.000000
    196 O2    s       0.000036      0.000140      0.000402      0.000000
    197 O2    s       0.000164      0.000039      0.000437      0.000000
    198 O2    s      -0.000003      0.000092      0.000006      0.000000
    199 O3    s       0.001451      0.004775      0.004848      0.000000
    200 O2    s      -0.000008      0.000100     -0.000040      0.000000
    201 O2    s       0.000040      0.000130      0.000004      0.000000
    202 O2    s      -0.000017      0.000114     -0.000033      0.000000
    203 O2    s       0.000138      0.000128      0.000248      0.000000
    204 O2    s       0.000042      0.000038     -0.000072      0.000000
    205 O2    s       0.000355      0.000004     -0.000563      0.000000
    206 O2    s       0.000016      0.000150      0.000088      0.000000
    207 O2    s       0.000003      0.000082     -0.000021      0.000000
    208 O2    s       0.000002      0.000107      0.000060      0.000000
    209 O2    s       0.000037      0.000062     -0.000029      0.000000
    210 O2    s      -0.000036      0.000303     -0.000112      0.000000
    211 O2    s      -0.000006      0.000155     -0.000042      0.000000
    212 O2    s      -0.000166      0.000260      0.000344      0.000000
    213 O2    s      -0.000049      0.000056     -0.000150      0.000000
    214 O2    s       0.000109     -0.000053     -0.000132      0.000000
    215 O2    s      -0.000040      0.000105     -0.000118      0.000000
    216 O2    s      -0.000019      0.000272     -0.000321      0.000000
    217 O2    s      -0.000023      0.000128      0.000124      0.000000
    218 O2    s       0.000012      0.000107     -0.000263      0.000000
    219 O2    s       0.000036      0.000068     -0.000635      0.000000
    220 O2    s      -0.000012      0.000153     -0.000293      0.000000
    221 O2    s      -0.000286      0.001137      0.001981      0.000000
    222 O2    s      -0.000012      0.000136      0.000004      0.000000
    223 O2    s      -0.000192      0.000339     -0.000281      0.000000
    224 O2    s      -0.000054      0.000098     -0.000021      0.000000
    225 O2    s       0.000047      0.000084     -0.000200      0.000000
    226 O2    s      -0.000002      0.000066     -0.000036      0.000000
    227 O2    s      -0.000017      0.000128     -0.000128      0.000000
    228 O2    s      -0.000085      0.000226      0.000010      0.000000
    229 O2    s       0.000064      0.000126     -0.000040      0.000000
    230 O2    s      -0.000877     -0.000110      0.000147      0.000000
    231 O2    s      -0.000009      0.000164     -0.000080      0.000000
    232 O2    s      -0.000038      0.000158     -0.000168      0.000000
    233 O2    s       0.000025      0.000103     -0.000120      0.000000
    234 O3    s       0.000150     -0.000164      0.002449      0.000000
    235 O2    s       0.000043      0.000208     -0.000492      0.000000
    236 O2    s      -0.000001      0.000082     -0.000027      0.000000
    237 O2    s       0.000043     -0.000057     -0.000148      0.000000
    238 O2    s       0.000023      0.000098     -0.000067      0.000000
    239 O3    s       0.002723      0.001326      0.000196      0.000000
    240 O2    s      -0.000011      0.000125     -0.000042      0.000000
    241 O2    s      -0.000052      0.000050      0.000577      0.000000
    242 O2    s       0.000094      0.000214      0.000100      0.000000
    243 O2    s       0.000002      0.000082     -0.000095      0.000000
    244 O2    s       0.000007      0.000126      0.000074      0.000000
    245 O2    s      -0.000012      0.000067      0.000011      0.000000
    246 O2    s      -0.000127      0.000222     -0.000451      0.000000
    247 O2    s       0.000000      0.000100     -0.000096      0.000000
    248 O2    s      -0.000439     -0.000131     -0.000492      0.000000
    249 O3    s       0.000051      0.000019     -0.000131      0.000000
    250 O2    s       0.000094     -0.000031      0.000149      0.000000
    251 O2    s      -0.000013      0.000075     -0.000056      0.000000
    252 O2    s       0.000343      0.000096      0.000063      0.000000
    253 O3    s       0.000668      0.001882      0.002036      0.000000
    254 O2    s       0.000027      0.000108     -0.000155      0.000000
    255 O2    s       0.000002      0.000127     -0.000147      0.000000
    256 O2    s      -0.000020      0.000097     -0.000064      0.000000
    257 O2    s      -0.000004      0.000062     -0.000097      0.000000
    258 O2    s      -0.000048      0.000210      0.000338      0.000000
    259 O2    s       0.000008      0.000077      0.000205      0.000000
    260 O2    s       0.000184     -0.000127      0.000199      0.000000
    261 O2    s      -0.000015      0.000084     -0.000091      0.000000
    262 O2    s       0.000052      0.000120      0.000230      0.000000
    263 O2    s      -0.000001      0.000114      0.000106      0.000000
    264 O3    s      -0.000528      0.000126     -0.002311      0.000000
    265 O3    s       0.001742     -0.002424      0.003697      0.000000
    266 O2    s      -0.000005      0.000114      0.000004      0.000000
    267 O2    s       0.000017      0.000096     -0.000068      0.000000
    268 O2    s      -0.000044      0.000101      0.000122      0.000000
    269 O2    s       0.000032      0.000032     -0.000120      0.000000
    270 O2    s       0.000252      0.000062      0.000202      0.000000
    271 O2    s       0.000163     -0.000022      0.000189      0.000000
    272 O2    s      -0.000016      0.000055      0.000107      0.000000
    273 O2    s      -0.000012      0.000050     -0.000079      0.000000
    274 O2    s      -0.000003      0.000085      0.000072      0.000000
    275 O2    s      -0.000010      0.000114      0.000053      0.000000
    276 O2    s       0.000189      0.000172     -0.000761      0.000000
    277 O2    s       0.000014      0.000124      0.000136      0.000000
    278 O2    s       0.000069      0.000130     -0.000324      0.000000
    279 O2    s      -0.000012      0.000092     -0.000064      0.000000
    280 O2    s      -0.000015      0.000126     -0.000005      0.000000
    281 O2    s       0.000001      0.000101     -0.000036      0.000000
    282 O2    s       0.000095      0.000516      0.001074      0.000000
    283 O2    s      -0.000012      0.000129     -0.000021      0.000000
    284 O3    s      -0.000460     -0.001622      0.002007      0.000000
    285 O2    s       0.000016      0.000085     -0.000073      0.000000
    286 O2    s      -0.000188     -0.000111      0.000094      0.000000
    287 O2    s      -0.000008      0.000072     -0.000089      0.000000
    288 O2    s      -0.000008      0.000236      0.000015      0.000000
    289 O2    s      -0.000411     -0.000851     -0.002073      0.000000
    290 O2    s      -0.000008      0.000251      0.000110      0.000000
    291 O2    s      -0.000002      0.000083     -0.000026      0.000000
    292 O2    s       0.000000      0.000117      0.000038      0.000000
    293 O2    s       0.000015      0.000052      0.000097      0.000000
    294 O3    s       0.000051     -0.000204      0.002087      0.000000
    295 O2    s       0.000036      0.000113     -0.000159      0.000000
    296 O2    s      -0.000990      0.000549      0.000067      0.000000
    297 O3    s       0.000018      0.000004     -0.000167      0.000000
    298 O2    s       0.000066      0.000072      0.000005      0.000000
    299 O2    s      -0.000008      0.000077      0.000008      0.000000
    300 O2    s      -0.000132      0.000304      0.000619      0.000000
    301 O2    s       0.000003     -0.000002     -0.000675      0.000000
    302 O2    s      -0.000028      0.000091      0.000023      0.000000
    303 O2    s       0.000367      0.000295      0.000743      0.000000
    304 O3    s      -0.000006      0.000255      0.000006      0.000000
    305 O2    s       0.000183     -0.000261     -0.000117      0.000000
    306 O2    s      -0.000006      0.000116      0.000005      0.000000
    307 F     s       0.000144      0.000042      0.000639      0.000000
    308 F     s      -0.000029      0.000076     -0.000001      0.000000
    309 F     s       0.000075      0.000055     -0.000117      0.000000
    310 F     s       0.000024      0.000050      0.000149      0.000000
    311 F     s       0.000368     -0.001300      0.000480      0.000000
    312 F     s      -0.000005      0.000122      0.000098      0.000000
--------------------------------------------------------------------------------
  Maximum abs         0.004171      0.005088      0.008885      0.000000
--------------------------------------------------------------------------------


  Time to end of optimisation =      35.1658 seconds


  Peak dynamic memory used =      19.13 MB 


  Timing analysis for GULP :

--------------------------------------------------------------------------------
  Task / Subroutine                                          Time (Seconds)
--------------------------------------------------------------------------------
  Calculation of reciprocal space energy and derivatives          0.8430
  Calculation of real space energy and derivatives               30.8109
  Calculation of three-body energy and derivatives                3.0750
  Calculation of matrix inversion                                 0.3717
--------------------------------------------------------------------------------
  Total CPU time                                                 35.1659
--------------------------------------------------------------------------------


  Dump file written as out.res                                                 
  CIF file written as out.cif                                                 


  Job Finished at 13:49.14  2nd November   2016                               

