********************************************************************************
*                       GENERAL UTILITY LATTICE PROGRAM                        *
*                                 Julian Gale                                  *
*                      Nanochemistry Research Institute                        *
*                           Department of Chemistry                            *
*                    Curtin University, Western Australia                      *
********************************************************************************
* Version = 4.2.0 * Last modified =  20th January 2014                         *
********************************************************************************
*  optimise     - perform optimisation run                                     *
*  conp         - constant pressure calculation                                *
*  qok          - running with non charge neutral cell is OK                   *
********************************************************************************

  Job Started  at 01:30.20  4th November   2016                               

  Number of CPUs =     1


  Total number of configurations input =   1

********************************************************************************
*  Input for Configuration =   1                                               *
********************************************************************************

  Formula = Ge3Si57O120F6                                               

  Number of irreducible atoms/shells =     312


  Total number atoms/shells =     312

  Dimensionality = 3               :  Bulk   


  Charge on solid   =  -6.000000 =>neutralising background added


  Cartesian lattice vectors (Angstroms) :

       11.969728    0.000000    0.000000
       -6.023500   10.371562    0.000000
       -0.444010    0.009969   29.430930

  Cell parameters (Angstroms/Degrees):

  a =      11.9697    alpha =  89.5492
  b =      11.9938    beta  =  90.8643
  c =      29.4343    gamma = 120.1468

  Initial cell volume =        3653.696095 Angs**3

  Temperature of configuration =  0.000     K 

  Pressure of configuration =         0.000 GPa 

  Fractional coordinates of asymmetric unit :

--------------------------------------------------------------------------------
   No.  Atomic       x           y          z         Charge      Occupancy
        Label      (Frac)      (Frac)     (Frac)        (e)         (Frac)  
--------------------------------------------------------------------------------
      1 Ge    c    0.699600    0.375700    0.033890     4.00000    1.000000    
      2 Si    c    0.622357 *  0.323322 *  0.367978 *   4.00000    1.000000    
      3 Si    c    0.681341 *  0.309673 *  0.695362 *   4.00000    1.000000    
      4 Si    c    0.295472 *  0.617444 *  0.528332 *   4.00000    1.000000    
      5 Si    c    0.376063 *  0.676950 *  0.861607 *   4.00000    1.000000    
      6 Si    c    0.318765 *  0.702363 *  0.193648 *   4.00000    1.000000    
      7 Si    c    0.376444 *  0.699233 *  0.295920 *   4.00000    1.000000    
      8 Si    c    0.319388 *  0.623155 *  0.961866 *   4.00000    1.000000    
      9 Si    c    0.304129 *  0.671067 *  0.629101 *   4.00000    1.000000    
     10 Si    c    0.616672 *  0.300743 *  0.797393 *   4.00000    1.000000    
     11 Si    c    0.674801 *  0.382522 *  0.468551 *   4.00000    1.000000    
     12 Si    c    0.679067 *  0.309696 *  0.133113 *   4.00000    1.000000    
     13 Si    c    0.528408 *  0.417665 *  0.965512 *   4.00000    1.000000    
     14 Si    c    0.591308 *  0.119964 *  0.302538 *   4.00000    1.000000    
     15 Si    c    0.899436 *  0.477485 *  0.633486 *   4.00000    1.000000    
     16 Si    c    0.467450 *  0.583773 *  0.463122 *   4.00000    1.000000    
     17 Si    c    0.408908 *  0.883667 *  0.794892 *   4.00000    1.000000    
     18 Si    c    0.102985 *  0.527880 *  0.128215 *   4.00000    1.000000    
     19 Si    c    0.417958 *  0.527563 *  0.361626 *   4.00000    1.000000    
     20 Si    c    0.102585 *  0.579883 *  0.024729 *   4.00000    1.000000    
     21 Si    c    0.468343 *  0.882659 *  0.692217 *   4.00000    1.000000    
     22 Si    c    0.578845 *  0.470873 *  0.863129 *   4.00000    1.000000    
     23 Si    c    0.888424 *  0.419765 *  0.532490 *   4.00000    1.000000    
     24 Ge    c    0.525307 *  0.094779 *  0.203236 *   4.00000    1.000000    
     25 Si    c    0.298051 *  0.399773 *  0.847059 *   4.00000    1.000000    
     26 Si    c    0.603818 *  0.903950 *  0.177585 *   4.00000    1.000000    
     27 Si    c    0.096430 *  0.698828 *  0.515905 *   4.00000    1.000000    
     28 Si    c    0.697978 *  0.599199 *  0.349805 *   4.00000    1.000000    
     29 Ge    c    0.410898 *  0.098263 *  0.686738 *   4.00000    1.000000    
     30 Si    c    0.887598 *  0.293237 *  0.010507 *   4.00000    1.000000    
     31 Si    c    0.394559 *  0.303147 *  0.479976 *   4.00000    1.000000    
     32 Si    c    0.887426 *  0.596733 *  0.141157 *   4.00000    1.000000    
     33 Si    c    0.694811 *  0.097259 *  0.811421 *   4.00000    1.000000    
     34 Si    c    0.597770 *  0.699520 *  0.977930 *   4.00000    1.000000    
     35 Si    c    0.101537 *  0.395558 *  0.645375 *   4.00000    1.000000    
     36 Si    c    0.302618 *  0.904689 *  0.312792 *   4.00000    1.000000    
     37 Si    c    0.249194 *  0.343156 *  0.947619 *   4.00000    1.000000    
     38 Si    c    0.663110 *  0.914510 *  0.281038 *   4.00000    1.000000    
     39 Si    c    0.101588 *  0.755095 *  0.616828 *   4.00000    1.000000    
     40 Si    c    0.747142 *  0.662464 *  0.450383 *   4.00000    1.000000    
     41 Si    c    0.328363 *  0.086630 *  0.782334 *   4.00000    1.000000    
     42 Si    c    0.897884 *  0.245870 *  0.113703 *   4.00000    1.000000    
     43 Si    c    0.340167 *  0.249904 *  0.378723 *   4.00000    1.000000    
     44 Si    c    0.898393 *  0.658927 *  0.038573 *   4.00000    1.000000    
     45 Si    c    0.749952 *  0.092287 *  0.709909 *   4.00000    1.000000    
     46 Si    c    0.655888 *  0.749047 *  0.877318 *   4.00000    1.000000    
     47 Si    c    0.086367 *  0.337442 *  0.544558 *   4.00000    1.000000    
     48 Si    c    0.244809 *  0.913875 *  0.210439 *   4.00000    1.000000    
     49 Si    c    0.971597 *  0.123672 *  0.962294 *   4.00000    1.000000    
     50 Si    c    0.875923 *  0.844012 *  0.297143 *   4.00000    1.000000    
     51 Si    c    0.160302 *  0.034776 *  0.632302 *   4.00000    1.000000    
     52 Si    c    0.028285 *  0.879141 *  0.464276 *   4.00000    1.000000    
     53 Si    c    0.117286 *  0.150311 *  0.797745 *   4.00000    1.000000    
     54 Si    c    0.847774 *  0.969142 *  0.128908 *   4.00000    1.000000    
     55 Si    c    0.121510 *  0.969260 *  0.362892 *   4.00000    1.000000    
     56 Si    c    0.849194 *  0.882429 *  0.027684 *   4.00000    1.000000    
     57 Si    c    0.029490 *  0.146767 *  0.695475 *   4.00000    1.000000    
     58 Si    c    0.874337 *  0.027401 *  0.862081 *   4.00000    1.000000    
     59 Si    c    0.148062 *  0.120629 *  0.530623 *   4.00000    1.000000    
     60 Si    c    0.960043 *  0.842098 *  0.195075 *   4.00000    1.000000    
     61 O2    c    0.928689 *  0.004759 *  0.995959 *   0.87073    1.000000    
     62 O2    c    0.002393 *  0.927855 *  0.328112 *   0.87073    1.000000    
     63 O2    c    0.066401 *  0.064981 *  0.662701 *   0.87073    1.000000    
     64 O2    c    0.072790 *  0.002242 *  0.495919 *   0.87073    1.000000    
     65 O2    c    0.992020 *  0.071903 *  0.828297 *   0.87073    1.000000    
     66 O2    c    0.929794 *  0.932702 *  0.163168 *   0.87073    1.000000    
     67 O2    c    0.341707 *  0.576403 *  0.327726 *   0.87073    1.000000    
     68 O2    c    0.428795 *  0.754122 *  0.662147 *   0.87073    1.000000    
     69 O2    c    0.230613 *  0.657093 *  0.994005 *   0.87073    1.000000    
     70 O2    c    0.654668 *  0.421065 *  0.830948 *   0.87073    1.000000    
     71 O3    c    0.576384 *  0.235780 *  0.170587 *   1.33043    1.000000    
     72 O2    c    0.757726 *  0.343246 *  0.501826 *   0.87073    1.000000    
     73 O3    c    0.566592 *  0.337034 *  0.997722 *   1.33043    1.000000    
     74 O2    c    0.780418 *  0.437474 *  0.667611 *   0.87073    1.000000    
     75 O2    c    0.663362 *  0.233645 *  0.340036 *   0.87073    1.000000    
     76 O2    c    0.416151 *  0.658456 *  0.494523 *   0.87073    1.000000    
     77 O2    c    0.229618 *  0.579912 *  0.161087 *   0.87073    1.000000    
     78 O2    c    0.336559 *  0.760108 *  0.827903 *   0.87073    1.000000    
     79 O2    c    0.125177 *  0.216142 *  0.968218 *   0.87073    1.000000    
     80 O2    c    0.784740 *  0.906840 *  0.302173 *   0.87073    1.000000    
     81 O2    c    0.104951 *  0.880139 *  0.637881 *   0.87073    1.000000    
     82 O2    c    0.873661 *  0.790336 *  0.469843 *   0.87073    1.000000    
     83 O2    c    0.208773 *  0.089014 *  0.807282 *   0.87073    1.000000    
     84 O2    c    0.901608 *  0.121981 *  0.134591 *   0.87073    1.000000    
     85 O2    c    0.213866 *  0.123375 *  0.358003 *   0.87073    1.000000    
     86 O2    c    0.916411 *  0.796544 *  0.021800 *   0.87073    1.000000    
     87 O2    c    0.875092 *  0.091346 *  0.690568 *   0.87073    1.000000    
     88 O2    c    0.783356 *  0.873599 *  0.856999 *   0.87073    1.000000    
     89 O2    c    0.082815 *  0.209930 *  0.524487 *   0.87073    1.000000    
     90 O2    c    0.112363 *  0.900927 *  0.191591 *   0.87073    1.000000    
     91 O2    c    0.918905 *  0.850249 *  0.245757 *   0.87073    1.000000    
     92 O2    c    0.135550 *  0.065232 *  0.580572 *   0.87073    1.000000    
     93 O2    c    0.932915 *  0.067724 *  0.911966 *   0.87073    1.000000    
     94 O2    c    0.066537 *  0.131659 *  0.746479 *   0.87073    1.000000    
     95 O2    c    0.865496 *  0.934705 *  0.078574 *   0.87073    1.000000    
     96 O2    c    0.066178 *  0.927992 *  0.412920 *   0.87073    1.000000    
     97 O2    c    0.899739 *  0.202568 *  0.972818 *   0.87073    1.000000    
     98 O2    c    0.796989 *  0.694263 *  0.311412 *   0.87073    1.000000    
     99 O3    c    0.306821 *  0.109741 *  0.644469 *   1.33043    1.000000    
    100 O2    c    0.095868 *  0.795658 *  0.476976 *   0.87073    1.000000    
    101 O2    c    0.198814 *  0.302905 *  0.808473 *   0.87073    1.000000    
    102 O2    c    0.696224 *  0.887944 *  0.141404 *   0.87073    1.000000    
    103 O2    c    0.205224 *  0.901040 *  0.351302 *   0.87073    1.000000    
    104 O2    c    0.696241 *  0.799188 *  0.016241 *   0.87073    1.000000    
    105 O2    c    0.103254 *  0.298800 *  0.683733 *   0.87073    1.000000    
    106 O2    c    0.788956 *  0.094963 *  0.850816 *   0.87073    1.000000    
    107 O2    c    0.299622 *  0.207105 *  0.518556 *   0.87073    1.000000    
    108 O2    c    0.888153 *  0.693079 *  0.179902 *   0.87073    1.000000    
    109 O2    c    0.321809 *  0.650565 *  0.244712 *   0.87073    1.000000    
    110 O2    c    0.357991 *  0.673121 *  0.578364 *   0.87073    1.000000    
    111 O2    c    0.317314 *  0.679096 *  0.911240 *   0.87073    1.000000    
    112 O2    c    0.672423 *  0.354992 *  0.747162 *   0.87073    1.000000    
    113 O3    c    0.613054 *  0.299774 *  0.084201 *   1.33043    1.000000    
    114 O2    c    0.678643 *  0.327473 *  0.418694 *   0.87073    1.000000    
    115 O2    c    0.370916 *  0.332873 *  0.965288 *   0.87073    1.000000    
    116 O2    c    0.674563 *  0.044886 *  0.301254 *   0.87073    1.000000    
    117 O2    c    0.969307 *  0.632973 *  0.635079 *   0.87073    1.000000    
    118 O2    c    0.623903 *  0.673375 *  0.466356 *   0.87073    1.000000    
    119 O2    c    0.322371 *  0.952657 *  0.797734 *   0.87073    1.000000    
    120 O2    c    0.031976 *  0.372339 *  0.130226 *   0.87073    1.000000    
    121 O2    c    0.330770 *  0.371408 *  0.358224 *   0.87073    1.000000    
    122 O2    c    0.031065 *  0.663740 *  0.022534 *   0.87073    1.000000    
    123 O2    c    0.626022 *  0.959794 *  0.692610 *   0.87073    1.000000    
    124 O2    c    0.664793 *  0.626961 *  0.858685 *   0.87073    1.000000    
    125 O2    c    0.953559 *  0.329823 *  0.526972 *   0.87073    1.000000    
    126 O3    c    0.358233 *  0.044344 *  0.191903 *   1.33043    1.000000    
    127 O3    c    0.754276 *  0.285432 *  0.001104 *   1.33043    1.000000    
    128 O2    c    0.695853 *  0.464039 *  0.343288 *   0.87073    1.000000    
    129 O3    c    0.545312 *  0.249139 *  0.670337 *   1.33043    1.000000    
    130 O2    c    0.226724 *  0.693461 *  0.506709 *   0.87073    1.000000    
    131 O2    c    0.301499 *  0.535005 *  0.838142 *   0.87073    1.000000    
    132 O2    c    0.463235 *  0.771598 *  0.173466 *   0.87073    1.000000    
    133 O2    c    0.303949 *  0.770403 *  0.316586 *   0.87073    1.000000    
    134 O2    c    0.463568 *  0.700774 *  0.984477 *   0.87073    1.000000    
    135 O2    c    0.237894 *  0.528040 *  0.651389 *   0.87073    1.000000    
    136 O2    c    0.691373 *  0.228937 *  0.817443 *   0.87073    1.000000    
    137 O2    c    0.529750 *  0.306158 *  0.488647 *   0.87073    1.000000    
    138 O2    c    0.756309 *  0.462882 *  0.148592 *   0.87073    1.000000    
    139 O3    c    0.770704 *  0.545806 *  0.017805 *   1.33043    1.000000    
    140 O2    c    0.465793 *  0.246878 *  0.361142 *   0.87073    1.000000    
    141 O2    c    0.745536 *  0.217133 *  0.692355 *   0.87073    1.000000    
    142 O2    c    0.212747 *  0.461272 *  0.523963 *   0.87073    1.000000    
    143 O2    c    0.532820 *  0.755547 *  0.857168 *   0.87073    1.000000    
    144 O2    c    0.251633 *  0.789567 *  0.191826 *   0.87073    1.000000    
    145 O2    c    0.530886 *  0.790992 *  0.297570 *   0.87073    1.000000    
    146 O2    c    0.246899 *  0.467681 *  0.967085 *   0.87073    1.000000    
    147 O2    c    0.224619 *  0.746521 *  0.634979 *   0.87073    1.000000    
    148 O2    c    0.461695 *  0.211028 *  0.800412 *   0.87073    1.000000    
    149 O2    c    0.745676 *  0.538382 *  0.472392 *   0.87073    1.000000    
    150 O2    c    0.777781 *  0.251459 *  0.133942 *   0.87073    1.000000    
    151 O2    c    0.225995 *  0.326800 *  0.893230 *   0.87073    1.000000    
    152 O2    c    0.675447 *  0.914802 *  0.226661 *   0.87073    1.000000    
    153 O2    c    0.099973 *  0.772028 *  0.562191 *   0.87073    1.000000    
    154 O2    c    0.768520 *  0.675786 *  0.396041 *   0.87073    1.000000    
    155 O3    c    0.302493 *  0.090956 *  0.729656 *   1.33043    1.000000    
    156 O2    c    0.894016 *  0.230250 *  0.059354 *   0.87073    1.000000    
    157 O2    c    0.321359 *  0.232830 *  0.432982 *   0.87073    1.000000    
    158 O2    c    0.893645 *  0.667732 *  0.093964 *   0.87073    1.000000    
    159 O2    c    0.761417 *  0.094482 *  0.764645 *   0.87073    1.000000    
    160 O2    c    0.674142 *  0.768763 *  0.931718 *   0.87073    1.000000    
    161 O2    c    0.090611 *  0.319290 *  0.598865 *   0.87073    1.000000    
    162 O2    c    0.236253 *  0.911692 *  0.265681 *   0.87073    1.000000    
    163 O2    c    0.579208 *  0.559600 *  0.987641 *   0.87073    1.000000    
    164 O2    c    0.445479 *  0.023916 *  0.321561 *   0.87073    1.000000    
    165 O2    c    0.980659 *  0.415353 *  0.655785 *   0.87073    1.000000    
    166 O2    c    0.410588 *  0.443557 *  0.486750 *   0.87073    1.000000    
    167 O2    c    0.551898 *  0.976215 *  0.815854 *   0.87073    1.000000    
    168 O2    c    0.012507 *  0.579505 *  0.148115 *   0.87073    1.000000    
    169 O2    c    0.559750 *  0.588423 *  0.338999 *   0.87073    1.000000    
    170 O2    c    0.012846 *  0.437178 *  0.004371 *   0.87073    1.000000    
    171 O3    c    0.408063 *  0.957943 *  0.666488 *   1.33043    1.000000    
    172 O2    c    0.436680 *  0.410806 *  0.839565 *   0.87073    1.000000    
    173 O2    c    0.967953 *  0.560261 *  0.508293 *   0.87073    1.000000    
    174 O3    c    0.597725 *  0.029013 *  0.166297 *   1.33043    1.000000    
    175 O3    c    0.596245 *  0.183828 *  0.254887 *   1.33043    1.000000    
    176 O2    c    0.838751 *  0.419559 *  0.583535 *   0.87073    1.000000    
    177 O2    c    0.582314 *  0.422670 *  0.914251 *   0.87073    1.000000    
    178 O2    c    0.413055 *  0.836222 *  0.743810 *   0.87073    1.000000    
    179 O2    c    0.148722 *  0.577158 *  0.076960 *   0.87073    1.000000    
    180 O2    c    0.414523 *  0.582147 *  0.411593 *   0.87073    1.000000    
    181 F     c    0.470161 *  0.945773 *  0.238124 *   0.56000    1.000000    
    182 F     c    0.097628 *  0.543949 *  0.579606 *   0.56000    1.000000    
    183 F     c    0.447538 *  0.554707 *  0.910717 *   0.56000    1.000000    
    184 F     c    0.516307 *  0.095363 *  0.735229 *   0.56000    1.000000    
    185 F     c    0.852797 *  0.434563 *  0.068809 *   0.56000    1.000000    
    186 F     c    0.545991 *  0.454386 *  0.412740 *   0.56000    1.000000    
    187 O2    s    0.924436 *  0.004335 *  0.995750 *  -2.87073    1.000000    
    188 O2    s    0.001538 *  0.923156 *  0.328523 *  -2.87073    1.000000    
    189 O2    s    0.071878 *  0.071038 *  0.663252 *  -2.87073    1.000000    
    190 O2    s    0.076016 *  0.001287 *  0.496141 *  -2.87073    1.000000    
    191 O2    s    0.992648 *  0.075658 *  0.828719 *  -2.87073    1.000000    
    192 O2    s    0.923989 *  0.926639 *  0.162915 *  -2.87073    1.000000    
    193 O2    s    0.352963 *  0.584716 *  0.327661 *  -2.87073    1.000000    
    194 O2    s    0.420171 *  0.758550 *  0.661797 *  -2.87073    1.000000    
    195 O2    s    0.226232 *  0.645680 *  0.993961 *  -2.87073    1.000000    
    196 O2    s    0.643051 *  0.413432 *  0.830654 *  -2.87073    1.000000    
    197 O3    s    0.584052 *  0.233780 *  0.168795 *  -3.33043    1.000000    
    198 O2    s    0.762351 *  0.355309 *  0.501435 *  -2.87073    1.000000    
    199 O3    s    0.572157 *  0.348599 *  0.996883 *  -3.33043    1.000000    
    200 O2    s    0.782395 *  0.428162 *  0.666999 *  -2.87073    1.000000    
    201 O2    s    0.651774 *  0.231185 *  0.339072 *  -2.87073    1.000000    
    202 O2    s    0.409201 *  0.646444 *  0.494695 *  -2.87073    1.000000    
    203 O2    s    0.225836 *  0.587221 *  0.161092 *  -2.87073    1.000000    
    204 O2    s    0.348230 *  0.764759 *  0.827828 *  -2.87073    1.000000    
    205 O2    s    0.121313 *  0.219242 *  0.965462 *  -2.87073    1.000000    
    206 O2    s    0.781622 *  0.901001 *  0.299450 *  -2.87073    1.000000    
    207 O2    s    0.110091 *  0.882048 *  0.635075 *  -2.87073    1.000000    
    208 O2    s    0.876807 *  0.786409 *  0.467247 *  -2.87073    1.000000    
    209 O2    s    0.211184 *  0.095190 *  0.803845 *  -2.87073    1.000000    
    210 O2    s    0.895572 *  0.118680 *  0.131877 *  -2.87073    1.000000    
    211 O2    s    0.217011 *  0.119984 *  0.360623 *  -2.87073    1.000000    
    212 O2    s    0.907248 *  0.791887 *  0.024116 *  -2.87073    1.000000    
    213 O2    s    0.877772 *  0.097194 *  0.693105 *  -2.87073    1.000000    
    214 O2    s    0.780053 *  0.877382 *  0.859599 *  -2.87073    1.000000    
    215 O2    s    0.089975 *  0.213716 *  0.527159 *  -2.87073    1.000000    
    216 O2    s    0.109640 *  0.895616 *  0.194056 *  -2.87073    1.000000    
    217 O2    s    0.918626 *  0.848606 *  0.245896 *  -2.87073    1.000000    
    218 O2    s    0.139538 *  0.068462 *  0.580154 *  -2.87073    1.000000    
    219 O2    s    0.930499 *  0.069383 *  0.911888 *  -2.87073    1.000000    
    220 O2    s    0.068043 *  0.135469 *  0.746523 *  -2.87073    1.000000    
    221 O2    s    0.861583 *  0.932869 *  0.078748 *  -2.87073    1.000000    
    222 O2    s    0.068287 *  0.927309 *  0.412884 *  -2.87073    1.000000    
    223 O2    s    0.906451 *  0.203304 *  0.975588 *  -2.87073    1.000000    
    224 O2    s    0.795390 *  0.700671 *  0.313796 *  -2.87073    1.000000    
    225 O3    s    0.296976 *  0.100501 *  0.645823 *  -3.33043    1.000000    
    226 O2    s    0.088690 *  0.794770 *  0.479556 *  -2.87073    1.000000    
    227 O2    s    0.200281 *  0.296628 *  0.811267 *  -2.87073    1.000000    
    228 O2    s    0.702665 *  0.897991 *  0.143767 *  -2.87073    1.000000    
    229 O2    s    0.206592 *  0.908464 *  0.348533 *  -2.87073    1.000000    
    230 O2    s    0.702381 *  0.797920 *  0.013593 *  -2.87073    1.000000    
    231 O2    s    0.095282 *  0.292768 *  0.680990 *  -2.87073    1.000000    
    232 O2    s    0.787815 *  0.088205 *  0.847804 *  -2.87073    1.000000    
    233 O2    s    0.293722 *  0.208162 *  0.515751 *  -2.87073    1.000000    
    234 O2    s    0.895815 *  0.699338 *  0.177601 *  -2.87073    1.000000    
    235 O2    s    0.327090 *  0.660790 *  0.244782 *  -2.87073    1.000000    
    236 O2    s    0.346083 *  0.667193 *  0.578417 *  -2.87073    1.000000    
    237 O2    s    0.323401 *  0.673213 *  0.911383 *  -2.87073    1.000000    
    238 O2    s    0.667451 *  0.344926 *  0.747363 *  -2.87073    1.000000    
    239 O3    s    0.625526 *  0.306041 *  0.085374 *  -3.33043    1.000000    
    240 O2    s    0.672282 *  0.332826 *  0.418510 *  -2.87073    1.000000    
    241 O2    s    0.373205 *  0.342606 *  0.963314 *  -2.87073    1.000000    
    242 O2    s    0.665330 *  0.038372 *  0.299238 *  -2.87073    1.000000    
    243 O2    s    0.975820 *  0.629319 *  0.632974 *  -2.87073    1.000000    
    244 O2    s    0.620714 *  0.663038 *  0.464334 *  -2.87073    1.000000    
    245 O2    s    0.331981 *  0.958971 *  0.795865 *  -2.87073    1.000000    
    246 O2    s    0.025932 *  0.375925 *  0.128358 *  -2.87073    1.000000    
    247 O2    s    0.340726 *  0.375035 *  0.360686 *  -2.87073    1.000000    
    248 O2    s    0.025436 *  0.654347 *  0.024361 *  -2.87073    1.000000    
    249 O2    s    0.623342 *  0.966166 *  0.694422 *  -2.87073    1.000000    
    250 O2    s    0.654997 *  0.623704 *  0.861106 *  -2.87073    1.000000    
    251 O2    s    0.960769 *  0.339857 *  0.529380 *  -2.87073    1.000000    
    252 O3    s    0.356893 *  0.033396 *  0.194715 *  -3.33043    1.000000    
    253 O3    s    0.765175 *  0.292055 *  0.004282 *  -3.33043    1.000000    
    254 O2    s    0.688587 *  0.463917 *  0.346496 *  -2.87073    1.000000    
    255 O3    s    0.550187 *  0.244964 *  0.674134 *  -3.33043    1.000000    
    256 O2    s    0.220071 *  0.686176 *  0.509933 *  -2.87073    1.000000    
    257 O2    s    0.308815 *  0.535389 *  0.841530 *  -2.87073    1.000000    
    258 O2    s    0.461928 *  0.777407 *  0.176026 *  -2.87073    1.000000    
    259 O2    s    0.311368 *  0.776876 *  0.314024 *  -2.87073    1.000000    
    260 O2    s    0.462529 *  0.692743 *  0.981470 *  -2.87073    1.000000    
    261 O2    s    0.230250 *  0.528763 *  0.648395 *  -2.87073    1.000000    
    262 O2    s    0.684084 *  0.222196 *  0.814729 *  -2.87073    1.000000    
    263 O2    s    0.530538 *  0.313813 *  0.485595 *  -2.87073    1.000000    
    264 O2    s    0.763636 *  0.463385 *  0.146262 *  -2.87073    1.000000    
    265 O3    s    0.780517 *  0.547857 *  0.021011 *  -3.33043    1.000000    
    266 O2    s    0.468302 *  0.255083 *  0.363684 *  -2.87073    1.000000    
    267 O2    s    0.739569 *  0.212439 *  0.694558 *  -2.87073    1.000000    
    268 O2    s    0.207786 *  0.464323 *  0.526584 *  -2.87073    1.000000    
    269 O2    s    0.529844 *  0.746718 *  0.859758 *  -2.87073    1.000000    
    270 O2    s    0.258367 *  0.792671 *  0.193894 *  -2.87073    1.000000    
    271 O2    s    0.528360 *  0.794430 *  0.295603 *  -2.87073    1.000000    
    272 O2    s    0.254796 *  0.470750 *  0.964492 *  -2.87073    1.000000    
    273 O2    s    0.219464 *  0.739350 *  0.632416 *  -2.87073    1.000000    
    274 O2    s    0.464631 *  0.207758 *  0.798224 *  -2.87073    1.000000    
    275 O2    s    0.738293 *  0.535594 *  0.469614 *  -2.87073    1.000000    
    276 O2    s    0.782000 *  0.256638 *  0.131567 *  -2.87073    1.000000    
    277 O2    s    0.235967 *  0.336192 *  0.894101 *  -2.87073    1.000000    
    278 O2    s    0.667102 *  0.913761 *  0.227741 *  -2.87073    1.000000    
    279 O2    s    0.099775 *  0.762504 *  0.562973 *  -2.87073    1.000000    
    280 O2    s    0.758799 *  0.666276 *  0.396883 *  -2.87073    1.000000    
    281 O3    s    0.312468 *  0.090961 *  0.732298 *  -3.33043    1.000000    
    282 O2    s    0.893772 *  0.238109 *  0.060405 *  -2.87073    1.000000    
    283 O2    s    0.330963 *  0.241962 *  0.432064 *  -2.87073    1.000000    
    284 O2    s    0.893379 *  0.659098 *  0.093655 *  -2.87073    1.000000    
    285 O2    s    0.753114 *  0.094551 *  0.763856 *  -2.87073    1.000000    
    286 O2    s    0.664290 *  0.759509 *  0.930741 *  -2.87073    1.000000    
    287 O2    s    0.091300 *  0.329216 *  0.597970 *  -2.87073    1.000000    
    288 O2    s    0.244260 *  0.911184 *  0.265161 *  -2.87073    1.000000    
    289 O2    s    0.575832 *  0.560723 *  0.984310 *  -2.87073    1.000000    
    290 O2    s    0.444127 *  0.020094 *  0.318688 *  -2.87073    1.000000    
    291 O2    s    0.985325 *  0.419861 *  0.652332 *  -2.87073    1.000000    
    292 O2    s    0.415023 *  0.443113 *  0.483507 *  -2.87073    1.000000    
    293 O2    s    0.552700 *  0.980044 *  0.813133 *  -2.87073    1.000000    
    294 O2    s    0.009114 *  0.575700 *  0.145270 *  -2.87073    1.000000    
    295 O2    s    0.559546 *  0.583113 *  0.342483 *  -2.87073    1.000000    
    296 O2    s    0.009744 *  0.438103 *  0.007205 *  -2.87073    1.000000    
    297 O3    s    0.414634 *  0.960612 *  0.670571 *  -3.33043    1.000000    
    298 O2    s    0.436654 *  0.416002 *  0.842805 *  -2.87073    1.000000    
    299 O2    s    0.973657 *  0.560590 *  0.511606 *  -2.87073    1.000000    
    300 O3    s    0.593497 *  0.019492 *  0.169888 *  -3.33043    1.000000    
    301 O3    s    0.590958 *  0.171039 *  0.256539 *  -3.33043    1.000000    
    302 O2    s    0.850233 *  0.425550 *  0.583367 *  -2.87073    1.000000    
    303 O2    s    0.576633 *  0.427373 *  0.913869 *  -2.87073    1.000000    
    304 O2    s    0.418021 *  0.845782 *  0.744097 *  -2.87073    1.000000    
    305 O2    s    0.139234 *  0.572209 *  0.077129 *  -2.87073    1.000000    
    306 O2    s    0.420278 *  0.576609 *  0.411627 *  -2.87073    1.000000    
    307 F     s    0.474150 *  0.956215 *  0.235646 *  -1.56000    1.000000    
    308 F     s    0.097766 *  0.543731 *  0.579495 *  -1.56000    1.000000    
    309 F     s    0.447135 *  0.555493 *  0.910478 *  -1.56000    1.000000    
    310 F     s    0.509596 *  0.095641 *  0.732194 *  -1.56000    1.000000    
    311 F     s    0.842827 *  0.430879 *  0.066473 *  -1.56000    1.000000    
    312 F     s    0.546085 *  0.454413 *  0.412495 *  -1.56000    1.000000    
--------------------------------------------------------------------------------



********************************************************************************
*  General input information                                                   *
********************************************************************************

  Species output for all configurations : 

--------------------------------------------------------------------------------
  Species    Type    Atomic    Atomic    Charge       Radii (Angs)     Library
                     Number     Mass       (e)     Cova   Ionic  VDW   Symbol
--------------------------------------------------------------------------------
    Si       Core       14      28.09   4.000000   1.200  0.000  2.100          
    O1       Core        8      16.00   1.733957   0.730  0.000  1.360          
    O1       Shell       8       0.00  -3.733957   0.730  0.000  1.360          
    O2       Core        8      16.00   0.870733   0.730  0.000  1.360          
    O2       Shell       8       0.00  -2.870733   0.730  0.000  1.360          
    O3       Core        8      16.00   1.330431   0.730  0.000  1.360          
    O3       Shell       8       0.00  -3.330431   0.730  0.000  1.360          
    F        Core        9      19.00   0.560000   0.710  0.000  1.300          
    F        Shell       9       0.00  -1.560000   0.710  0.000  1.300          
    Ge       Core       32      72.61   4.000000   1.170  0.000  1.750          
--------------------------------------------------------------------------------


  Lattice summation method               =    Ewald          (3-D)
                                         =    Parry          (2-D)
                                         =    Saunders et al (1-D)
  Accuracy factor for lattice sums       =   12.000


  Time limit = Infinity

  Maximum range for interatomic potentials =        16.000000 Angstroms

  Taper potentials to zero over   1.0000 Angstroms using polynomial

  General interatomic potentials :

--------------------------------------------------------------------------------
Atom  Types   Potential         A         B         C         D     Cutoffs(Ang)
  1     2                                                            Min    Max 
--------------------------------------------------------------------------------
Si   c O1   s Buckingham    0.132E+04 0.318      10.1      0.00     0.000 16.000
Si   c O2   s Buckingham    0.132E+04 0.318      10.1      0.00     0.000 16.000
Si   c O3   s Buckingham    0.132E+04 0.318      10.1      0.00     0.000 16.000
Ge   c O1   s Buckingham    0.150E+04 0.326      16.8      0.00     0.000 16.000
Ge   c O2   s Buckingham    0.150E+04 0.326      16.8      0.00     0.000 16.000
Ge   c O3   s Buckingham    0.150E+04 0.326      16.8      0.00     0.000 16.000
O1   s O1   s Buckingham    0.228E+05 0.149      10.9      0.00     0.000 16.000
O1   s O2   s Buckingham    0.228E+05 0.149      10.9      0.00     0.000 16.000
O1   s O3   s Buckingham    0.228E+05 0.149      10.9      0.00     0.000 16.000
O2   s O2   s Buckingham    0.228E+05 0.149      10.9      0.00     0.000 16.000
O2   s O3   s Buckingham    0.228E+05 0.149      10.9      0.00     0.000 16.000
O3   s O3   s Buckingham    0.228E+05 0.149      10.9      0.00     0.000 16.000
Si   c F    s Buckingham     977.     0.282      0.00      0.00     0.000 16.000
Ge   c F    s Buckingham     681.     0.320      0.00      0.00     0.000 16.000
F    s F    s Buckingham     540.     0.262      0.00      0.00     0.000 16.000
O1   s F    s Buckingham    0.168E+04 0.268      0.00      0.00     0.000 16.000
O2   s F    s Buckingham    0.168E+04 0.268      0.00      0.00     0.000 16.000
O3   s F    s Buckingham    0.168E+04 0.268      0.00      0.00     0.000 16.000
O2   c O2   s Spring (c-s)   76.0      0.00      0.00      0.00     0.000  0.800
O3   c O3   s Spring (c-s)   128.      0.00      0.00      0.00     0.000  0.800
O1   c O1   s Spring (c-s)   180.      0.00      0.00      0.00     0.000  0.800
F    c F    s Spring (c-s)   33.5      0.00      0.00      0.00     0.000  0.800
--------------------------------------------------------------------------------

  General Three-body potentials :

  Harmonic form:

--------------------------------------------------------------------------------
Atom    Atom    Atom           Force Constants            Theta     Cutoffs  
  1       2       3     (eVrad**-2/eVrad**-3/eVrad**-4)   (deg)  1-2  1-3  2-3
--------------------------------------------------------------------------------
Si    c O1    s O1    s  1.261        0.0000    0.0000   109.470 0.00 0.00 0.00
                                                                 1.90 1.90 3.50
Si    c O1    s O2    s  1.261        0.0000    0.0000   109.470 0.00 0.00 0.00
                                                                 1.90 1.90 3.50
Si    c O2    s O2    s  1.261        0.0000    0.0000   109.470 0.00 0.00 0.00
                                                                 1.90 1.90 3.50
--------------------------------------------------------------------------------

********************************************************************************
*  Output for configuration   1                                                *
********************************************************************************


  Components of energy : 

--------------------------------------------------------------------------------
  Interatomic potentials     =        2066.80820664 eV
  Three-body potentials      =           0.48547884 eV
  Monopole - monopole (real) =       -6615.98351198 eV
  Monopole - monopole (recip)=       -3172.24398302 eV
  Monopole - monopole (total)=       -9788.22749500 eV
  Neutralising energy        =          -6.46186387 eV
--------------------------------------------------------------------------------
  Total lattice energy       =       -7727.39567340 eV
--------------------------------------------------------------------------------
  Total lattice energy       =         -745575.5584 kJ/(mole unit cells)
--------------------------------------------------------------------------------


  Number of variables =      939

  Maximum number of calculations  =          5000
  Maximum Hessian update interval =            10
  Maximum step size               =   0.100000000
  Maximum parameter tolerance     =   0.000010000
  Maximum function  tolerance     =   0.000010000
  Maximum gradient  tolerance     =   0.001000000
  Maximum gradient  component     =   0.010000000

  Symmetry not applied to optimisation

  Cell parameters to be optimised using strains

  Newton-Raphson optimiser to be used

  BFGS hessian update to be used

  Dumpfile to be written after every cycle

  Start of bulk optimisation :

  Cycle:      0 Energy:     -7727.395673  Gnorm:      0.008681  CPU:    2.024
  ** Hessian calculated **
  Cycle:      1 Energy:     -7727.417412  Gnorm:      0.007102  CPU:    6.589
  Cycle:      2 Energy:     -7727.440469  Gnorm:      0.004892  CPU:   10.777
  Cycle:      3 Energy:     -7727.455727  Gnorm:      0.002529  CPU:   14.965
  Cycle:      4 Energy:     -7727.459457  Gnorm:      0.001330  CPU:   19.155
  Cycle:      5 Energy:     -7727.460386  Gnorm:      0.000688  CPU:   23.345
  Cycle:      6 Energy:     -7727.460619  Gnorm:      0.000351  CPU:   27.536
  Cycle:      7 Energy:     -7727.460677  Gnorm:      0.000177  CPU:   31.727
  Cycle:      8 Energy:     -7727.460687  Gnorm:      0.000124  CPU:   34.557
  Cycle:      9 Energy:     -7727.460692  Gnorm:      0.000087  CPU:   37.389
  Cycle:     10 Energy:     -7727.460694  Gnorm:      0.000061  CPU:   40.220
  ** Hessian calculated **


  **** Optimisation achieved ****


  Final energy =   -7727.46069441 eV
  Final Gnorm  =       0.00002753

  Components of energy : 

--------------------------------------------------------------------------------
  Interatomic potentials     =        2066.90889323 eV
  Three-body potentials      =           0.49871340 eV
  Monopole - monopole (real) =       -6616.63989259 eV
  Monopole - monopole (recip)=       -3171.76751182 eV
  Monopole - monopole (total)=       -9788.40740441 eV
  Neutralising energy        =          -6.46089663 eV
--------------------------------------------------------------------------------
  Total lattice energy       =       -7727.46069441 eV
--------------------------------------------------------------------------------
  Total lattice energy       =         -745581.8320 kJ/(mole unit cells)
--------------------------------------------------------------------------------

  Final fractional coordinates of atoms :

--------------------------------------------------------------------------------
   No.  Atomic        x           y          z          Radius
        Label       (Frac)      (Frac)     (Frac)       (Angs) 
--------------------------------------------------------------------------------
     1  Ge    c     0.699600    0.375700    0.033890    0.000000
     2  Si    c     0.605632    0.315847    0.368324    0.000000
     3  Si    c     0.669822    0.307068    0.695345    0.000000
     4  Si    c     0.280093    0.612188    0.527829    0.000000
     5  Si    c     0.361982    0.668806    0.860685    0.000000
     6  Si    c     0.304271    0.697449    0.193541    0.000000
     7  Si    c     0.361143    0.693470    0.295979    0.000000
     8  Si    c     0.307438    0.615519    0.961162    0.000000
     9  Si    c     0.293056    0.667449    0.628514    0.000000
    10  Si    c     0.603421    0.294089    0.797333    0.000000
    11  Si    c     0.658519    0.376479    0.468942    0.000000
    12  Si    c     0.667331    0.302518    0.132659    0.000000
    13  Si    c     0.519987    0.411634    0.966082    0.000000
    14  Si    c     0.575146    0.113441    0.302669    0.000000
    15  Si    c     0.888985    0.475356    0.634160    0.000000
    16  Si    c     0.450761    0.577097    0.462721    0.000000
    17  Si    c     0.396719    0.877194    0.793924    0.000000
    18  Si    c     0.090769    0.520905    0.128168    0.000000
    19  Si    c     0.401063    0.519691    0.361260    0.000000
    20  Si    c     0.093377    0.575344    0.024633    0.000000
    21  Si    c     0.457270    0.880188    0.691014    0.000000
    22  Si    c     0.565773    0.463655    0.863070    0.000000
    23  Si    c     0.873775    0.415936    0.532996    0.000000
    24  Ge    c     0.509358    0.088897    0.203130    0.000000
    25  Si    c     0.284977    0.391870    0.846849    0.000000
    26  Si    c     0.588579    0.899008    0.177356    0.000000
    27  Si    c     0.081848    0.694601    0.516089    0.000000
    28  Si    c     0.680759    0.591342    0.349750    0.000000
    29  Ge    c     0.399808    0.095964    0.685979    0.000000
    30  Si    c     0.880872    0.288184    0.009753    0.000000
    31  Si    c     0.378280    0.296836    0.479829    0.000000
    32  Si    c     0.875451    0.589622    0.141213    0.000000
    33  Si    c     0.682189    0.090680    0.810923    0.000000
    34  Si    c     0.585934    0.692928    0.977218    0.000000
    35  Si    c     0.090967    0.392694    0.645535    0.000000
    36  Si    c     0.286906    0.898145    0.312933    0.000000
    37  Si    c     0.240042    0.336553    0.947688    0.000000
    38  Si    c     0.647424    0.908509    0.281019    0.000000
    39  Si    c     0.091052    0.752392    0.617043    0.000000
    40  Si    c     0.730557    0.656215    0.450297    0.000000
    41  Si    c     0.315768    0.080256    0.781624    0.000000
    42  Si    c     0.886859    0.239434    0.113406    0.000000
    43  Si    c     0.323444    0.242432    0.378567    0.000000
    44  Si    c     0.891829    0.657734    0.038678    0.000000
    45  Si    c     0.738385    0.089518    0.709264    0.000000
    46  Si    c     0.642013    0.741532    0.876456    0.000000
    47  Si    c     0.071705    0.332893    0.544616    0.000000
    48  Si    c     0.229280    0.907873    0.210347    0.000000
    49  Si    c     0.962300    0.117473    0.961578    0.000000
    50  Si    c     0.858937    0.835885    0.296997    0.000000
    51  Si    c     0.148235    0.031457    0.632065    0.000000
    52  Si    c     0.011453    0.873576    0.464155    0.000000
    53  Si    c     0.103858    0.142460    0.797445    0.000000
    54  Si    c     0.831974    0.961627    0.128752    0.000000
    55  Si    c     0.105141    0.962078    0.362660    0.000000
    56  Si    c     0.836888    0.877246    0.027448    0.000000
    57  Si    c     0.017430    0.142865    0.695118    0.000000
    58  Si    c     0.861311    0.019501    0.861623    0.000000
    59  Si    c     0.131609    0.114924    0.530340    0.000000
    60  Si    c     0.943734    0.833199    0.195142    0.000000
    61  O2    c     0.917255    0.000099    0.996124    0.000000
    62  O2    c     0.986258    0.919746    0.327598    0.000000
    63  O2    c     0.053945    0.061081    0.662325    0.000000
    64  O2    c     0.055368    0.997195    0.495431    0.000000
    65  O2    c     0.978836    0.063084    0.827951    0.000000
    66  O2    c     0.911623    0.922041    0.162970    0.000000
    67  O2    c     0.325455    0.569479    0.327314    0.000000
    68  O2    c     0.418861    0.752103    0.660955    0.000000
    69  O2    c     0.220479    0.650939    0.993609    0.000000
    70  O2    c     0.641399    0.413556    0.831099    0.000000
    71  O3    c     0.563431    0.229595    0.169873    0.000000
    72  O2    c     0.742284    0.338892    0.502698    0.000000
    73  O3    c     0.563248    0.335168    0.997937    0.000000
    74  O2    c     0.770449    0.435850    0.668366    0.000000
    75  O2    c     0.646753    0.226381    0.340414    0.000000
    76  O2    c     0.399625    0.652327    0.493673    0.000000
    77  O2    c     0.216860    0.574026    0.161327    0.000000
    78  O2    c     0.323544    0.752525    0.826541    0.000000
    79  O2    c     0.115861    0.208256    0.967752    0.000000
    80  O2    c     0.768916    0.899979    0.302021    0.000000
    81  O2    c     0.095539    0.877558    0.638253    0.000000
    82  O2    c     0.856944    0.784275    0.469617    0.000000
    83  O2    c     0.195542    0.081138    0.806544    0.000000
    84  O2    c     0.889010    0.114839    0.134477    0.000000
    85  O2    c     0.197277    0.116095    0.357766    0.000000
    86  O2    c     0.907612    0.794327    0.022190    0.000000
    87  O2    c     0.863594    0.089434    0.689756    0.000000
    88  O2    c     0.769368    0.866164    0.856232    0.000000
    89  O2    c     0.066711    0.204735    0.524646    0.000000
    90  O2    c     0.096353    0.894699    0.191843    0.000000
    91  O2    c     0.900539    0.840205    0.245554    0.000000
    92  O2    c     0.119975    0.058693    0.580212    0.000000
    93  O2    c     0.920730    0.059306    0.911587    0.000000
    94  O2    c     0.052319    0.124954    0.746212    0.000000
    95  O2    c     0.849103    0.927270    0.078403    0.000000
    96  O2    c     0.049033    0.921211    0.412619    0.000000
    97  O2    c     0.892999    0.199035    0.971762    0.000000
    98  O2    c     0.779687    0.686397    0.311399    0.000000
    99  O3    c     0.295007    0.108163    0.643867    0.000000
   100  O2    c     0.079866    0.791086    0.477191    0.000000
   101  O2    c     0.184910    0.294569    0.808543    0.000000
   102  O2    c     0.680499    0.883122    0.141071    0.000000
   103  O2    c     0.189565    0.894512    0.351374    0.000000
   104  O2    c     0.684887    0.793371    0.015248    0.000000
   105  O2    c     0.092817    0.295267    0.683780    0.000000
   106  O2    c     0.776638    0.087938    0.850319    0.000000
   107  O2    c     0.282984    0.200946    0.518319    0.000000
   108  O2    c     0.874773    0.684406    0.180162    0.000000
   109  O2    c     0.306887    0.645929    0.244708    0.000000
   110  O2    c     0.345112    0.668580    0.577580    0.000000
   111  O2    c     0.303372    0.670762    0.910389    0.000000
   112  O2    c     0.659930    0.350218    0.747311    0.000000
   113  O3    c     0.606970    0.296104    0.083128    0.000000
   114  O2    c     0.662104    0.320575    0.419213    0.000000
   115  O2    c     0.362042    0.327292    0.965925    0.000000
   116  O2    c     0.658764    0.038692    0.301249    0.000000
   117  O2    c     0.959122    0.630673    0.635546    0.000000
   118  O2    c     0.607098    0.666733    0.466001    0.000000
   119  O2    c     0.310599    0.946551    0.796902    0.000000
   120  O2    c     0.020515    0.365517    0.130316    0.000000
   121  O2    c     0.313796    0.363717    0.357813    0.000000
   122  O2    c     0.024035    0.661511    0.022876    0.000000
   123  O2    c     0.614825    0.957593    0.691638    0.000000
   124  O2    c     0.650961    0.619536    0.858074    0.000000
   125  O2    c     0.938858    0.326079    0.527439    0.000000
   126  O3    c     0.342314    0.038813    0.191857    0.000000
   127  O3    c     0.748444    0.282429    0.000651    0.000000
   128  O2    c     0.679006    0.456393    0.343515    0.000000
   129  O3    c     0.534135    0.247513    0.669997    0.000000
   130  O2    c     0.211318    0.688488    0.506209    0.000000
   131  O2    c     0.287218    0.526539    0.837593    0.000000
   132  O2    c     0.448371    0.766747    0.173318    0.000000
   133  O2    c     0.288681    0.764176    0.316888    0.000000
   134  O2    c     0.451671    0.693844    0.983686    0.000000
   135  O2    c     0.227821    0.524733    0.651156    0.000000
   136  O2    c     0.677561    0.221450    0.817349    0.000000
   137  O2    c     0.513498    0.299976    0.488899    0.000000
   138  O2    c     0.744767    0.455718    0.148181    0.000000
   139  O3    c     0.765932    0.543780    0.017270    0.000000
   140  O2    c     0.449160    0.239292    0.361319    0.000000
   141  O2    c     0.734076    0.214717    0.691969    0.000000
   142  O2    c     0.197344    0.456100    0.523523    0.000000
   143  O2    c     0.518580    0.747377    0.856204    0.000000
   144  O2    c     0.236580    0.784280    0.191354    0.000000
   145  O2    c     0.515499    0.785178    0.297709    0.000000
   146  O2    c     0.235498    0.460129    0.966907    0.000000
   147  O2    c     0.214181    0.743345    0.634876    0.000000
   148  O2    c     0.448500    0.204523    0.800024    0.000000
   149  O2    c     0.729021    0.532174    0.472473    0.000000
   150  O2    c     0.766513    0.244701    0.133344    0.000000
   151  O2    c     0.215143    0.319162    0.893324    0.000000
   152  O2    c     0.659920    0.909626    0.226604    0.000000
   153  O2    c     0.087762    0.768809    0.562338    0.000000
   154  O2    c     0.751173    0.668510    0.395911    0.000000
   155  O3    c     0.290458    0.086201    0.728900    0.000000
   156  O2    c     0.885393    0.225082    0.058959    0.000000
   157  O2    c     0.304874    0.225971    0.432886    0.000000
   158  O2    c     0.883114    0.662279    0.094076    0.000000
   159  O2    c     0.749418    0.090150    0.764066    0.000000
   160  O2    c     0.661028    0.761861    0.930829    0.000000
   161  O2    c     0.078055    0.315980    0.598986    0.000000
   162  O2    c     0.220734    0.904931    0.265616    0.000000
   163  O2    c     0.569016    0.554117    0.987419    0.000000
   164  O2    c     0.429640    0.017201    0.321667    0.000000
   165  O2    c     0.971233    0.413881    0.656282    0.000000
   166  O2    c     0.394217    0.437098    0.486530    0.000000
   167  O2    c     0.539736    0.968904    0.815052    0.000000
   168  O2    c     0.000369    0.572250    0.148128    0.000000
   169  O2    c     0.542517    0.580135    0.338588    0.000000
   170  O2    c     0.003760    0.433324    0.003944    0.000000
   171  O3    c     0.397734    0.956518    0.665318    0.000000
   172  O2    c     0.423647    0.403409    0.839311    0.000000
   173  O2    c     0.952844    0.556418    0.508818    0.000000
   174  O3    c     0.581753    0.023637    0.166098    0.000000
   175  O3    c     0.579505    0.177464    0.254974    0.000000
   176  O2    c     0.827013    0.417002    0.584333    0.000000
   177  O2    c     0.570586    0.416574    0.914238    0.000000
   178  O2    c     0.401527    0.832390    0.742525    0.000000
   179  O2    c     0.137858    0.570579    0.077011    0.000000
   180  O2    c     0.397595    0.574553    0.411092    0.000000
   181  F     c     0.454354    0.939835    0.237978    0.000000
   182  F     c     0.086734    0.541668    0.579606    0.000000
   183  F     c     0.433994    0.547605    0.910310    0.000000
   184  F     c     0.504848    0.092080    0.734491    0.000000
   185  F     c     0.848391    0.431995    0.069024    0.000000
   186  F     c     0.528792    0.446730    0.412605    0.000000
   187  O2    s     0.913111    0.999404    0.995769    0.000000
   188  O2    s     0.985299    0.915160    0.328081    0.000000
   189  O2    s     0.059527    0.067216    0.662897    0.000000
   190  O2    s     0.058734    0.996096    0.495705    0.000000
   191  O2    s     0.979446    0.067056    0.828378    0.000000
   192  O2    s     0.906248    0.916495    0.162745    0.000000
   193  O2    s     0.336784    0.577838    0.327308    0.000000
   194  O2    s     0.409996    0.756288    0.660666    0.000000
   195  O2    s     0.215891    0.639516    0.993605    0.000000
   196  O2    s     0.629784    0.405997    0.830748    0.000000
   197  O3    s     0.570967    0.227502    0.168162    0.000000
   198  O2    s     0.746898    0.350807    0.502220    0.000000
   199  O3    s     0.567773    0.346513    0.996847    0.000000
   200  O2    s     0.772200    0.426392    0.667660    0.000000
   201  O2    s     0.635231    0.223974    0.339423    0.000000
   202  O2    s     0.392805    0.640314    0.493910    0.000000
   203  O2    s     0.212900    0.581335    0.161257    0.000000
   204  O2    s     0.335127    0.757212    0.826556    0.000000
   205  O2    s     0.111840    0.211491    0.965054    0.000000
   206  O2    s     0.765699    0.894111    0.299313    0.000000
   207  O2    s     0.100280    0.879352    0.635371    0.000000
   208  O2    s     0.860072    0.780375    0.467053    0.000000
   209  O2    s     0.197968    0.087482    0.803151    0.000000
   210  O2    s     0.882813    0.111598    0.131733    0.000000
   211  O2    s     0.200426    0.112692    0.360387    0.000000
   212  O2    s     0.898355    0.789185    0.024446    0.000000
   213  O2    s     0.866230    0.094990    0.692355    0.000000
   214  O2    s     0.766215    0.869935    0.858861    0.000000
   215  O2    s     0.073975    0.208523    0.527259    0.000000
   216  O2    s     0.093703    0.889135    0.194247    0.000000
   217  O2    s     0.900695    0.838941    0.245715    0.000000
   218  O2    s     0.124242    0.062377    0.579808    0.000000
   219  O2    s     0.918611    0.061321    0.911510    0.000000
   220  O2    s     0.054190    0.128987    0.746234    0.000000
   221  O2    s     0.845718    0.925663    0.078554    0.000000
   222  O2    s     0.051277    0.920630    0.412603    0.000000
   223  O2    s     0.899392    0.199516    0.974665    0.000000
   224  O2    s     0.778132    0.692796    0.313772    0.000000
   225  O3    s     0.285196    0.098729    0.645228    0.000000
   226  O2    s     0.072715    0.790145    0.479740    0.000000
   227  O2    s     0.186511    0.288364    0.811266    0.000000
   228  O2    s     0.687033    0.892915    0.143466    0.000000
   229  O2    s     0.190847    0.901851    0.348588    0.000000
   230  O2    s     0.691080    0.792190    0.012722    0.000000
   231  O2    s     0.084712    0.289335    0.681013    0.000000
   232  O2    s     0.775428    0.081144    0.847336    0.000000
   233  O2    s     0.277142    0.202041    0.515508    0.000000
   234  O2    s     0.882296    0.690819    0.177809    0.000000
   235  O2    s     0.312222    0.656105    0.244779    0.000000
   236  O2    s     0.333122    0.662673    0.577695    0.000000
   237  O2    s     0.309624    0.665020    0.910524    0.000000
   238  O2    s     0.654971    0.340139    0.747452    0.000000
   239  O3    s     0.619312    0.302160    0.084686    0.000000
   240  O2    s     0.655779    0.325924    0.418998    0.000000
   241  O2    s     0.364080    0.336688    0.963892    0.000000
   242  O2    s     0.649545    0.032183    0.299247    0.000000
   243  O2    s     0.965538    0.626950    0.633433    0.000000
   244  O2    s     0.603993    0.656444    0.464002    0.000000
   245  O2    s     0.320079    0.952813    0.795034    0.000000
   246  O2    s     0.014442    0.369114    0.128390    0.000000
   247  O2    s     0.323787    0.367360    0.360301    0.000000
   248  O2    s     0.018190    0.652092    0.024640    0.000000
   249  O2    s     0.612144    0.963898    0.693471    0.000000
   250  O2    s     0.641264    0.616365    0.860521    0.000000
   251  O2    s     0.946073    0.336022    0.529807    0.000000
   252  O3    s     0.341111    0.027921    0.194630    0.000000
   253  O3    s     0.759639    0.289146    0.003863    0.000000
   254  O2    s     0.671719    0.456268    0.346712    0.000000
   255  O3    s     0.538988    0.243235    0.673778    0.000000
   256  O2    s     0.204750    0.681270    0.509499    0.000000
   257  O2    s     0.294679    0.527087    0.840968    0.000000
   258  O2    s     0.447080    0.772575    0.175887    0.000000
   259  O2    s     0.296045    0.770688    0.314283    0.000000
   260  O2    s     0.450664    0.685771    0.980693    0.000000
   261  O2    s     0.220038    0.525448    0.648181    0.000000
   262  O2    s     0.670465    0.214861    0.814594    0.000000
   263  O2    s     0.514315    0.307620    0.485822    0.000000
   264  O2    s     0.752219    0.456468    0.145912    0.000000
   265  O3    s     0.775714    0.545745    0.020610    0.000000
   266  O2    s     0.451647    0.247512    0.363838    0.000000
   267  O2    s     0.728093    0.209957    0.694178    0.000000
   268  O2    s     0.192430    0.459152    0.526190    0.000000
   269  O2    s     0.515705    0.738636    0.858809    0.000000
   270  O2    s     0.243301    0.787374    0.193489    0.000000
   271  O2    s     0.512964    0.788601    0.295726    0.000000
   272  O2    s     0.243532    0.463277    0.964303    0.000000
   273  O2    s     0.208920    0.736202    0.632301    0.000000
   274  O2    s     0.451483    0.201247    0.797839    0.000000
   275  O2    s     0.721687    0.529398    0.469707    0.000000
   276  O2    s     0.770780    0.249857    0.131020    0.000000
   277  O2    s     0.225093    0.328670    0.894136    0.000000
   278  O2    s     0.651596    0.908524    0.227671    0.000000
   279  O2    s     0.087483    0.759223    0.563127    0.000000
   280  O2    s     0.741547    0.659049    0.396781    0.000000
   281  O3    s     0.300405    0.086195    0.731555    0.000000
   282  O2    s     0.885105    0.232815    0.059949    0.000000
   283  O2    s     0.314468    0.235085    0.431936    0.000000
   284  O2    s     0.883122    0.653952    0.093713    0.000000
   285  O2    s     0.741093    0.090137    0.763292    0.000000
   286  O2    s     0.651203    0.752549    0.929876    0.000000
   287  O2    s     0.078721    0.325805    0.598076    0.000000
   288  O2    s     0.228738    0.904527    0.265113    0.000000
   289  O2    s     0.565713    0.555314    0.984119    0.000000
   290  O2    s     0.428284    0.013426    0.318802    0.000000
   291  O2    s     0.975634    0.418159    0.652811    0.000000
   292  O2    s     0.398634    0.436645    0.483277    0.000000
   293  O2    s     0.540474    0.972883    0.812356    0.000000
   294  O2    s     0.996950    0.568504    0.145275    0.000000
   295  O2    s     0.542377    0.574921    0.342115    0.000000
   296  O2    s     0.000861    0.434029    0.006791    0.000000
   297  O3    s     0.404154    0.958987    0.669416    0.000000
   298  O2    s     0.423541    0.408553    0.842566    0.000000
   299  O2    s     0.958594    0.556635    0.512094    0.000000
   300  O3    s     0.577629    0.014086    0.169698    0.000000
   301  O3    s     0.574344    0.164735    0.256585    0.000000
   302  O2    s     0.838316    0.422876    0.584090    0.000000
   303  O2    s     0.565102    0.421217    0.913809    0.000000
   304  O2    s     0.406445    0.841789    0.742875    0.000000
   305  O2    s     0.128396    0.565815    0.077134    0.000000
   306  O2    s     0.403410    0.569063    0.411152    0.000000
   307  F     s     0.458340    0.950325    0.235488    0.000000
   308  F     s     0.087071    0.541591    0.579487    0.000000
   309  F     s     0.433483    0.548411    0.910075    0.000000
   310  F     s     0.498139    0.092464    0.731430    0.000000
   311  F     s     0.837667    0.428146    0.066403    0.000000
   312  F     s     0.528851    0.446718    0.412348    0.000000
--------------------------------------------------------------------------------

  Final Cartesian lattice vectors (Angstroms) :

       11.974018    0.004620   -0.020210
       -6.021655   10.379715    0.019766
       -0.493857    0.037036   29.404766


  Final cell parameters and derivatives :

--------------------------------------------------------------------------------
       a           11.974036 Angstrom     dE/de1(xx)     0.002231 eV/strain
       b           11.999967 Angstrom     dE/de2(yy)     0.001971 eV/strain
       c           29.408936 Angstrom     dE/de3(zz)     0.003118 eV/strain
       alpha       89.360399 Degrees      dE/de4(yz)    -0.000388 eV/strain
       beta        91.058876 Degrees      dE/de5(xz)     0.000158 eV/strain
       gamma      120.097585 Degrees      dE/de6(xy)     0.000231 eV/strain
--------------------------------------------------------------------------------

  Primitive cell volume =          3655.337287 Angs**3

  Density of cell =      1.750343 g/cm**3

  Non-primitive cell volume =          3655.337287 Angs**3


  Final internal derivatives :

--------------------------------------------------------------------------------
   No.  Atomic          a             b             c           Radius
        Label          (eV)          (eV)          (eV)        (eV/Angs)
--------------------------------------------------------------------------------
      1 Ge    c       0.000000      0.000000      0.000000      0.000000
      2 Si    c       0.000028      0.000147     -0.000004      0.000000
      3 Si    c      -0.000212     -0.000568      0.000537      0.000000
      4 Si    c       0.000038     -0.000148     -0.000757      0.000000
      5 Si    c       0.000240      0.000126      0.000195      0.000000
      6 Si    c       0.000585      0.000231      0.001131      0.000000
      7 Si    c       0.000020      0.000022     -0.000330      0.000000
      8 Si    c       0.000345     -0.000046     -0.000345      0.000000
      9 Si    c      -0.000410     -0.000167     -0.000126      0.000000
     10 Si    c       0.000111     -0.000040      0.000512      0.000000
     11 Si    c      -0.000045      0.000045      0.000028      0.000000
     12 Si    c       0.001970     -0.000649      0.007572      0.000000
     13 Si    c      -0.001496     -0.001040     -0.000479      0.000000
     14 Si    c      -0.000195      0.000026      0.000984      0.000000
     15 Si    c      -0.000148     -0.000146     -0.000001      0.000000
     16 Si    c       0.000274     -0.000166      0.000172      0.000000
     17 Si    c       0.000042      0.000177      0.000697      0.000000
     18 Si    c      -0.000079      0.000083     -0.000343      0.000000
     19 Si    c       0.000272      0.000050      0.000146      0.000000
     20 Si    c      -0.000018     -0.000221     -0.000006      0.000000
     21 Si    c      -0.000069     -0.000028      0.000513      0.000000
     22 Si    c       0.000041     -0.000031     -0.000516      0.000000
     23 Si    c       0.000163      0.000047     -0.000654      0.000000
     24 Ge    c       0.000135     -0.000458      0.002006      0.000000
     25 Si    c       0.000276      0.000244      0.000388      0.000000
     26 Si    c       0.000395     -0.000087      0.000141      0.000000
     27 Si    c      -0.000231     -0.000089     -0.000262      0.000000
     28 Si    c       0.000156      0.000152     -0.000148      0.000000
     29 Ge    c       0.000026     -0.000370      0.000147      0.000000
     30 Si    c       0.001827      0.000252      0.000630      0.000000
     31 Si    c       0.000134     -0.000002      0.000421      0.000000
     32 Si    c       0.000556     -0.000219     -0.000912      0.000000
     33 Si    c       0.000122     -0.000101      0.000175      0.000000
     34 Si    c       0.000418      0.000190     -0.000792      0.000000
     35 Si    c      -0.000177     -0.000094      0.000204      0.000000
     36 Si    c      -0.000124      0.000092     -0.000076      0.000000
     37 Si    c       0.000376     -0.000308      0.000394      0.000000
     38 Si    c       0.000156     -0.000247     -0.000338      0.000000
     39 Si    c      -0.000267     -0.000227     -0.000229      0.000000
     40 Si    c       0.000169     -0.000093      0.000365      0.000000
     41 Si    c       0.000256     -0.000161      0.000278      0.000000
     42 Si    c       0.000013      0.000887      0.000427      0.000000
     43 Si    c       0.000073      0.000068      0.000015      0.000000
     44 Si    c       0.001614      0.000162     -0.000872      0.000000
     45 Si    c       0.000086     -0.000253     -0.000088      0.000000
     46 Si    c       0.000380      0.000096     -0.000124      0.000000
     47 Si    c       0.000145      0.000174      0.000198      0.000000
     48 Si    c       0.000358      0.000103     -0.000418      0.000000
     49 Si    c       0.000693      0.000244     -0.001191      0.000000
     50 Si    c       0.000232     -0.000071      0.000267      0.000000
     51 Si    c      -0.000012     -0.000041      0.001232      0.000000
     52 Si    c       0.000170     -0.000171      0.000515      0.000000
     53 Si    c       0.000126      0.000470      0.000171      0.000000
     54 Si    c       0.000406     -0.000367     -0.000932      0.000000
     55 Si    c       0.000172      0.000059     -0.000016      0.000000
     56 Si    c       0.000316     -0.000074     -0.000709      0.000000
     57 Si    c       0.000067      0.000065     -0.000445      0.000000
     58 Si    c       0.000265      0.000368      0.000382      0.000000
     59 Si    c       0.000333      0.000015     -0.000158      0.000000
     60 Si    c       0.000108      0.000457      0.000184      0.000000
     61 O2    c       0.000230     -0.001084      0.001188      0.000000
     62 O2    c       0.000031      0.000185     -0.000104      0.000000
     63 O2    c       0.000380      0.000298      0.000535      0.000000
     64 O2    c      -0.000049     -0.000054     -0.001287      0.000000
     65 O2    c       0.000174      0.000279      0.000953      0.000000
     66 O2    c       0.000858      0.000521      0.001050      0.000000
     67 O2    c       0.000105     -0.000111      0.000664      0.000000
     68 O2    c      -0.000028     -0.000180      0.001039      0.000000
     69 O2    c       0.000673      0.000261      0.000352      0.000000
     70 O2    c       0.000262      0.000154      0.000005      0.000000
     71 O3    c      -0.000730      0.000336      0.000608      0.000000
     72 O2    c      -0.000003     -0.000166     -0.000015      0.000000
     73 O3    c       0.000095     -0.002763      0.003170      0.000000
     74 O2    c      -0.000081     -0.000080     -0.000199      0.000000
     75 O2    c      -0.000074      0.000165      0.000027      0.000000
     76 O2    c       0.000310      0.000039     -0.000287      0.000000
     77 O2    c       0.000082     -0.000539     -0.000863      0.000000
     78 O2    c       0.000189     -0.000054      0.000699      0.000000
     79 O2    c       0.000227     -0.000290      0.000656      0.000000
     80 O2    c      -0.000008      0.000084     -0.000565      0.000000
     81 O2    c      -0.000292     -0.000493      0.000574      0.000000
     82 O2    c       0.000133     -0.000069      0.000197      0.000000
     83 O2    c       0.000159      0.000028     -0.000911      0.000000
     84 O2    c       0.000038      0.000938     -0.000255      0.000000
     85 O2    c       0.000129      0.000015     -0.000392      0.000000
     86 O2    c       0.001042     -0.000261      0.000986      0.000000
     87 O2    c      -0.000099     -0.000191     -0.000460      0.000000
     88 O2    c       0.000285     -0.000021      0.001148      0.000000
     89 O2    c       0.000174     -0.000024      0.000350      0.000000
     90 O2    c       0.000974      0.000025     -0.000228      0.000000
     91 O2    c       0.000626      0.000411     -0.000450      0.000000
     92 O2    c       0.000153      0.000341     -0.001857      0.000000
     93 O2    c       0.000130     -0.000051     -0.000197      0.000000
     94 O2    c       0.000464      0.000518      0.001462      0.000000
     95 O2    c       0.000570      0.000530      0.003119      0.000000
     96 O2    c       0.000138      0.000084     -0.000513      0.000000
     97 O2    c      -0.000140      0.000596     -0.000543      0.000000
     98 O2    c       0.000162      0.000177     -0.000017      0.000000
     99 O3    c       0.000551     -0.000251     -0.000281      0.000000
    100 O2    c       0.000088     -0.000065      0.000713      0.000000
    101 O2    c       0.000234      0.000403     -0.000375      0.000000
    102 O2    c      -0.000230     -0.000099      0.000696      0.000000
    103 O2    c      -0.000046     -0.000112      0.000212      0.000000
    104 O2    c       0.000297     -0.000551      0.000400      0.000000
    105 O2    c      -0.000185      0.000367      0.000018      0.000000
    106 O2    c       0.000020      0.000027      0.000751      0.000000
    107 O2    c       0.000128     -0.000093     -0.000594      0.000000
    108 O2    c       0.000101     -0.000393     -0.000977      0.000000
    109 O2    c       0.000088     -0.000248      0.000546      0.000000
    110 O2    c       0.000071      0.000216      0.000331      0.000000
    111 O2    c       0.000443      0.000040     -0.000333      0.000000
    112 O2    c       0.000088     -0.000017      0.000211      0.000000
    113 O3    c      -0.002936     -0.002091      0.008431      0.000000
    114 O2    c       0.000070     -0.000072     -0.000078      0.000000
    115 O2    c       0.000140     -0.000280      0.000027      0.000000
    116 O2    c       0.000029     -0.000046     -0.000537      0.000000
    117 O2    c      -0.000210     -0.000261     -0.000679      0.000000
    118 O2    c       0.000181     -0.000119     -0.000025      0.000000
    119 O2    c      -0.000013     -0.000038      0.000227      0.000000
    120 O2    c       0.000373      0.000138     -0.000679      0.000000
    121 O2    c       0.000229      0.000070     -0.000165      0.000000
    122 O2    c       0.000345      0.000582     -0.000310      0.000000
    123 O2    c      -0.000069     -0.000291      0.000799      0.000000
    124 O2    c       0.000374      0.000180     -0.000878      0.000000
    125 O2    c      -0.000023     -0.000120     -0.000085      0.000000
    126 O3    c       0.000346      0.000012     -0.002455      0.000000
    127 O3    c       0.000875      0.000110     -0.001871      0.000000
    128 O2    c       0.000134      0.000051      0.000939      0.000000
    129 O3    c       0.000029     -0.000358     -0.000128      0.000000
    130 O2    c       0.000436     -0.000079     -0.000051      0.000000
    131 O2    c       0.000250      0.000185     -0.000035      0.000000
    132 O2    c       0.000309     -0.000161      0.000299      0.000000
    133 O2    c      -0.000112      0.000088     -0.000402      0.000000
    134 O2    c       0.000384     -0.000111      0.000497      0.000000
    135 O2    c      -0.000258      0.000058     -0.000261      0.000000
    136 O2    c       0.000068      0.000269     -0.000090      0.000000
    137 O2    c       0.000098     -0.000042     -0.000372      0.000000
    138 O2    c       0.000040      0.000391     -0.000448      0.000000
    139 O3    c      -0.000111      0.000332      0.001507      0.000000
    140 O2    c       0.000205      0.000022     -0.000330      0.000000
    141 O2    c       0.000168     -0.000412      0.000340      0.000000
    142 O2    c       0.000231      0.000030      0.000123      0.000000
    143 O2    c       0.000363      0.000074     -0.000524      0.000000
    144 O2    c       0.000314     -0.000272     -0.000217      0.000000
    145 O2    c      -0.000005     -0.000027      0.000983      0.000000
    146 O2    c       0.000036      0.000141     -0.000028      0.000000
    147 O2    c      -0.000208      0.000100     -0.000211      0.000000
    148 O2    c       0.000210     -0.000029      0.000182      0.000000
    149 O2    c       0.000090     -0.000000      0.000256      0.000000
    150 O2    c       0.000091      0.000006     -0.000667      0.000000
    151 O2    c       0.000024      0.000075     -0.000797      0.000000
    152 O2    c       0.000221     -0.000134     -0.000422      0.000000
    153 O2    c      -0.000128     -0.000007      0.000895      0.000000
    154 O2    c       0.000186      0.000159      0.000478      0.000000
    155 O3    c       0.000040     -0.000316      0.000213      0.000000
    156 O2    c       0.000176      0.000172     -0.001869      0.000000
    157 O2    c       0.000069     -0.000038     -0.001726      0.000000
    158 O2    c       0.000017      0.000734      0.003235      0.000000
    159 O2    c       0.000109     -0.000219      0.001260      0.000000
    160 O2    c       0.000603     -0.000218     -0.000086      0.000000
    161 O2    c      -0.000116     -0.000204     -0.000289      0.000000
    162 O2    c       0.000148      0.000050     -0.000105      0.000000
    163 O2    c       0.000733     -0.000169     -0.000327      0.000000
    164 O2    c      -0.000026      0.000152      0.000379      0.000000
    165 O2    c      -0.000662     -0.000187     -0.000175      0.000000
    166 O2    c       0.000092     -0.000059      0.000054      0.000000
    167 O2    c      -0.000028     -0.000026     -0.000332      0.000000
    168 O2    c       0.000527      0.000056      0.000580      0.000000
    169 O2    c       0.000297      0.000149      0.000139      0.000000
    170 O2    c       0.001134      0.000857     -0.001018      0.000000
    171 O3    c       0.000043     -0.000856      0.000022      0.000000
    172 O2    c       0.000346      0.000097      0.000192      0.000000
    173 O2    c      -0.000026     -0.000137      0.000003      0.000000
    174 O3    c       0.000628     -0.000128      0.001136      0.000000
    175 O3    c      -0.000096      0.000223     -0.007905      0.000000
    176 O2    c      -0.000349     -0.000277      0.000223      0.000000
    177 O2    c       0.000515     -0.000531     -0.002549      0.000000
    178 O2    c      -0.000077     -0.000308     -0.000179      0.000000
    179 O2    c       0.000699      0.000257     -0.000098      0.000000
    180 O2    c       0.000234      0.000030     -0.000148      0.000000
    181 F     c       0.000160      0.000130      0.000196      0.000000
    182 F     c      -0.000328     -0.000136     -0.000049      0.000000
    183 F     c       0.000299     -0.000079      0.000208      0.000000
    184 F     c      -0.000069     -0.000299      0.000125      0.000000
    185 F     c      -0.000243      0.000642     -0.002052      0.000000
    186 F     c       0.000144      0.000077      0.000081      0.000000
    187 O2    s       0.000397     -0.000229     -0.000610      0.000000
    188 O2    s      -0.000055      0.000284      0.000431      0.000000
    189 O2    s       0.000219      0.000165     -0.000347      0.000000
    190 O2    s       0.000066     -0.000204      0.001854      0.000000
    191 O2    s       0.000054      0.000381     -0.000949      0.000000
    192 O2    s       0.000698      0.000125      0.000121      0.000000
    193 O2    s       0.000215      0.000008     -0.000029      0.000000
    194 O2    s      -0.000137     -0.000395     -0.000003      0.000000
    195 O2    s       0.000755     -0.000085      0.000029      0.000000
    196 O2    s       0.000171      0.000221      0.000045      0.000000
    197 O3    s       0.000689     -0.000241      0.001669      0.000000
    198 O2    s       0.000154     -0.000284     -0.000233      0.000000
    199 O3    s       0.003868      0.000936      0.003082      0.000000
    200 O2    s      -0.000450     -0.000281     -0.001012      0.000000
    201 O2    s       0.000228     -0.000127     -0.000603      0.000000
    202 O2    s       0.000330     -0.000027      0.000549      0.000000
    203 O2    s       0.000321      0.000003      0.000579      0.000000
    204 O2    s       0.000365     -0.000013      0.000007      0.000000
    205 O2    s       0.000468      0.000096     -0.001159      0.000000
    206 O2    s      -0.000071      0.000244      0.001150      0.000000
    207 O2    s      -0.000495     -0.000366     -0.000148      0.000000
    208 O2    s       0.000119     -0.000153     -0.000238      0.000000
    209 O2    s       0.000209      0.000040      0.001744      0.000000
    210 O2    s      -0.000021      0.000431      0.001260      0.000000
    211 O2    s       0.000146      0.000056      0.000897      0.000000
    212 O2    s       0.000926     -0.000316     -0.002720      0.000000
    213 O2    s      -0.000063     -0.000490      0.000785      0.000000
    214 O2    s       0.000215      0.000157     -0.001002      0.000000
    215 O2    s       0.000161     -0.000035     -0.000715      0.000000
    216 O2    s       0.000631      0.000066      0.000659      0.000000
    217 O2    s       0.000293      0.000729      0.001212      0.000000
    218 O2    s       0.000019      0.000421     -0.000155      0.000000
    219 O2    s      -0.000027      0.000199     -0.001503      0.000000
    220 O2    s       0.000714      0.000150     -0.000218      0.000000
    221 O2    s       0.000105      0.000220      0.000261      0.000000
    222 O2    s       0.000176      0.000073      0.000553      0.000000
    223 O2    s      -0.000306      0.000763      0.001860      0.000000
    224 O2    s       0.000194      0.000104      0.000486      0.000000
    225 O3    s       0.000219     -0.000295      0.001171      0.000000
    226 O2    s       0.000099     -0.000094     -0.001176      0.000000
    227 O2    s       0.000436      0.000189      0.000305      0.000000
    228 O2    s      -0.000064     -0.000257     -0.000001      0.000000
    229 O2    s      -0.000030     -0.000071     -0.000473      0.000000
    230 O2    s      -0.000522     -0.000107     -0.000566      0.000000
    231 O2    s      -0.000044      0.000155     -0.000542      0.000000
    232 O2    s       0.000073      0.000003     -0.000706      0.000000
    233 O2    s       0.000214     -0.000173      0.000523      0.000000
    234 O2    s       0.000352     -0.000349      0.000903      0.000000
    235 O2    s       0.000270     -0.000136      0.000078      0.000000
    236 O2    s      -0.000181     -0.000008     -0.000067      0.000000
    237 O2    s       0.000739      0.000031      0.000445      0.000000
    238 O2    s      -0.000009     -0.000162      0.000058      0.000000
    239 O3    s       0.002353      0.002584     -0.007207      0.000000
    240 O2    s       0.000045     -0.000066     -0.000316      0.000000
    241 O2    s      -0.000329      0.000262     -0.000041      0.000000
    242 O2    s      -0.000010      0.000002      0.000709      0.000000
    243 O2    s      -0.000441     -0.000199      0.000869      0.000000
    244 O2    s       0.000173     -0.000134      0.000036      0.000000
    245 O2    s      -0.000000      0.000006     -0.000181      0.000000
    246 O2    s       0.000087      0.000172      0.001544      0.000000
    247 O2    s       0.000281      0.000095      0.000733      0.000000
    248 O2    s       0.000392      0.000461     -0.000408      0.000000
    249 O2    s       0.000016     -0.000452     -0.000723      0.000000
    250 O2    s       0.000316      0.000114      0.001865      0.000000
    251 O2    s      -0.000026     -0.000107     -0.000050      0.000000
    252 O3    s       0.000470     -0.000186      0.003976      0.000000
    253 O3    s      -0.000272      0.000373      0.001452      0.000000
    254 O2    s       0.000149      0.000147     -0.000967      0.000000
    255 O3    s      -0.000185     -0.000623      0.000241      0.000000
    256 O2    s       0.000319     -0.000166      0.000276      0.000000
    257 O2    s       0.000511      0.000203      0.000476      0.000000
    258 O2    s       0.000303      0.000069      0.000397      0.000000
    259 O2    s       0.000017      0.000072      0.000526      0.000000
    260 O2    s       0.000771     -0.000272     -0.000288      0.000000
    261 O2    s      -0.000281     -0.000081      0.000486      0.000000
    262 O2    s       0.000098      0.000099      0.000444      0.000000
    263 O2    s       0.000032     -0.000081      0.000227      0.000000
    264 O2    s       0.000310     -0.000323      0.000475      0.000000
    265 O3    s      -0.000683     -0.000735     -0.003318      0.000000
    266 O2    s       0.000064      0.000168      0.000653      0.000000
    267 O2    s      -0.000097     -0.000415     -0.000241      0.000000
    268 O2    s       0.000267      0.000085     -0.000222      0.000000
    269 O2    s       0.000423      0.000193      0.001341      0.000000
    270 O2    s       0.000481     -0.000020      0.000593      0.000000
    271 O2    s      -0.000002      0.000135     -0.001433      0.000000
    272 O2    s       0.000652      0.000048      0.000287      0.000000
    273 O2    s      -0.000339     -0.000197      0.000315      0.000000
    274 O2    s       0.000045      0.000094     -0.000112      0.000000
    275 O2    s       0.000115     -0.000070     -0.000594      0.000000
    276 O2    s      -0.000291      0.000450      0.001027      0.000000
    277 O2    s       0.000588     -0.000152      0.000978      0.000000
    278 O2    s      -0.000068      0.000030      0.000883      0.000000
    279 O2    s      -0.000294      0.000031      0.000007      0.000000
    280 O2    s       0.000253     -0.000009     -0.000100      0.000000
    281 O3    s       0.000028     -0.000000      0.000019      0.000000
    282 O2    s       0.000348     -0.000321     -0.000004      0.000000
    283 O2    s       0.000191     -0.000041      0.001319      0.000000
    284 O2    s       0.000730      0.000305      0.000243      0.000000
    285 O2    s       0.000060     -0.000238     -0.001214      0.000000
    286 O2    s       0.000248      0.000128      0.000410      0.000000
    287 O2    s      -0.000068     -0.000159      0.000454      0.000000
    288 O2    s       0.000299     -0.000073      0.000071      0.000000
    289 O2    s       0.000277      0.000217      0.001192      0.000000
    290 O2    s       0.000242     -0.000161     -0.000906      0.000000
    291 O2    s      -0.000458     -0.000140      0.000256      0.000000
    292 O2    s       0.000132     -0.000126     -0.000268      0.000000
    293 O2    s       0.000025     -0.000008      0.000862      0.000000
    294 O2    s       0.000293      0.000059     -0.000705      0.000000
    295 O2    s       0.000202      0.000195      0.000360      0.000000
    296 O2    s       0.001150     -0.001112      0.000308      0.000000
    297 O3    s      -0.000127     -0.000335      0.000461      0.000000
    298 O2    s       0.000374      0.000155     -0.000305      0.000000
    299 O2    s      -0.000032     -0.000220     -0.000206      0.000000
    300 O3    s       0.000153      0.000016     -0.000567      0.000000
    301 O3    s       0.000432     -0.000158      0.007597      0.000000
    302 O2    s      -0.000208     -0.000166      0.000142      0.000000
    303 O2    s       0.000556      0.000407      0.000414      0.000000
    304 O2    s       0.000141     -0.000446     -0.000084      0.000000
    305 O2    s       0.000331      0.000360      0.001042      0.000000
    306 O2    s       0.000200      0.000070      0.000183      0.000000
    307 F     s       0.000437     -0.000051     -0.000005      0.000000
    308 F     s      -0.000269     -0.000091      0.000575      0.000000
    309 F     s       0.000562      0.000113     -0.000158      0.000000
    310 F     s       0.000050     -0.000342      0.000024      0.000000
    311 F     s      -0.001612     -0.000174     -0.002136      0.000000
    312 F     s       0.000205     -0.000029      0.000008      0.000000
--------------------------------------------------------------------------------
  Maximum abs         0.003868      0.002763      0.008431      0.000000
--------------------------------------------------------------------------------


  Time to end of optimisation =      44.7642 seconds


  Peak dynamic memory used =      19.13 MB 


  Timing analysis for GULP :

--------------------------------------------------------------------------------
  Task / Subroutine                                          Time (Seconds)
--------------------------------------------------------------------------------
  Calculation of reciprocal space energy and derivatives          1.2849
  Calculation of real space energy and derivatives               38.7357
  Calculation of three-body energy and derivatives                3.9087
  Calculation of matrix inversion                                 0.7463
--------------------------------------------------------------------------------
  Total CPU time                                                 44.7643
--------------------------------------------------------------------------------


  Dump file written as out.res                                                 
  CIF file written as out.cif                                                 


  Job Finished at 01:31.05  4th November   2016                               

