********************************************************************************
*                       GENERAL UTILITY LATTICE PROGRAM                        *
*                                 Julian Gale                                  *
*                      Nanochemistry Research Institute                        *
*                           Department of Chemistry                            *
*                    Curtin University, Western Australia                      *
********************************************************************************
* Version = 4.2.0 * Last modified =  20th January 2014                         *
********************************************************************************
*  optimise     - perform optimisation run                                     *
*  conp         - constant pressure calculation                                *
*  qok          - running with non charge neutral cell is OK                   *
********************************************************************************

  Job Started  at 01:08.04  5th November   2016                               

  Number of CPUs =     1


  Total number of configurations input =   1

********************************************************************************
*  Input for Configuration =   1                                               *
********************************************************************************

  Formula = Ge3Si57O120F6                                               

  Number of irreducible atoms/shells =     312


  Total number atoms/shells =     312

  Dimensionality = 3               :  Bulk   


  Charge on solid   =  -6.000000 =>neutralising background added


  Cartesian lattice vectors (Angstroms) :

       11.953059    0.000000    0.000000
       -5.996215   10.388934    0.000000
        0.236553   -0.243311   29.398773

  Cell parameters (Angstroms/Degrees):

  a =      11.9531    alpha =  90.6411
  b =      11.9952    beta  =  89.5390
  c =      29.4007    gamma = 119.9924

  Initial cell volume =        3650.726019 Angs**3

  Temperature of configuration =  0.000     K 

  Pressure of configuration =         0.000 GPa 

  Fractional coordinates of asymmetric unit :

--------------------------------------------------------------------------------
   No.  Atomic       x           y          z         Charge      Occupancy
        Label      (Frac)      (Frac)     (Frac)        (e)         (Frac)  
--------------------------------------------------------------------------------
      1 Ge    c    0.699600    0.375700    0.033890     4.00000    1.000000    
      2 Si    c    0.623810 *  0.322524 *  0.366492 *   4.00000    1.000000    
      3 Si    c    0.676403 *  0.295639 *  0.699057 *   4.00000    1.000000    
      4 Si    c    0.297085 *  0.619553 *  0.532923 *   4.00000    1.000000    
      5 Si    c    0.378313 *  0.676988 *  0.865757 *   4.00000    1.000000    
      6 Si    c    0.322986 *  0.689470 *  0.197712 *   4.00000    1.000000    
      7 Si    c    0.383653 *  0.695965 *  0.300036 *   4.00000    1.000000    
      8 Si    c    0.323502 *  0.619991 *  0.966189 *   4.00000    1.000000    
      9 Si    c    0.296907 *  0.675504 *  0.633875 *   4.00000    1.000000    
     10 Si    c    0.621517 *  0.296841 *  0.799943 *   4.00000    1.000000    
     11 Si    c    0.678021 *  0.378801 *  0.467326 *   4.00000    1.000000    
     12 Si    c    0.687007 *  0.320810 *  0.134945 *   4.00000    1.000000    
     13 Si    c    0.530003 *  0.416602 *  0.966166 *   4.00000    1.000000    
     14 Si    c    0.589149 *  0.111555 *  0.301232 *   4.00000    1.000000    
     15 Si    c    0.886552 *  0.469536 *  0.634334 *   4.00000    1.000000    
     16 Si    c    0.470505 *  0.581712 *  0.467591 *   4.00000    1.000000    
     17 Si    c    0.416504 *  0.886741 *  0.801051 *   4.00000    1.000000    
     18 Si    c    0.107414 *  0.523903 *  0.134183 *   4.00000    1.000000    
     19 Si    c    0.420557 *  0.526616 *  0.365780 *   4.00000    1.000000    
     20 Si    c    0.111187 *  0.582876 *  0.031541 *   4.00000    1.000000    
     21 Si    c    0.469599 *  0.886089 *  0.699003 *   4.00000    1.000000    
     22 Si    c    0.582656 *  0.471064 *  0.864189 *   4.00000    1.000000    
     23 Si    c    0.887678 *  0.416594 *  0.532359 *   4.00000    1.000000    
     24 Si    c    0.528595 *  0.110958 *  0.198728 *   4.00000    1.000000    
     25 Si    c    0.301921 *  0.399896 *  0.849886 *   4.00000    1.000000    
     26 Ge    c    0.593624 *  0.901416 *  0.190669 *   4.00000    1.000000    
     27 Si    c    0.096153 *  0.696281 *  0.518393 *   4.00000    1.000000    
     28 Si    c    0.702089 *  0.599905 *  0.351021 *   4.00000    1.000000    
     29 Si    c    0.398209 *  0.094171 *  0.684548 *   4.00000    1.000000    
     30 Si    c    0.900249 *  0.296218 *  0.016561 *   4.00000    1.000000    
     31 Si    c    0.398986 *  0.301915 *  0.482038 *   4.00000    1.000000    
     32 Ge    c    0.894895 *  0.598378 *  0.143583 *   4.00000    1.000000    
     33 Si    c    0.698069 *  0.096214 *  0.814982 *   4.00000    1.000000    
     34 Si    c    0.602533 *  0.698246 *  0.981268 *   4.00000    1.000000    
     35 Si    c    0.095604 *  0.397763 *  0.648607 *   4.00000    1.000000    
     36 Si    c    0.303864 *  0.898013 *  0.315701 *   4.00000    1.000000    
     37 Si    c    0.250978 *  0.340254 *  0.950291 *   4.00000    1.000000    
     38 Si    c    0.671311 *  0.910364 *  0.287222 *   4.00000    1.000000    
     39 Si    c    0.087781 *  0.747620 *  0.619344 *   4.00000    1.000000    
     40 Si    c    0.749994 *  0.659080 *  0.452228 *   4.00000    1.000000    
     41 Si    c    0.339904 *  0.088095 *  0.785515 *   4.00000    1.000000    
     42 Si    c    0.899251 *  0.244284 *  0.119066 *   4.00000    1.000000    
     43 Si    c    0.342454 *  0.249252 *  0.381196 *   4.00000    1.000000    
     44 Si    c    0.906973 *  0.663307 *  0.043394 *   4.00000    1.000000    
     45 Si    c    0.748173 *  0.087649 *  0.713899 *   4.00000    1.000000    
     46 Si    c    0.659486 *  0.748954 *  0.880070 *   4.00000    1.000000    
     47 Si    c    0.088675 *  0.339179 *  0.547493 *   4.00000    1.000000    
     48 Si    c    0.247253 *  0.901418 *  0.213952 *   4.00000    1.000000    
     49 Si    c    0.973746 *  0.120081 *  0.965716 *   4.00000    1.000000    
     50 Si    c    0.883503 *  0.847293 *  0.301705 *   4.00000    1.000000    
     51 Si    c    0.151065 *  0.027822 *  0.633668 *   4.00000    1.000000    
     52 Si    c    0.029927 *  0.876526 *  0.467953 *   4.00000    1.000000    
     53 Si    c    0.121924 *  0.151099 *  0.799621 *   4.00000    1.000000    
     54 Si    c    0.842680 *  0.965478 *  0.135074 *   4.00000    1.000000    
     55 Si    c    0.126215 *  0.968703 *  0.367117 *   4.00000    1.000000    
     56 Si    c    0.850317 *  0.881268 *  0.032231 *   4.00000    1.000000    
     57 Si    c    0.028633 *  0.150681 *  0.698782 *   4.00000    1.000000    
     58 Si    c    0.877587 *  0.027500 *  0.864826 *   4.00000    1.000000    
     59 Si    c    0.151131 *  0.121272 *  0.532892 *   4.00000    1.000000    
     60 Si    c    0.966975 *  0.848178 *  0.198839 *   4.00000    1.000000    
     61 O2    c    0.928878 *  0.003946 *  0.000187 *   0.87073    1.000000    
     62 O2    c    0.006716 *  0.923838 *  0.333885 *   0.87073    1.000000    
     63 O2    c    0.071014 *  0.071449 *  0.665713 *   0.87073    1.000000    
     64 O2    c    0.071188 *  0.998987 *  0.500306 *   0.87073    1.000000    
     65 O2    c    0.999119 *  0.070784 *  0.831764 *   0.87073    1.000000    
     66 O2    c    0.936218 *  0.937295 *  0.166721 *   0.87073    1.000000    
     67 O2    c    0.344336 *  0.574780 *  0.333035 *   0.87073    1.000000    
     68 O2    c    0.420237 *  0.759980 *  0.666470 *   0.87073    1.000000    
     69 O2    c    0.237905 *  0.657227 *  0.999708 *   0.87073    1.000000    
     70 O2    c    0.660246 *  0.421661 *  0.831918 *   0.87073    1.000000    
     71 O2    c    0.567893 *  0.238883 *  0.169644 *   0.87073    1.000000    
     72 O2    c    0.761997 *  0.340305 *  0.499872 *   0.87073    1.000000    
     73 O3    c    0.570555 *  0.335812 *  0.997232 *   1.33043    1.000000    
     74 O2    c    0.760240 *  0.419057 *  0.666649 *   0.87073    1.000000    
     75 O2    c    0.662453 *  0.236392 *  0.334094 *   0.87073    1.000000    
     76 O2    c    0.420822 *  0.658382 *  0.500025 *   0.87073    1.000000    
     77 O2    c    0.229977 *  0.563979 *  0.167150 *   0.87073    1.000000    
     78 O2    c    0.340227 *  0.762238 *  0.833519 *   0.87073    1.000000    
     79 O2    c    0.127832 *  0.211268 *  0.970311 *   0.87073    1.000000    
     80 O2    c    0.791177 *  0.907461 *  0.312121 *   0.87073    1.000000    
     81 O2    c    0.086936 *  0.873963 *  0.639228 *   0.87073    1.000000    
     82 O2    c    0.875325 *  0.785887 *  0.472643 *   0.87073    1.000000    
     83 O2    c    0.213043 *  0.088313 *  0.805421 *   0.87073    1.000000    
     84 O2    c    0.897809 *  0.120494 *  0.139909 *   0.87073    1.000000    
     85 O2    c    0.216408 *  0.122223 *  0.361255 *   0.87073    1.000000    
     86 O2    c    0.915795 *  0.793762 *  0.023089 *   0.87073    1.000000    
     87 O2    c    0.874348 *  0.086874 *  0.693472 *   0.87073    1.000000    
     88 O2    c    0.785635 *  0.873833 *  0.859249 *   0.87073    1.000000    
     89 O2    c    0.087657 *  0.211790 *  0.527619 *   0.87073    1.000000    
     90 O2    c    0.121911 *  0.900163 *  0.193986 *   0.87073    1.000000    
     91 O2    c    0.935117 *  0.867631 *  0.250754 *   0.87073    1.000000    
     92 O2    c    0.139075 *  0.067733 *  0.583106 *   0.87073    1.000000    
     93 O2    c    0.931360 *  0.064086 *  0.915457 *   0.87073    1.000000    
     94 O2    c    0.069380 *  0.137088 *  0.748954 *   0.87073    1.000000    
     95 O2    c    0.862767 *  0.931810 *  0.083341 *   0.87073    1.000000    
     96 O2    c    0.072405 *  0.929448 *  0.417540 *   0.87073    1.000000    
     97 O2    c    0.907801 *  0.205651 *  0.977272 *   0.87073    1.000000    
     98 O2    c    0.801666 *  0.694573 *  0.312590 *   0.87073    1.000000    
     99 O2    c    0.302425 *  0.096006 *  0.645976 *   0.87073    1.000000    
    100 O2    c    0.098615 *  0.794290 *  0.480121 *   0.87073    1.000000    
    101 O2    c    0.203743 *  0.302866 *  0.811272 *   0.87073    1.000000    
    102 O3    c    0.696680 *  0.891775 *  0.148185 *   1.33043    1.000000    
    103 O2    c    0.210306 *  0.900008 *  0.355266 *   0.87073    1.000000    
    104 O2    c    0.697913 *  0.797424 *  0.019830 *   0.87073    1.000000    
    105 O2    c    0.097143 *  0.301967 *  0.686875 *   0.87073    1.000000    
    106 O2    c    0.795700 *  0.097617 *  0.853478 *   0.87073    1.000000    
    107 O2    c    0.302809 *  0.204358 *  0.520517 *   0.87073    1.000000    
    108 O3    c    0.891631 *  0.701047 *  0.186486 *   1.33043    1.000000    
    109 O2    c    0.329374 *  0.641640 *  0.249403 *   0.87073    1.000000    
    110 O2    c    0.354562 *  0.676452 *  0.583291 *   0.87073    1.000000    
    111 O2    c    0.320911 *  0.677458 *  0.916318 *   0.87073    1.000000    
    112 O2    c    0.677870 *  0.353291 *  0.749564 *   0.87073    1.000000    
    113 O3    c    0.624496 *  0.311096 *  0.085539 *   1.33043    1.000000    
    114 O2    c    0.680186 *  0.322605 *  0.416757 *   0.87073    1.000000    
    115 O2    c    0.373051 *  0.331353 *  0.968039 *   0.87073    1.000000    
    116 O2    c    0.676134 *  0.042831 *  0.304132 *   0.87073    1.000000    
    117 O2    c    0.954909 *  0.625562 *  0.637564 *   0.87073    1.000000    
    118 O2    c    0.626924 *  0.669319 *  0.470267 *   0.87073    1.000000    
    119 O2    c    0.329418 *  0.956166 *  0.803895 *   0.87073    1.000000    
    120 O2    c    0.032884 *  0.368590 *  0.135303 *   0.87073    1.000000    
    121 O2    c    0.332646 *  0.370617 *  0.362265 *   0.87073    1.000000    
    122 O2    c    0.042250 *  0.669286 *  0.028874 *   0.87073    1.000000    
    123 O2    c    0.626051 *  0.954669 *  0.695583 *   0.87073    1.000000    
    124 O2    c    0.669182 *  0.626879 *  0.860903 *   0.87073    1.000000    
    125 O2    c    0.956485 *  0.329139 *  0.528878 *   0.87073    1.000000    
    126 O2    c    0.371436 *  0.033854 *  0.197715 *   0.87073    1.000000    
    127 O3    c    0.766739 *  0.291365 *  0.008767 *   1.33043    1.000000    
    128 O2    c    0.699144 *  0.464283 *  0.343625 *   0.87073    1.000000    
    129 O2    c    0.532893 *  0.227145 *  0.676773 *   0.87073    1.000000    
    130 O2    c    0.229632 *  0.694719 *  0.510505 *   0.87073    1.000000    
    131 O2    c    0.303321 *  0.534352 *  0.842441 *   0.87073    1.000000    
    132 O3    c    0.459644 *  0.751596 *  0.173612 *   1.33043    1.000000    
    133 O2    c    0.308357 *  0.766661 *  0.320588 *   0.87073    1.000000    
    134 O2    c    0.466491 *  0.695779 *  0.988713 *   0.87073    1.000000    
    135 O2    c    0.229017 *  0.532499 *  0.655851 *   0.87073    1.000000    
    136 O2    c    0.696937 *  0.229660 *  0.822463 *   0.87073    1.000000    
    137 O2    c    0.533911 *  0.303581 *  0.489303 *   0.87073    1.000000    
    138 O3    c    0.749946 *  0.462193 *  0.156910 *   1.33043    1.000000    
    139 O3    c    0.782437 *  0.542668 *  0.022480 *   1.33043    1.000000    
    140 O2    c    0.467386 *  0.245970 *  0.361595 *   0.87073    1.000000    
    141 O2    c    0.750506 *  0.213625 *  0.693907 *   0.87073    1.000000    
    142 O2    c    0.215585 *  0.463600 *  0.527788 *   0.87073    1.000000    
    143 O2    c    0.534631 *  0.751617 *  0.860969 *   0.87073    1.000000    
    144 O2    c    0.254227 *  0.777929 *  0.195899 *   0.87073    1.000000    
    145 O2    c    0.538517 *  0.784975 *  0.304299 *   0.87073    1.000000    
    146 O2    c    0.246781 *  0.463995 *  0.970663 *   0.87073    1.000000    
    147 O2    c    0.213966 *  0.748729 *  0.638939 *   0.87073    1.000000    
    148 O2    c    0.465292 *  0.214449 *  0.805112 *   0.87073    1.000000    
    149 O2    c    0.750400 *  0.534476 *  0.472047 *   0.87073    1.000000    
    150 O2    c    0.778407 *  0.255503 *  0.137592 *   0.87073    1.000000    
    151 O2    c    0.229790 *  0.324237 *  0.895849 *   0.87073    1.000000    
    152 O3    c    0.699535 *  0.908447 *  0.234586 *   1.33043    1.000000    
    153 O2    c    0.090833 *  0.766715 *  0.564931 *   0.87073    1.000000    
    154 O2    c    0.770845 *  0.674321 *  0.397830 *   0.87073    1.000000    
    155 O2    c    0.322987 *  0.089767 *  0.731070 *   0.87073    1.000000    
    156 O2    c    0.900300 *  0.231193 *  0.064393 *   0.87073    1.000000    
    157 O2    c    0.323982 *  0.231182 *  0.435587 *   0.87073    1.000000    
    158 O3    c    0.902259 *  0.688967 *  0.097197 *   1.33043    1.000000    
    159 O2    c    0.768373 *  0.091274 *  0.768289 *   0.87073    1.000000    
    160 O2    c    0.676611 *  0.767423 *  0.934537 *   0.87073    1.000000    
    161 O2    c    0.090626 *  0.322895 *  0.601856 *   0.87073    1.000000    
    162 O2    c    0.236702 *  0.900365 *  0.268832 *   0.87073    1.000000    
    163 O2    c    0.586496 *  0.558412 *  0.989662 *   0.87073    1.000000    
    164 O2    c    0.446270 *  0.019298 *  0.321744 *   0.87073    1.000000    
    165 O2    c    0.970742 *  0.413158 *  0.657370 *   0.87073    1.000000    
    166 O2    c    0.413530 *  0.441447 *  0.490789 *   0.87073    1.000000    
    167 O2    c    0.558195 *  0.971661 *  0.823756 *   0.87073    1.000000    
    168 O3    c    0.028677 *  0.585428 *  0.156574 *   1.33043    1.000000    
    169 O2    c    0.562191 *  0.585607 *  0.342358 *   0.87073    1.000000    
    170 O2    c    0.020138 *  0.440434 *  0.010785 *   0.87073    1.000000    
    171 O2    c    0.411861 *  0.968610 *  0.675580 *   0.87073    1.000000    
    172 O2    c    0.441372 *  0.413191 *  0.840916 *   0.87073    1.000000    
    173 O2    c    0.970614 *  0.557198 *  0.509140 *   0.87073    1.000000    
    174 O3    c    0.593872 *  0.041067 *  0.172181 *   1.33043    1.000000    
    175 O2    c    0.583865 *  0.158566 *  0.250415 *   0.87073    1.000000    
    176 O2    c    0.833823 *  0.416418 *  0.583294 *   0.87073    1.000000    
    177 O2    c    0.583804 *  0.419852 *  0.914799 *   0.87073    1.000000    
    178 O2    c    0.416461 *  0.833492 *  0.749883 *   0.87073    1.000000    
    179 O2    c    0.156723 *  0.578145 *  0.083044 *   0.87073    1.000000    
    180 O2    c    0.417840 *  0.580307 *  0.416560 *   0.87073    1.000000    
    181 F     c    0.484222 *  0.901551 *  0.239638 *   0.56000    1.000000    
    182 F     c    0.095149 *  0.547210 *  0.582712 *   0.56000    1.000000    
    183 F     c    0.448895 *  0.548941 *  0.914979 *   0.56000    1.000000    
    184 F     c    0.548308 *  0.094829 *  0.749227 *   0.56000    1.000000    
    185 F     c    0.875320 *  0.461052 *  0.083482 *   0.56000    1.000000    
    186 F     c    0.547916 *  0.449739 *  0.415817 *   0.56000    1.000000    
    187 O2    s    0.925329 *  0.003754 *  0.999757 *  -2.87073    1.000000    
    188 O2    s    0.006738 *  0.920411 *  0.334128 *  -2.87073    1.000000    
    189 O2    s    0.075314 *  0.075433 *  0.665802 *  -2.87073    1.000000    
    190 O2    s    0.075475 *  0.998868 *  0.500305 *  -2.87073    1.000000    
    191 O2    s    0.999241 *  0.074933 *  0.831862 *  -2.87073    1.000000    
    192 O2    s    0.929913 *  0.930647 *  0.166902 *  -2.87073    1.000000    
    193 O2    s    0.356216 *  0.582563 *  0.332904 *  -2.87073    1.000000    
    194 O2    s    0.412524 *  0.764164 *  0.666419 *  -2.87073    1.000000    
    195 O2    s    0.233236 *  0.645613 *  0.999655 *  -2.87073    1.000000    
    196 O2    s    0.648258 *  0.413763 *  0.831903 *  -2.87073    1.000000    
    197 O2    s    0.575811 *  0.233747 *  0.169149 *  -2.87073    1.000000    
    198 O2    s    0.766195 *  0.352124 *  0.499821 *  -2.87073    1.000000    
    199 O3    s    0.576150 *  0.347185 *  0.996804 *  -3.33043    1.000000    
    200 O2    s    0.764756 *  0.411650 *  0.666626 *  -2.87073    1.000000    
    201 O2    s    0.650795 *  0.232119 *  0.333970 *  -2.87073    1.000000    
    202 O2    s    0.413315 *  0.646448 *  0.500033 *  -2.87073    1.000000    
    203 O2    s    0.226904 *  0.572789 *  0.166916 *  -2.87073    1.000000    
    204 O2    s    0.351967 *  0.766434 *  0.833450 *  -2.87073    1.000000    
    205 O2    s    0.123917 *  0.214742 *  0.967777 *  -2.87073    1.000000    
    206 O2    s    0.788714 *  0.901467 *  0.308590 *  -2.87073    1.000000    
    207 O2    s    0.093806 *  0.877167 *  0.636607 *  -2.87073    1.000000    
    208 O2    s    0.878798 *  0.782400 *  0.470057 *  -2.87073    1.000000    
    209 O2    s    0.216539 *  0.094953 *  0.802766 *  -2.87073    1.000000    
    210 O2    s    0.892553 *  0.118780 *  0.137175 *  -2.87073    1.000000    
    211 O2    s    0.219839 *  0.118979 *  0.363920 *  -2.87073    1.000000    
    212 O2    s    0.907968 *  0.790107 *  0.026014 *  -2.87073    1.000000    
    213 O2    s    0.877777 *  0.093768 *  0.696123 *  -2.87073    1.000000    
    214 O2    s    0.782468 *  0.877382 *  0.861955 *  -2.87073    1.000000    
    215 O2    s    0.094502 *  0.215307 *  0.530199 *  -2.87073    1.000000    
    216 O2    s    0.120277 *  0.895165 *  0.196608 *  -2.87073    1.000000    
    217 O2    s    0.932654 *  0.863253 *  0.251062 *  -2.87073    1.000000    
    218 O2    s    0.141804 *  0.069331 *  0.583084 *  -2.87073    1.000000    
    219 O2    s    0.930078 *  0.066290 *  0.915414 *  -2.87073    1.000000    
    220 O2    s    0.070675 *  0.140230 *  0.748955 *  -2.87073    1.000000    
    221 O2    s    0.859260 *  0.929685 *  0.083009 *  -2.87073    1.000000    
    222 O2    s    0.073795 *  0.927972 *  0.417447 *  -2.87073    1.000000    
    223 O2    s    0.914107 *  0.206135 *  0.980240 *  -2.87073    1.000000    
    224 O2    s    0.799929 *  0.700626 *  0.315406 *  -2.87073    1.000000    
    225 O2    s    0.296020 *  0.088524 *  0.648590 *  -2.87073    1.000000    
    226 O2    s    0.091027 *  0.793071 *  0.482721 *  -2.87073    1.000000    
    227 O2    s    0.205002 *  0.296560 *  0.813951 *  -2.87073    1.000000    
    228 O3    s    0.706112 *  0.900650 *  0.149540 *  -3.33043    1.000000    
    229 O2    s    0.211481 *  0.906919 *  0.352318 *  -2.87073    1.000000    
    230 O2    s    0.703799 *  0.795878 *  0.017140 *  -2.87073    1.000000    
    231 O2    s    0.089756 *  0.295846 *  0.684199 *  -2.87073    1.000000    
    232 O2    s    0.794377 *  0.090098 *  0.850753 *  -2.87073    1.000000    
    233 O2    s    0.296606 *  0.205583 *  0.517869 *  -2.87073    1.000000    
    234 O3    s    0.900044 *  0.709698 *  0.184756 *  -3.33043    1.000000    
    235 O2    s    0.334426 *  0.651930 *  0.249667 *  -2.87073    1.000000    
    236 O2    s    0.342784 *  0.670508 *  0.583272 *  -2.87073    1.000000    
    237 O2    s    0.326981 *  0.671592 *  0.916230 *  -2.87073    1.000000    
    238 O2    s    0.671941 *  0.341529 *  0.749508 *  -2.87073    1.000000    
    239 O3    s    0.636388 *  0.317149 *  0.086177 *  -3.33043    1.000000    
    240 O2    s    0.674183 *  0.328345 *  0.416756 *  -2.87073    1.000000    
    241 O2    s    0.375691 *  0.341090 *  0.965883 *  -2.87073    1.000000    
    242 O2    s    0.666584 *  0.036657 *  0.302112 *  -2.87073    1.000000    
    243 O2    s    0.961763 *  0.622297 *  0.635320 *  -2.87073    1.000000    
    244 O2    s    0.623707 *  0.659207 *  0.468085 *  -2.87073    1.000000    
    245 O2    s    0.339440 *  0.962811 *  0.801676 *  -2.87073    1.000000    
    246 O2    s    0.026712 *  0.371984 *  0.133459 *  -2.87073    1.000000    
    247 O2    s    0.342705 *  0.373950 *  0.364613 *  -2.87073    1.000000    
    248 O2    s    0.035987 *  0.659543 *  0.030618 *  -2.87073    1.000000    
    249 O2    s    0.622717 *  0.961517 *  0.697862 *  -2.87073    1.000000    
    250 O2    s    0.659238 *  0.623637 *  0.863260 *  -2.87073    1.000000    
    251 O2    s    0.963209 *  0.339172 *  0.531185 *  -2.87073    1.000000    
    252 O2    s    0.374209 *  0.027499 *  0.199569 *  -2.87073    1.000000    
    253 O3    s    0.775211 *  0.298563 *  0.011618 *  -3.33043    1.000000    
    254 O2    s    0.691661 *  0.463813 *  0.346796 *  -2.87073    1.000000    
    255 O2    s    0.533475 *  0.220178 *  0.679917 *  -2.87073    1.000000    
    256 O2    s    0.222490 *  0.687155 *  0.513669 *  -2.87073    1.000000    
    257 O2    s    0.310837 *  0.534859 *  0.845634 *  -2.87073    1.000000    
    258 O3    s    0.454763 *  0.755686 *  0.177386 *  -3.33043    1.000000    
    259 O2    s    0.315603 *  0.773487 *  0.317936 *  -2.87073    1.000000    
    260 O2    s    0.465777 *  0.688193 *  0.985574 *  -2.87073    1.000000    
    261 O2    s    0.221926 *  0.532997 *  0.652791 *  -2.87073    1.000000    
    262 O2    s    0.689335 *  0.222503 *  0.819341 *  -2.87073    1.000000    
    263 O2    s    0.534545 *  0.311171 *  0.486232 *  -2.87073    1.000000    
    264 O3    s    0.755365 *  0.459177 *  0.153583 *  -3.33043    1.000000    
    265 O3    s    0.789402 *  0.542953 *  0.025480 *  -3.33043    1.000000    
    266 O2    s    0.470166 *  0.254306 *  0.364180 *  -2.87073    1.000000    
    267 O2    s    0.742437 *  0.208506 *  0.696567 *  -2.87073    1.000000    
    268 O2    s    0.210252 *  0.466347 *  0.530415 *  -2.87073    1.000000    
    269 O2    s    0.531776 *  0.743449 *  0.863505 *  -2.87073    1.000000    
    270 O2    s    0.260443 *  0.782625 *  0.198022 *  -2.87073    1.000000    
    271 O2    s    0.535563 *  0.788432 *  0.302084 *  -2.87073    1.000000    
    272 O2    s    0.255168 *  0.466921 *  0.968066 *  -2.87073    1.000000    
    273 O2    s    0.208809 *  0.740877 *  0.636314 *  -2.87073    1.000000    
    274 O2    s    0.467953 *  0.209207 *  0.802477 *  -2.87073    1.000000    
    275 O2    s    0.742685 *  0.531689 *  0.469430 *  -2.87073    1.000000    
    276 O2    s    0.782594 *  0.261045 *  0.135290 *  -2.87073    1.000000    
    277 O2    s    0.239564 *  0.333862 *  0.896767 *  -2.87073    1.000000    
    278 O3    s    0.689301 *  0.908172 *  0.237075 *  -3.33043    1.000000    
    279 O2    s    0.091059 *  0.757259 *  0.565781 *  -2.87073    1.000000    
    280 O2    s    0.761447 *  0.664911 *  0.398709 *  -2.87073    1.000000    
    281 O2    s    0.332694 *  0.090046 *  0.731916 *  -2.87073    1.000000    
    282 O2    s    0.900169 *  0.239405 *  0.065140 *  -2.87073    1.000000    
    283 O2    s    0.333808 *  0.240523 *  0.434667 *  -2.87073    1.000000    
    284 O3    s    0.902006 *  0.679057 *  0.095826 *  -3.33043    1.000000    
    285 O2    s    0.758879 *  0.091403 *  0.767416 *  -2.87073    1.000000    
    286 O2    s    0.667097 *  0.758289 *  0.933594 *  -2.87073    1.000000    
    287 O2    s    0.090940 *  0.332489 *  0.600974 *  -2.87073    1.000000    
    288 O2    s    0.245017 *  0.900206 *  0.268148 *  -2.87073    1.000000    
    289 O2    s    0.582298 *  0.559079 *  0.986385 *  -2.87073    1.000000    
    290 O2    s    0.445650 *  0.015533 *  0.318907 *  -2.87073    1.000000    
    291 O2    s    0.975617 *  0.417567 *  0.654009 *  -2.87073    1.000000    
    292 O2    s    0.418089 *  0.441021 *  0.487414 *  -2.87073    1.000000    
    293 O2    s    0.558456 *  0.976391 *  0.820423 *  -2.87073    1.000000    
    294 O3    s    0.025688 *  0.580051 *  0.153204 *  -3.33043    1.000000    
    295 O2    s    0.562376 *  0.580829 *  0.345722 *  -2.87073    1.000000    
    296 O2    s    0.016842 *  0.440163 *  0.013636 *  -2.87073    1.000000    
    297 O2    s    0.416567 *  0.973715 *  0.678986 *  -2.87073    1.000000    
    298 O2    s    0.441045 *  0.417946 *  0.844299 *  -2.87073    1.000000    
    299 O2    s    0.975653 *  0.557521 *  0.512553 *  -2.87073    1.000000    
    300 O3    s    0.587097 *  0.037603 *  0.176198 *  -3.33043    1.000000    
    301 O2    s    0.578976 *  0.148765 *  0.250743 *  -2.87073    1.000000    
    302 O2    s    0.844902 *  0.421940 *  0.583267 *  -2.87073    1.000000    
    303 O2    s    0.578216 *  0.424973 *  0.914693 *  -2.87073    1.000000    
    304 O2    s    0.421980 *  0.844448 *  0.749883 *  -2.87073    1.000000    
    305 O2    s    0.146992 *  0.573106 *  0.082923 *  -2.87073    1.000000    
    306 O2    s    0.423543 *  0.574859 *  0.416541 *  -2.87073    1.000000    
    307 F     s    0.490510 *  0.901522 *  0.236892 *  -1.56000    1.000000    
    308 F     s    0.095502 *  0.547424 *  0.582630 *  -1.56000    1.000000    
    309 F     s    0.448327 *  0.549219 *  0.914919 *  -1.56000    1.000000    
    310 F     s    0.548559 *  0.095225 *  0.749167 *  -1.56000    1.000000    
    311 F     s    0.872096 *  0.461920 *  0.083685 *  -1.56000    1.000000    
    312 F     s    0.547897 *  0.449418 *  0.415718 *  -1.56000    1.000000    
--------------------------------------------------------------------------------



********************************************************************************
*  General input information                                                   *
********************************************************************************

  Species output for all configurations : 

--------------------------------------------------------------------------------
  Species    Type    Atomic    Atomic    Charge       Radii (Angs)     Library
                     Number     Mass       (e)     Cova   Ionic  VDW   Symbol
--------------------------------------------------------------------------------
    Si       Core       14      28.09   4.000000   1.200  0.000  2.100          
    O1       Core        8      16.00   1.733957   0.730  0.000  1.360          
    O1       Shell       8       0.00  -3.733957   0.730  0.000  1.360          
    O2       Core        8      16.00   0.870733   0.730  0.000  1.360          
    O2       Shell       8       0.00  -2.870733   0.730  0.000  1.360          
    O3       Core        8      16.00   1.330431   0.730  0.000  1.360          
    O3       Shell       8       0.00  -3.330431   0.730  0.000  1.360          
    F        Core        9      19.00   0.560000   0.710  0.000  1.300          
    F        Shell       9       0.00  -1.560000   0.710  0.000  1.300          
    Ge       Core       32      72.61   4.000000   1.170  0.000  1.750          
--------------------------------------------------------------------------------


  Lattice summation method               =    Ewald          (3-D)
                                         =    Parry          (2-D)
                                         =    Saunders et al (1-D)
  Accuracy factor for lattice sums       =   12.000


  Time limit = Infinity

  Maximum range for interatomic potentials =        16.000000 Angstroms

  Taper potentials to zero over   1.0000 Angstroms using polynomial

  General interatomic potentials :

--------------------------------------------------------------------------------
Atom  Types   Potential         A         B         C         D     Cutoffs(Ang)
  1     2                                                            Min    Max 
--------------------------------------------------------------------------------
Si   c O1   s Buckingham    0.132E+04 0.318      10.1      0.00     0.000 16.000
Si   c O2   s Buckingham    0.132E+04 0.318      10.1      0.00     0.000 16.000
Si   c O3   s Buckingham    0.132E+04 0.318      10.1      0.00     0.000 16.000
Ge   c O1   s Buckingham    0.150E+04 0.326      16.8      0.00     0.000 16.000
Ge   c O2   s Buckingham    0.150E+04 0.326      16.8      0.00     0.000 16.000
Ge   c O3   s Buckingham    0.150E+04 0.326      16.8      0.00     0.000 16.000
O1   s O1   s Buckingham    0.228E+05 0.149      10.9      0.00     0.000 16.000
O1   s O2   s Buckingham    0.228E+05 0.149      10.9      0.00     0.000 16.000
O1   s O3   s Buckingham    0.228E+05 0.149      10.9      0.00     0.000 16.000
O2   s O2   s Buckingham    0.228E+05 0.149      10.9      0.00     0.000 16.000
O2   s O3   s Buckingham    0.228E+05 0.149      10.9      0.00     0.000 16.000
O3   s O3   s Buckingham    0.228E+05 0.149      10.9      0.00     0.000 16.000
Si   c F    s Buckingham     977.     0.282      0.00      0.00     0.000 16.000
Ge   c F    s Buckingham     681.     0.320      0.00      0.00     0.000 16.000
F    s F    s Buckingham     540.     0.262      0.00      0.00     0.000 16.000
O1   s F    s Buckingham    0.168E+04 0.268      0.00      0.00     0.000 16.000
O2   s F    s Buckingham    0.168E+04 0.268      0.00      0.00     0.000 16.000
O3   s F    s Buckingham    0.168E+04 0.268      0.00      0.00     0.000 16.000
O2   c O2   s Spring (c-s)   76.0      0.00      0.00      0.00     0.000  0.800
O3   c O3   s Spring (c-s)   128.      0.00      0.00      0.00     0.000  0.800
O1   c O1   s Spring (c-s)   180.      0.00      0.00      0.00     0.000  0.800
F    c F    s Spring (c-s)   33.5      0.00      0.00      0.00     0.000  0.800
--------------------------------------------------------------------------------

  General Three-body potentials :

  Harmonic form:

--------------------------------------------------------------------------------
Atom    Atom    Atom           Force Constants            Theta     Cutoffs  
  1       2       3     (eVrad**-2/eVrad**-3/eVrad**-4)   (deg)  1-2  1-3  2-3
--------------------------------------------------------------------------------
Si    c O1    s O1    s  1.261        0.0000    0.0000   109.470 0.00 0.00 0.00
                                                                 1.90 1.90 3.50
Si    c O1    s O2    s  1.261        0.0000    0.0000   109.470 0.00 0.00 0.00
                                                                 1.90 1.90 3.50
Si    c O2    s O2    s  1.261        0.0000    0.0000   109.470 0.00 0.00 0.00
                                                                 1.90 1.90 3.50
--------------------------------------------------------------------------------

********************************************************************************
*  Output for configuration   1                                                *
********************************************************************************


  Components of energy : 

--------------------------------------------------------------------------------
  Interatomic potentials     =        2063.75513289 eV
  Three-body potentials      =           0.46706377 eV
  Monopole - monopole (real) =       -6611.10259140 eV
  Monopole - monopole (recip)=       -3173.10445536 eV
  Monopole - monopole (total)=       -9784.20704676 eV
  Neutralising energy        =          -6.46361576 eV
--------------------------------------------------------------------------------
  Total lattice energy       =       -7726.44846587 eV
--------------------------------------------------------------------------------
  Total lattice energy       =         -745484.1674 kJ/(mole unit cells)
--------------------------------------------------------------------------------


  Number of variables =      939

  Maximum number of calculations  =          5000
  Maximum Hessian update interval =            10
  Maximum step size               =   0.100000000
  Maximum parameter tolerance     =   0.000010000
  Maximum function  tolerance     =   0.000010000
  Maximum gradient  tolerance     =   0.001000000
  Maximum gradient  component     =   0.010000000

  Symmetry not applied to optimisation

  Cell parameters to be optimised using strains

  Newton-Raphson optimiser to be used

  BFGS hessian update to be used

  Dumpfile to be written after every cycle

  Start of bulk optimisation :

  Cycle:      0 Energy:     -7726.448466  Gnorm:      0.009787  CPU:    2.013
  ** Hessian calculated **
  Cycle:      1 Energy:     -7726.448640  Gnorm:      0.002479  CPU:    5.311
  Cycle:      2 Energy:     -7726.448683  Gnorm:      0.001491  CPU:    8.230
  Cycle:      3 Energy:     -7726.448722  Gnorm:      0.001187  CPU:   11.152
  Cycle:      4 Energy:     -7726.448880  Gnorm:      0.001966  CPU:   16.909
  Cycle:      5 Energy:     -7726.449079  Gnorm:      0.003282  CPU:   21.249
  Cycle:      6 Energy:     -7726.449404  Gnorm:      0.005214  CPU:   26.302
  Cycle:      7 Energy:     -7726.449809  Gnorm:      0.007134  CPU:   30.648
  Cycle:      8 Energy:     -7726.450468  Gnorm:      0.009829  CPU:   35.701
  Cycle:      9 Energy:     -7726.451266  Gnorm:      0.012567  CPU:   40.046
  Cycle:     10 Energy:     -7726.452303  Gnorm:      0.015647  CPU:   44.389
  ** Hessian calculated **
  Cycle:     11 Energy:     -7726.452836  Gnorm:      0.004131  CPU:   49.729
  Cycle:     12 Energy:     -7726.452944  Gnorm:      0.002579  CPU:   52.651
  Cycle:     13 Energy:     -7726.453125  Gnorm:      0.002659  CPU:   57.699
  Cycle:     14 Energy:     -7726.453336  Gnorm:      0.003846  CPU:   62.038
  Cycle:     15 Energy:     -7726.453602  Gnorm:      0.004700  CPU:   66.377
  Cycle:     16 Energy:     -7726.453939  Gnorm:      0.005279  CPU:   70.716
  Cycle:     17 Energy:     -7726.454322  Gnorm:      0.004658  CPU:   75.056
  Cycle:     18 Energy:     -7726.454682  Gnorm:      0.004146  CPU:   78.686
  Cycle:     19 Energy:     -7726.455195  Gnorm:      0.003785  CPU:   83.029
  Cycle:     20 Energy:     -7726.455923  Gnorm:      0.004541  CPU:   87.375
  ** Hessian calculated **
  Cycle:     21 Energy:     -7726.456846  Gnorm:      0.004517  CPU:   93.423
  Cycle:     22 Energy:     -7726.458404  Gnorm:      0.004476  CPU:   98.476
  Cycle:     23 Energy:     -7726.460806  Gnorm:      0.004412  CPU:  103.525
  Cycle:     24 Energy:     -7726.464390  Gnorm:      0.004314  CPU:  108.577
  Cycle:     25 Energy:     -7726.468780  Gnorm:      0.004192  CPU:  112.920
  Cycle:     26 Energy:     -7726.475978  Gnorm:      0.003984  CPU:  117.971
  Cycle:     27 Energy:     -7726.484776  Gnorm:      0.003716  CPU:  122.311
  Cycle:     28 Energy:     -7726.498573  Gnorm:      0.003265  CPU:  127.359
  Cycle:     29 Energy:     -7726.513819  Gnorm:      0.002735  CPU:  131.702
  Cycle:     30 Energy:     -7726.530185  Gnorm:      0.002221  CPU:  136.038
  ** Hessian calculated **
  Cycle:     31 Energy:     -7726.540217  Gnorm:      0.001472  CPU:  142.084
  Cycle:     32 Energy:     -7726.542724  Gnorm:      0.001060  CPU:  146.425
  Cycle:     33 Energy:     -7726.543357  Gnorm:      0.000613  CPU:  150.767
  Cycle:     34 Energy:     -7726.543517  Gnorm:      0.000326  CPU:  155.109
  Cycle:     35 Energy:     -7726.543545  Gnorm:      0.000230  CPU:  158.032
  Cycle:     36 Energy:     -7726.543558  Gnorm:      0.000162  CPU:  160.955
  Cycle:     37 Energy:     -7726.543565  Gnorm:      0.000113  CPU:  163.877
  Cycle:     38 Energy:     -7726.543568  Gnorm:      0.000080  CPU:  166.799
  Cycle:     39 Energy:     -7726.543570  Gnorm:      0.000056  CPU:  169.723
  Cycle:     40 Energy:     -7726.543571  Gnorm:      0.000039  CPU:  172.647
  ** Hessian calculated **


  **** Optimisation achieved ****


  Final energy =   -7726.54357060 eV
  Final Gnorm  =       0.00002086

  Components of energy : 

--------------------------------------------------------------------------------
  Interatomic potentials     =        2064.21112018 eV
  Three-body potentials      =           0.48747769 eV
  Monopole - monopole (real) =       -6610.34322462 eV
  Monopole - monopole (recip)=       -3174.43261929 eV
  Monopole - monopole (total)=       -9784.77584392 eV
  Neutralising energy        =          -6.46632455 eV
--------------------------------------------------------------------------------
  Total lattice energy       =       -7726.54357060 eV
--------------------------------------------------------------------------------
  Total lattice energy       =         -745493.3435 kJ/(mole unit cells)
--------------------------------------------------------------------------------

  Final fractional coordinates of atoms :

--------------------------------------------------------------------------------
   No.  Atomic        x           y          z          Radius
        Label       (Frac)      (Frac)     (Frac)       (Angs) 
--------------------------------------------------------------------------------
     1  Ge    c     0.699600    0.375700    0.033890    0.000000
     2  Si    c     0.619720    0.301318    0.364496    0.000000
     3  Si    c     0.668804    0.274966    0.697581    0.000000
     4  Si    c     0.294449    0.598398    0.533183    0.000000
     5  Si    c     0.371179    0.662719    0.866703    0.000000
     6  Si    c     0.313888    0.662589    0.198029    0.000000
     7  Si    c     0.378316    0.674093    0.300225    0.000000
     8  Si    c     0.319248    0.606311    0.967352    0.000000
     9  Si    c     0.290145    0.654017    0.634178    0.000000
    10  Si    c     0.615076    0.282101    0.798543    0.000000
    11  Si    c     0.675135    0.355808    0.465364    0.000000
    12  Si    c     0.672550    0.303247    0.134201    0.000000
    13  Si    c     0.525625    0.404171    0.964653    0.000000
    14  Si    c     0.582095    0.089866    0.298549    0.000000
    15  Si    c     0.879471    0.447304    0.632477    0.000000
    16  Si    c     0.468215    0.559308    0.468019    0.000000
    17  Si    c     0.409503    0.871401    0.801824    0.000000
    18  Si    c     0.095119    0.501209    0.136176    0.000000
    19  Si    c     0.417076    0.505982    0.366051    0.000000
    20  Si    c     0.107318    0.568499    0.033801    0.000000
    21  Si    c     0.461474    0.865057    0.699687    0.000000
    22  Si    c     0.576615    0.458172    0.862459    0.000000
    23  Si    c     0.884602    0.394768    0.530437    0.000000
    24  Si    c     0.517682    0.085731    0.195987    0.000000
    25  Si    c     0.295054    0.386331    0.849314    0.000000
    26  Ge    c     0.582699    0.875286    0.189845    0.000000
    27  Si    c     0.093474    0.674547    0.517427    0.000000
    28  Si    c     0.698684    0.579350    0.350223    0.000000
    29  Si    c     0.390505    0.073246    0.684395    0.000000
    30  Si    c     0.892857    0.283368    0.017130    0.000000
    31  Si    c     0.396484    0.279063    0.481471    0.000000
    32  Ge    c     0.883837    0.576418    0.143856    0.000000
    33  Si    c     0.690815    0.081289    0.814722    0.000000
    34  Si    c     0.599311    0.685638    0.980969    0.000000
    35  Si    c     0.088636    0.376078    0.647631    0.000000
    36  Si    c     0.297281    0.876139    0.314355    0.000000
    37  Si    c     0.246182    0.327024    0.949975    0.000000
    38  Si    c     0.665298    0.888374    0.285985    0.000000
    39  Si    c     0.080810    0.725563    0.618377    0.000000
    40  Si    c     0.747568    0.636477    0.451600    0.000000
    41  Si    c     0.333470    0.072810    0.785368    0.000000
    42  Si    c     0.884339    0.223203    0.119158    0.000000
    43  Si    c     0.338653    0.228260    0.380538    0.000000
    44  Si    c     0.909691    0.658942    0.045542    0.000000
    45  Si    c     0.740320    0.067106    0.713710    0.000000
    46  Si    c     0.653211    0.735704    0.879472    0.000000
    47  Si    c     0.085875    0.317923    0.546560    0.000000
    48  Si    c     0.237003    0.874941    0.212704    0.000000
    49  Si    c     0.967947    0.108992    0.965363    0.000000
    50  Si    c     0.878981    0.827930    0.301254    0.000000
    51  Si    c     0.143399    0.005607    0.633310    0.000000
    52  Si    c     0.027091    0.854615    0.467445    0.000000
    53  Si    c     0.115805    0.136762    0.799467    0.000000
    54  Si    c     0.833808    0.946130    0.135398    0.000000
    55  Si    c     0.121433    0.948627    0.366558    0.000000
    56  Si    c     0.847596    0.870951    0.032022    0.000000
    57  Si    c     0.020927    0.129553    0.698383    0.000000
    58  Si    c     0.870923    0.014417    0.864636    0.000000
    59  Si    c     0.148056    0.099519    0.532273    0.000000
    60  Si    c     0.958001    0.826976    0.198011    0.000000
    61  O2    c     0.923525    0.993181    0.999855    0.000000
    62  O2    c     0.000842    0.904447    0.333979    0.000000
    63  O2    c     0.062777    0.048610    0.665679    0.000000
    64  O2    c     0.067564    0.976177    0.500255    0.000000
    65  O2    c     0.993058    0.057461    0.831777    0.000000
    66  O2    c     0.929568    0.919707    0.166614    0.000000
    67  O2    c     0.340213    0.554674    0.333924    0.000000
    68  O2    c     0.411587    0.737939    0.667577    0.000000
    69  O2    c     0.234732    0.642209    0.002175    0.000000
    70  O2    c     0.653733    0.408602    0.829705    0.000000
    71  O2    c     0.551315    0.212731    0.166993    0.000000
    72  O2    c     0.760373    0.317762    0.497476    0.000000
    73  O3    c     0.571607    0.328956    0.995899    0.000000
    74  O2    c     0.751984    0.396492    0.664375    0.000000
    75  O2    c     0.656564    0.215503    0.331007    0.000000
    76  O2    c     0.419531    0.636491    0.500895    0.000000
    77  O2    c     0.216801    0.535574    0.168894    0.000000
    78  O2    c     0.332752    0.748542    0.834942    0.000000
    79  O2    c     0.122126    0.198713    0.969828    0.000000
    80  O2    c     0.785342    0.887124    0.311358    0.000000
    81  O2    c     0.078714    0.851556    0.638190    0.000000
    82  O2    c     0.872713    0.762757    0.472211    0.000000
    83  O2    c     0.207647    0.074857    0.805684    0.000000
    84  O2    c     0.880924    0.099480    0.140922    0.000000
    85  O2    c     0.212048    0.101975    0.360684    0.000000
    86  O2    c     0.919340    0.788213    0.024101    0.000000
    87  O2    c     0.866429    0.065089    0.693527    0.000000
    88  O2    c     0.779039    0.860945    0.858742    0.000000
    89  O2    c     0.086107    0.191302    0.526399    0.000000
    90  O2    c     0.111767    0.872900    0.192292    0.000000
    91  O2    c     0.932301    0.850459    0.250437    0.000000
    92  O2    c     0.133681    0.047599    0.582860    0.000000
    93  O2    c     0.924312    0.051625    0.915311    0.000000
    94  O2    c     0.063289    0.119625    0.748708    0.000000
    95  O2    c     0.858345    0.920466    0.083130    0.000000
    96  O2    c     0.069139    0.909450    0.417213    0.000000
    97  O2    c     0.901997    0.194835    0.977133    0.000000
    98  O2    c     0.797844    0.675056    0.311877    0.000000
    99  O2    c     0.294385    0.073193    0.645718    0.000000
   100  O2    c     0.096910    0.772895    0.479084    0.000000
   101  O2    c     0.196656    0.288897    0.810810    0.000000
   102  O3    c     0.687341    0.866321    0.147668    0.000000
   103  O2    c     0.204854    0.879373    0.354258    0.000000
   104  O2    c     0.695949    0.783852    0.019382    0.000000
   105  O2    c     0.089024    0.280146    0.685982    0.000000
   106  O2    c     0.789046    0.084609    0.853322    0.000000
   107  O2    c     0.300073    0.180815    0.519901    0.000000
   108  O3    c     0.878048    0.679937    0.186418    0.000000
   109  O2    c     0.322781    0.617460    0.249893    0.000000
   110  O2    c     0.349920    0.655159    0.583804    0.000000
   111  O2    c     0.314620    0.663432    0.917590    0.000000
   112  O2    c     0.670799    0.335381    0.747755    0.000000
   113  O3    c     0.617945    0.305818    0.084512    0.000000
   114  O2    c     0.677034    0.300156    0.414525    0.000000
   115  O2    c     0.368712    0.317758    0.967136    0.000000
   116  O2    c     0.669143    0.021229    0.301863    0.000000
   117  O2    c     0.947487    0.603173    0.636077    0.000000
   118  O2    c     0.624603    0.646446    0.470280    0.000000
   119  O2    c     0.322645    0.941301    0.804265    0.000000
   120  O2    c     0.017744    0.346098    0.135967    0.000000
   121  O2    c     0.329171    0.350249    0.362187    0.000000
   122  O2    c     0.041928    0.658545    0.031272    0.000000
   123  O2    c     0.617962    0.933589    0.696016    0.000000
   124  O2    c     0.662918    0.613999    0.859596    0.000000
   125  O2    c     0.954098    0.307725    0.527520    0.000000
   126  O2    c     0.360617    0.007037    0.196101    0.000000
   127  O3    c     0.763692    0.286272    0.009669    0.000000
   128  O2    c     0.695276    0.443626    0.342087    0.000000
   129  O2    c     0.525012    0.205443    0.675673    0.000000
   130  O2    c     0.227790    0.673752    0.510287    0.000000
   131  O2    c     0.295585    0.520711    0.842884    0.000000
   132  O3    c     0.449697    0.723607    0.173233    0.000000
   133  O2    c     0.303179    0.745788    0.320278    0.000000
   134  O2    c     0.463067    0.682859    0.989097    0.000000
   135  O2    c     0.221329    0.510671    0.655790    0.000000
   136  O2    c     0.690496    0.215475    0.821470    0.000000
   137  O2    c     0.531475    0.280042    0.487919    0.000000
   138  O3    c     0.736513    0.442498    0.158000    0.000000
   139  O3    c     0.783834    0.540236    0.023528    0.000000
   140  O2    c     0.463214    0.225030    0.360257    0.000000
   141  O2    c     0.742579    0.192306    0.693030    0.000000
   142  O2    c     0.213490    0.442700    0.527546    0.000000
   143  O2    c     0.527447    0.737857    0.861132    0.000000
   144  O2    c     0.245472    0.751482    0.195462    0.000000
   145  O2    c     0.533045    0.763548    0.303778    0.000000
   146  O2    c     0.242703    0.450386    0.971239    0.000000
   147  O2    c     0.206495    0.726838    0.638586    0.000000
   148  O2    c     0.459042    0.200003    0.804229    0.000000
   149  O2    c     0.748115    0.511325    0.470727    0.000000
   150  O2    c     0.763260    0.236685    0.135954    0.000000
   151  O2    c     0.224395    0.310934    0.895524    0.000000
   152  O3    c     0.691450    0.884065    0.233275    0.000000
   153  O2    c     0.085684    0.744489    0.563888    0.000000
   154  O2    c     0.767938    0.652599    0.397138    0.000000
   155  O2    c     0.315728    0.071880    0.730857    0.000000
   156  O2    c     0.889110    0.213386    0.064313    0.000000
   157  O2    c     0.320944    0.209545    0.434995    0.000000
   158  O3    c     0.899728    0.678504    0.099263    0.000000
   159  O2    c     0.760619    0.073274    0.768170    0.000000
   160  O2    c     0.671762    0.754322    0.933941    0.000000
   161  O2    c     0.085995    0.301315    0.601012    0.000000
   162  O2    c     0.227440    0.875133    0.267727    0.000000
   163  O2    c     0.582828    0.545634    0.988664    0.000000
   164  O2    c     0.439271    0.998411    0.319323    0.000000
   165  O2    c     0.962791    0.390489    0.655883    0.000000
   166  O2    c     0.411763    0.418757    0.490897    0.000000
   167  O2    c     0.551197    0.957400    0.824291    0.000000
   168  O3    c     0.016245    0.562432    0.158981    0.000000
   169  O2    c     0.558517    0.565265    0.342305    0.000000
   170  O2    c     0.014439    0.427262    0.012843    0.000000
   171  O2    c     0.403347    0.946870    0.676071    0.000000
   172  O2    c     0.435014    0.401029    0.839636    0.000000
   173  O2    c     0.968843    0.535536    0.507550    0.000000
   174  O3    c     0.581744    0.013914    0.169934    0.000000
   175  O2    c     0.575732    0.134581    0.247433    0.000000
   176  O2    c     0.828901    0.394837    0.581199    0.000000
   177  O2    c     0.578152    0.406840    0.912996    0.000000
   178  O2    c     0.409295    0.815401    0.750968    0.000000
   179  O2    c     0.148069    0.559529    0.085530    0.000000
   180  O2    c     0.414864    0.558425    0.417170    0.000000
   181  F     c     0.475737    0.876446    0.238440    0.000000
   182  F     c     0.090634    0.525460    0.581956    0.000000
   183  F     c     0.443152    0.535654    0.914725    0.000000
   184  F     c     0.540732    0.076862    0.749022    0.000000
   185  F     c     0.868654    0.452392    0.086016    0.000000
   186  F     c     0.545466    0.427535    0.415208    0.000000
   187  O2    s     0.920095    0.992848    0.999472    0.000000
   188  O2    s     0.001170    0.900974    0.334091    0.000000
   189  O2    s     0.067159    0.052834    0.665698    0.000000
   190  O2    s     0.072018    0.976315    0.500149    0.000000
   191  O2    s     0.993113    0.061542    0.831841    0.000000
   192  O2    s     0.922802    0.912683    0.166726    0.000000
   193  O2    s     0.352050    0.562236    0.333662    0.000000
   194  O2    s     0.404168    0.742303    0.667410    0.000000
   195  O2    s     0.229867    0.630784    0.001973    0.000000
   196  O2    s     0.641844    0.400595    0.829826    0.000000
   197  O2    s     0.560195    0.208846    0.166629    0.000000
   198  O2    s     0.764333    0.329597    0.497535    0.000000
   199  O3    s     0.576297    0.340421    0.995437    0.000000
   200  O2    s     0.756668    0.389288    0.664485    0.000000
   201  O2    s     0.644975    0.211174    0.331055    0.000000
   202  O2    s     0.411775    0.624605    0.500805    0.000000
   203  O2    s     0.214324    0.545155    0.168552    0.000000
   204  O2    s     0.344577    0.752512    0.834758    0.000000
   205  O2    s     0.118313    0.202293    0.967317    0.000000
   206  O2    s     0.782972    0.881081    0.307807    0.000000
   207  O2    s     0.085761    0.854821    0.635653    0.000000
   208  O2    s     0.876187    0.759459    0.469597    0.000000
   209  O2    s     0.210957    0.081232    0.802939    0.000000
   210  O2    s     0.876707    0.097998    0.138031    0.000000
   211  O2    s     0.215492    0.098691    0.363340    0.000000
   212  O2    s     0.910875    0.783942    0.027039    0.000000
   213  O2    s     0.869866    0.072166    0.696102    0.000000
   214  O2    s     0.775873    0.864403    0.861476    0.000000
   215  O2    s     0.092669    0.194630    0.529075    0.000000
   216  O2    s     0.110387    0.868645    0.195047    0.000000
   217  O2    s     0.928921    0.845404    0.250746    0.000000
   218  O2    s     0.136414    0.048760    0.582799    0.000000
   219  O2    s     0.923226    0.053935    0.915251    0.000000
   220  O2    s     0.064407    0.122703    0.748720    0.000000
   221  O2    s     0.854513    0.917533    0.082814    0.000000
   222  O2    s     0.070375    0.907721    0.417095    0.000000
   223  O2    s     0.908112    0.195057    0.980124    0.000000
   224  O2    s     0.796034    0.680959    0.314715    0.000000
   225  O2    s     0.288030    0.065926    0.648356    0.000000
   226  O2    s     0.089139    0.771583    0.481741    0.000000
   227  O2    s     0.198060    0.282682    0.813502    0.000000
   228  O3    s     0.696656    0.875796    0.149109    0.000000
   229  O2    s     0.205960    0.886257    0.351310    0.000000
   230  O2    s     0.701674    0.782741    0.016725    0.000000
   231  O2    s     0.081740    0.274039    0.683338    0.000000
   232  O2    s     0.787690    0.076877    0.850592    0.000000
   233  O2    s     0.293876    0.182272    0.517279    0.000000
   234  O3    s     0.887196    0.688824    0.184730    0.000000
   235  O2    s     0.327727    0.627751    0.250094    0.000000
   236  O2    s     0.338174    0.649244    0.583745    0.000000
   237  O2    s     0.320781    0.657594    0.917470    0.000000
   238  O2    s     0.664879    0.323682    0.747802    0.000000
   239  O3    s     0.629518    0.311051    0.085411    0.000000
   240  O2    s     0.670990    0.305942    0.414591    0.000000
   241  O2    s     0.371291    0.327578    0.964991    0.000000
   242  O2    s     0.659647    0.015015    0.299901    0.000000
   243  O2    s     0.954429    0.599971    0.633851    0.000000
   244  O2    s     0.621352    0.636395    0.468074    0.000000
   245  O2    s     0.332696    0.947878    0.802026    0.000000
   246  O2    s     0.011908    0.349697    0.134198    0.000000
   247  O2    s     0.339210    0.353491    0.364516    0.000000
   248  O2    s     0.035374    0.649168    0.033001    0.000000
   249  O2    s     0.614656    0.940483    0.698250    0.000000
   250  O2    s     0.653021    0.610702    0.861973    0.000000
   251  O2    s     0.960732    0.317756    0.529821    0.000000
   252  O2    s     0.363482    0.000898    0.197890    0.000000
   253  O3    s     0.772495    0.292927    0.012378    0.000000
   254  O2    s     0.687830    0.443121    0.345284    0.000000
   255  O2    s     0.525669    0.198678    0.678883    0.000000
   256  O2    s     0.220488    0.666104    0.513419    0.000000
   257  O2    s     0.303219    0.521089    0.846013    0.000000
   258  O3    s     0.444670    0.727745    0.177033    0.000000
   259  O2    s     0.310278    0.752388    0.317562    0.000000
   260  O2    s     0.462270    0.675247    0.985975    0.000000
   261  O2    s     0.214447    0.511268    0.652670    0.000000
   262  O2    s     0.682804    0.208216    0.818382    0.000000
   263  O2    s     0.532013    0.287723    0.484886    0.000000
   264  O3    s     0.741695    0.439255    0.154492    0.000000
   265  O3    s     0.789859    0.539039    0.026556    0.000000
   266  O2    s     0.466011    0.233343    0.362857    0.000000
   267  O2    s     0.734547    0.187335    0.695705    0.000000
   268  O2    s     0.208007    0.445370    0.530154    0.000000
   269  O2    s     0.524781    0.729718    0.863666    0.000000
   270  O2    s     0.251477    0.756182    0.197572    0.000000
   271  O2    s     0.529923    0.766813    0.301569    0.000000
   272  O2    s     0.251027    0.453364    0.968595    0.000000
   273  O2    s     0.201504    0.719006    0.635963    0.000000
   274  O2    s     0.461709    0.194679    0.801621    0.000000
   275  O2    s     0.740337    0.508658    0.468121    0.000000
   276  O2    s     0.767664    0.242036    0.133932    0.000000
   277  O2    s     0.234094    0.320552    0.896414    0.000000
   278  O3    s     0.681409    0.883952    0.235910    0.000000
   279  O2    s     0.085978    0.735128    0.564780    0.000000
   280  O2    s     0.758542    0.643227    0.398025    0.000000
   281  O2    s     0.325465    0.072116    0.731734    0.000000
   282  O2    s     0.889009    0.221697    0.065148    0.000000
   283  O2    s     0.330746    0.218835    0.434082    0.000000
   284  O3    s     0.899426    0.668683    0.097377    0.000000
   285  O2    s     0.751171    0.073455    0.767265    0.000000
   286  O2    s     0.662237    0.745195    0.933046    0.000000
   287  O2    s     0.086257    0.310931    0.600106    0.000000
   288  O2    s     0.235926    0.875219    0.267024    0.000000
   289  O2    s     0.578681    0.546610    0.985425    0.000000
   290  O2    s     0.438685    0.994462    0.316576    0.000000
   291  O2    s     0.967852    0.395052    0.652537    0.000000
   292  O2    s     0.416179    0.418357    0.487490    0.000000
   293  O2    s     0.551446    0.961961    0.820897    0.000000
   294  O3    s     0.013586    0.557172    0.155431    0.000000
   295  O2    s     0.558726    0.560435    0.345622    0.000000
   296  O2    s     0.011407    0.427194    0.015572    0.000000
   297  O2    s     0.408202    0.952108    0.679438    0.000000
   298  O2    s     0.434688    0.405560    0.843046    0.000000
   299  O2    s     0.973644    0.535822    0.510998    0.000000
   300  O3    s     0.575129    0.011093    0.174012    0.000000
   301  O2    s     0.570765    0.124996    0.247856    0.000000
   302  O2    s     0.839936    0.400279    0.581238    0.000000
   303  O2    s     0.572628    0.412030    0.912912    0.000000
   304  O2    s     0.414737    0.826309    0.750871    0.000000
   305  O2    s     0.138523    0.554632    0.085232    0.000000
   306  O2    s     0.420585    0.553045    0.417091    0.000000
   307  F     s     0.482414    0.876253    0.235466    0.000000
   308  F     s     0.091031    0.525673    0.581886    0.000000
   309  F     s     0.442553    0.535935    0.914675    0.000000
   310  F     s     0.540951    0.077260    0.748970    0.000000
   311  F     s     0.865726    0.454554    0.086662    0.000000
   312  F     s     0.545506    0.427171    0.415124    0.000000
--------------------------------------------------------------------------------

  Final Cartesian lattice vectors (Angstroms) :

       11.941669    0.009548    0.019473
       -5.982202   10.392156   -0.011869
        0.284028   -0.249254   29.367732


  Final cell parameters and derivatives :

--------------------------------------------------------------------------------
       a           11.941689 Angstrom     dE/de1(xx)     0.002078 eV/strain
       b           11.990988 Angstrom     dE/de2(yy)     0.001798 eV/strain
       c           29.370163 Angstrom     dE/de3(zz)     0.003072 eV/strain
       alpha       90.754576 Degrees      dE/de4(yz)     0.000005 eV/strain
       beta        89.352864 Degrees      dE/de5(xz)     0.000112 eV/strain
       gamma      119.880944 Degrees      dE/de6(xy)    -0.000037 eV/strain
--------------------------------------------------------------------------------

  Primitive cell volume =          3646.139998 Angs**3

  Density of cell =      1.754758 g/cm**3

  Non-primitive cell volume =          3646.139998 Angs**3


  Final internal derivatives :

--------------------------------------------------------------------------------
   No.  Atomic          a             b             c           Radius
        Label          (eV)          (eV)          (eV)        (eV/Angs)
--------------------------------------------------------------------------------
      1 Ge    c       0.000000      0.000000      0.000000      0.000000
      2 Si    c      -0.000258      0.000228      0.000374      0.000000
      3 Si    c       0.000013     -0.000067      0.000020      0.000000
      4 Si    c      -0.000118      0.000171      0.000438      0.000000
      5 Si    c      -0.000054      0.000183     -0.000089      0.000000
      6 Si    c       0.000871      0.001051      0.000837      0.000000
      7 Si    c       0.000026      0.000307     -0.000429      0.000000
      8 Si    c       0.000317      0.000116     -0.000858      0.000000
      9 Si    c       0.000086      0.000262      0.000059      0.000000
     10 Si    c       0.000056     -0.000233      0.000201      0.000000
     11 Si    c      -0.000119     -0.000181     -0.000209      0.000000
     12 Si    c       0.003508      0.001288     -0.000447      0.000000
     13 Si    c      -0.001089      0.000779     -0.002259      0.000000
     14 Si    c       0.000034      0.000109      0.000118      0.000000
     15 Si    c       0.000133     -0.000007     -0.000312      0.000000
     16 Si    c      -0.000003      0.000108     -0.000073      0.000000
     17 Si    c       0.000112      0.000258      0.000035      0.000000
     18 Si    c       0.000618      0.000426     -0.001603      0.000000
     19 Si    c      -0.000045      0.000182     -0.000130      0.000000
     20 Si    c       0.000409      0.000768      0.000482      0.000000
     21 Si    c      -0.000048      0.000165     -0.000197      0.000000
     22 Si    c       0.000077     -0.000136      0.000057      0.000000
     23 Si    c      -0.000145     -0.000003     -0.000061      0.000000
     24 Si    c       0.000156      0.000253      0.001046      0.000000
     25 Si    c      -0.000092     -0.000134     -0.000375      0.000000
     26 Ge    c       0.000114      0.001038      0.000841      0.000000
     27 Si    c      -0.000089      0.000159      0.000278      0.000000
     28 Si    c      -0.000027      0.000253      0.000329      0.000000
     29 Si    c       0.000065      0.000039     -0.000091      0.000000
     30 Si    c       0.000978     -0.000093     -0.000464      0.000000
     31 Si    c      -0.000060     -0.000004     -0.000072      0.000000
     32 Ge    c       0.000814     -0.000558      0.003000      0.000000
     33 Si    c      -0.000064     -0.000050     -0.000035      0.000000
     34 Si    c       0.000247     -0.000085      0.000156      0.000000
     35 Si    c      -0.000078      0.000080     -0.000411      0.000000
     36 Si    c       0.000050      0.000040      0.000324      0.000000
     37 Si    c      -0.000156     -0.000185     -0.000268      0.000000
     38 Si    c      -0.000105      0.000023     -0.000504      0.000000
     39 Si    c       0.000162      0.000180     -0.000014      0.000000
     40 Si    c      -0.000007      0.000089      0.000064      0.000000
     41 Si    c       0.000013     -0.000002      0.000136      0.000000
     42 Si    c       0.000583      0.000572      0.000365      0.000000
     43 Si    c      -0.000232     -0.000123     -0.000042      0.000000
     44 Si    c       0.001000     -0.000665     -0.004641      0.000000
     45 Si    c      -0.000034      0.000077     -0.000198      0.000000
     46 Si    c       0.000024      0.000005      0.000050      0.000000
     47 Si    c      -0.000102      0.000090      0.000032      0.000000
     48 Si    c       0.000138      0.000200      0.000216      0.000000
     49 Si    c      -0.000053     -0.000114     -0.000332      0.000000
     50 Si    c      -0.000110     -0.000023      0.000099      0.000000
     51 Si    c       0.000159      0.000130      0.000406      0.000000
     52 Si    c      -0.000013     -0.000011      0.000474      0.000000
     53 Si    c      -0.000046      0.000028      0.000457      0.000000
     54 Si    c       0.000342     -0.000149      0.000778      0.000000
     55 Si    c      -0.000272     -0.000191     -0.000149      0.000000
     56 Si    c      -0.000710      0.001103      0.000990      0.000000
     57 Si    c      -0.000209      0.000114     -0.000599      0.000000
     58 Si    c       0.000044      0.000126      0.000217      0.000000
     59 Si    c      -0.000008     -0.000006     -0.000384      0.000000
     60 Si    c      -0.000139      0.000252     -0.000839      0.000000
     61 O2    c       0.000121      0.000124     -0.000878      0.000000
     62 O2    c      -0.000114      0.000075     -0.000008      0.000000
     63 O2    c       0.000111     -0.000097     -0.000320      0.000000
     64 O2    c       0.000030     -0.000002     -0.000362      0.000000
     65 O2    c       0.000036     -0.000017     -0.000495      0.000000
     66 O2    c      -0.000102      0.000170     -0.000514      0.000000
     67 O2    c      -0.000174      0.000152     -0.000019      0.000000
     68 O2    c      -0.000048      0.000101     -0.000135      0.000000
     69 O2    c       0.000020      0.000158     -0.000463      0.000000
     70 O2    c       0.000012      0.000094      0.000043      0.000000
     71 O2    c      -0.000982      0.000381      0.001341      0.000000
     72 O2    c      -0.000106      0.000185     -0.000011      0.000000
     73 O3    c      -0.001440     -0.000658     -0.002643      0.000000
     74 O2    c       0.000062      0.000114     -0.000002      0.000000
     75 O2    c      -0.000010      0.000107      0.000137      0.000000
     76 O2    c      -0.000115      0.000074     -0.000157      0.000000
     77 O2    c       0.000386     -0.000304      0.000035      0.000000
     78 O2    c       0.000114     -0.000137      0.000005      0.000000
     79 O2    c      -0.000010     -0.000070      0.000015      0.000000
     80 O2    c      -0.000024     -0.000081      0.000090      0.000000
     81 O2    c       0.000018     -0.000032     -0.000053      0.000000
     82 O2    c      -0.000006     -0.000029     -0.000268      0.000000
     83 O2    c      -0.000046     -0.000033      0.000074      0.000000
     84 O2    c       0.000181      0.000537      0.000387      0.000000
     85 O2    c      -0.000161      0.000156      0.000006      0.000000
     86 O2    c       0.000242      0.000288     -0.001397      0.000000
     87 O2    c       0.000075      0.000090      0.000189      0.000000
     88 O2    c      -0.000020      0.000003     -0.000022      0.000000
     89 O2    c      -0.000083      0.000219      0.000086      0.000000
     90 O2    c       0.000382      0.000057     -0.000756      0.000000
     91 O2    c      -0.000218      0.000084      0.001761      0.000000
     92 O2    c      -0.000034     -0.000016      0.000208      0.000000
     93 O2    c      -0.000104      0.000068     -0.000249      0.000000
     94 O2    c      -0.000116      0.000111     -0.000055      0.000000
     95 O2    c       0.000295     -0.000187     -0.002220      0.000000
     96 O2    c      -0.000100      0.000023     -0.000132      0.000000
     97 O2    c       0.000200     -0.000166     -0.000697      0.000000
     98 O2    c      -0.000129      0.000116      0.000004      0.000000
     99 O2    c      -0.000135      0.000007      0.000008      0.000000
    100 O2    c      -0.000087      0.000060     -0.000185      0.000000
    101 O2    c      -0.000017     -0.000007      0.000063      0.000000
    102 O3    c      -0.001303     -0.000103      0.000261      0.000000
    103 O2    c      -0.000056      0.000116     -0.000209      0.000000
    104 O2    c      -0.000233     -0.000167     -0.000470      0.000000
    105 O2    c      -0.000055      0.000204     -0.000085      0.000000
    106 O2    c       0.000040     -0.000039     -0.000089      0.000000
    107 O2    c       0.000021      0.000066     -0.000126      0.000000
    108 O3    c       0.000049     -0.000652     -0.002407      0.000000
    109 O2    c      -0.000371     -0.000049      0.000153      0.000000
    110 O2    c      -0.000186      0.000109     -0.000053      0.000000
    111 O2    c      -0.000155      0.000167     -0.000091      0.000000
    112 O2    c       0.000047      0.000008     -0.000049      0.000000
    113 O3    c      -0.003772     -0.000409     -0.005698      0.000000
    114 O2    c       0.000053     -0.000079      0.000288      0.000000
    115 O2    c      -0.000056     -0.000129      0.000042      0.000000
    116 O2    c      -0.000144      0.000164      0.000333      0.000000
    117 O2    c       0.000073     -0.000044      0.000009      0.000000
    118 O2    c      -0.000173     -0.000100     -0.000146      0.000000
    119 O2    c       0.000029     -0.000043     -0.000152      0.000000
    120 O2    c       0.000233     -0.000416     -0.000573      0.000000
    121 O2    c      -0.000012      0.000149      0.000214      0.000000
    122 O2    c       0.000227     -0.000321      0.001537      0.000000
    123 O2    c      -0.000093      0.000061     -0.000121      0.000000
    124 O2    c      -0.000073     -0.000018      0.000063      0.000000
    125 O2    c       0.000024      0.000091      0.000068      0.000000
    126 O2    c      -0.000261     -0.000099      0.000054      0.000000
    127 O3    c      -0.000705     -0.000462     -0.001016      0.000000
    128 O2    c      -0.000041      0.000176     -0.000268      0.000000
    129 O2    c       0.000105      0.000022      0.000104      0.000000
    130 O2    c      -0.000106      0.000014      0.000087      0.000000
    131 O2    c      -0.000034      0.000108     -0.000268      0.000000
    132 O3    c      -0.000060     -0.000340     -0.002052      0.000000
    133 O2    c       0.000065     -0.000128     -0.000111      0.000000
    134 O2    c       0.000092      0.000036      0.000220      0.000000
    135 O2    c      -0.000040      0.000062      0.000111      0.000000
    136 O2    c       0.000024      0.000039     -0.000024      0.000000
    137 O2    c      -0.000039      0.000076      0.000217      0.000000
    138 O3    c      -0.001645      0.001223      0.001810      0.000000
    139 O3    c       0.000034     -0.000770     -0.000905      0.000000
    140 O2    c      -0.000051     -0.000039     -0.000073      0.000000
    141 O2    c       0.000014      0.000080      0.000056      0.000000
    142 O2    c      -0.000002      0.000141     -0.000309      0.000000
    143 O2    c       0.000160      0.000042     -0.000189      0.000000
    144 O2    c       0.000063     -0.000007     -0.000347      0.000000
    145 O2    c      -0.000114      0.000073      0.000680      0.000000
    146 O2    c      -0.000096     -0.000043      0.000198      0.000000
    147 O2    c      -0.000118     -0.000020     -0.000241      0.000000
    148 O2    c       0.000095     -0.000005     -0.000098      0.000000
    149 O2    c       0.000009      0.000126      0.000421      0.000000
    150 O2    c       0.000153     -0.000938      0.001848      0.000000
    151 O2    c       0.000072      0.000000      0.000066      0.000000
    152 O3    c       0.000380      0.000138     -0.000693      0.000000
    153 O2    c       0.000089     -0.000153      0.000190      0.000000
    154 O2    c      -0.000124      0.000107     -0.000038      0.000000
    155 O2    c       0.000081     -0.000068      0.000045      0.000000
    156 O2    c       0.000123     -0.000346      0.001092      0.000000
    157 O2    c      -0.000035      0.000116      0.000115      0.000000
    158 O3    c       0.002696      0.001756     -0.001985      0.000000
    159 O2    c       0.000037      0.000127     -0.000006      0.000000
    160 O2    c       0.000031     -0.000043      0.000163      0.000000
    161 O2    c      -0.000089      0.000053     -0.000008      0.000000
    162 O2    c       0.000063      0.000025     -0.000306      0.000000
    163 O2    c       0.000297     -0.000140      0.000450      0.000000
    164 O2    c       0.000054      0.000041     -0.000291      0.000000
    165 O2    c      -0.000019      0.000054      0.000097      0.000000
    166 O2    c       0.000000      0.000058     -0.000203      0.000000
    167 O2    c      -0.000064     -0.000020      0.000053      0.000000
    168 O3    c       0.000897      0.000578     -0.001283      0.000000
    169 O2    c      -0.000081     -0.000092      0.000318      0.000000
    170 O2    c      -0.000315      0.000958      0.000587      0.000000
    171 O2    c       0.000103     -0.000046      0.000047      0.000000
    172 O2    c       0.000151      0.000051      0.000304      0.000000
    173 O2    c       0.000087      0.000089      0.000043      0.000000
    174 O3    c       0.000227      0.000124     -0.000703      0.000000
    175 O2    c      -0.000092     -0.000214      0.000437      0.000000
    176 O2    c       0.000064      0.000011      0.000050      0.000000
    177 O2    c       0.000023     -0.000087      0.000219      0.000000
    178 O2    c      -0.000129     -0.000032      0.000016      0.000000
    179 O2    c      -0.000552      0.000367      0.000292      0.000000
    180 O2    c       0.000051     -0.000102      0.000067      0.000000
    181 F     c      -0.000417      0.000842     -0.000143      0.000000
    182 F     c      -0.000068      0.000132      0.000051      0.000000
    183 F     c       0.000159     -0.000202     -0.000093      0.000000
    184 F     c      -0.000037      0.000093     -0.000026      0.000000
    185 F     c       0.000940      0.001919      0.003477      0.000000
    186 F     c      -0.000232      0.000170      0.000041      0.000000
    187 O2    s      -0.000332      0.000596     -0.000105      0.000000
    188 O2    s       0.000048      0.000217      0.000186      0.000000
    189 O2    s       0.000084     -0.000189     -0.000289      0.000000
    190 O2    s      -0.000145     -0.000066     -0.000102      0.000000
    191 O2    s       0.000301      0.000098      0.000144      0.000000
    192 O2    s      -0.000179     -0.000050      0.000162      0.000000
    193 O2    s      -0.000135      0.000116      0.000151      0.000000
    194 O2    s      -0.000057     -0.000081     -0.000184      0.000000
    195 O2    s       0.000224     -0.000042     -0.000017      0.000000
    196 O2    s      -0.000096      0.000088     -0.000063      0.000000
    197 O2    s      -0.000069     -0.000710      0.002826      0.000000
    198 O2    s      -0.000101      0.000213      0.000122      0.000000
    199 O3    s       0.000397      0.000832      0.001098      0.000000
    200 O2    s      -0.000191      0.000191     -0.000192      0.000000
    201 O2    s      -0.000229      0.000067      0.000220      0.000000
    202 O2    s       0.000058      0.000122      0.000261      0.000000
    203 O2    s       0.000168      0.000017      0.000064      0.000000
    204 O2    s       0.000217     -0.000072      0.000331      0.000000
    205 O2    s       0.000109      0.000085      0.000014      0.000000
    206 O2    s       0.000249     -0.000090     -0.000090      0.000000
    207 O2    s      -0.000032     -0.000050      0.000063      0.000000
    208 O2    s      -0.000026      0.000134      0.000091      0.000000
    209 O2    s       0.000019      0.000028      0.000264      0.000000
    210 O2    s       0.000698     -0.000001      0.000759      0.000000
    211 O2    s      -0.000087      0.000299     -0.000032      0.000000
    212 O2    s       0.000054     -0.000125     -0.000778      0.000000
    213 O2    s       0.000029     -0.000006     -0.000111      0.000000
    214 O2    s       0.000026      0.000011      0.000196      0.000000
    215 O2    s      -0.000131      0.000138      0.000173      0.000000
    216 O2    s       0.000425      0.000516     -0.000224      0.000000
    217 O2    s      -0.000673      0.000114      0.001033      0.000000
    218 O2    s      -0.000145      0.000145      0.000183      0.000000
    219 O2    s      -0.000141      0.000012     -0.000161      0.000000
    220 O2    s      -0.000175      0.000038      0.000061      0.000000
    221 O2    s       0.000208     -0.000426     -0.000855      0.000000
    222 O2    s      -0.000291      0.000099      0.000428      0.000000
    223 O2    s       0.000663     -0.000365     -0.000268      0.000000
    224 O2    s      -0.000273      0.000118     -0.000268      0.000000
    225 O2    s      -0.000197      0.000237     -0.000108      0.000000
    226 O2    s      -0.000166      0.000178      0.000055      0.000000
    227 O2    s       0.000069     -0.000073      0.000482      0.000000
    228 O3    s       0.000043      0.000505      0.001705      0.000000
    229 O2    s      -0.000155      0.000153      0.000001      0.000000
    230 O2    s      -0.000231     -0.000157     -0.000053      0.000000
    231 O2    s      -0.000059     -0.000028      0.000020      0.000000
    232 O2    s       0.000087     -0.000111      0.000427      0.000000
    233 O2    s      -0.000062      0.000147     -0.000102      0.000000
    234 O3    s       0.000352     -0.000528      0.000805      0.000000
    235 O2    s      -0.000020      0.000028      0.000174      0.000000
    236 O2    s       0.000008      0.000125      0.000146      0.000000
    237 O2    s      -0.000063      0.000184     -0.000037      0.000000
    238 O2    s      -0.000093      0.000125     -0.000243      0.000000
    239 O3    s      -0.001138      0.001301      0.000094      0.000000
    240 O2    s      -0.000088     -0.000067      0.000526      0.000000
    241 O2    s      -0.000084      0.000276     -0.000758      0.000000
    242 O2    s       0.000055      0.000110      0.000676      0.000000
    243 O2    s      -0.000100      0.000082      0.000012      0.000000
    244 O2    s       0.000010      0.000095     -0.000013      0.000000
    245 O2    s       0.000038      0.000029      0.000133      0.000000
    246 O2    s       0.000268     -0.000309      0.000623      0.000000
    247 O2    s      -0.000088      0.000063      0.000204      0.000000
    248 O2    s       0.000028      0.000547      0.000086      0.000000
    249 O2    s       0.000070     -0.000082     -0.000383      0.000000
    250 O2    s      -0.000077      0.000044      0.000232      0.000000
    251 O2    s       0.000031      0.000009     -0.000121      0.000000
    252 O2    s      -0.000428      0.000182      0.001157      0.000000
    253 O3    s       0.000496      0.000874     -0.003500      0.000000
    254 O2    s      -0.000252      0.000104     -0.000459      0.000000
    255 O2    s      -0.000149      0.000084     -0.000123      0.000000
    256 O2    s      -0.000089      0.000152      0.000151      0.000000
    257 O2    s       0.000014      0.000056     -0.000202      0.000000
    258 O3    s      -0.000154     -0.000439     -0.000861      0.000000
    259 O2    s       0.000062     -0.000089      0.000410      0.000000
    260 O2    s       0.000040     -0.000229      0.000110      0.000000
    261 O2    s       0.000041     -0.000152      0.000222      0.000000
    262 O2    s       0.000058     -0.000042      0.000193      0.000000
    263 O2    s       0.000008      0.000092      0.000110      0.000000
    264 O3    s       0.001279      0.000895      0.004451      0.000000
    265 O3    s      -0.000053      0.000629      0.000297      0.000000
    266 O2    s      -0.000017      0.000096     -0.000207      0.000000
    267 O2    s      -0.000028     -0.000095     -0.000218      0.000000
    268 O2    s       0.000032     -0.000097     -0.000127      0.000000
    269 O2    s      -0.000012     -0.000085     -0.000020      0.000000
    270 O2    s       0.000282      0.000176      0.000689      0.000000
    271 O2    s       0.000047     -0.000021      0.000650      0.000000
    272 O2    s       0.000096     -0.000141      0.000073      0.000000
    273 O2    s      -0.000050      0.000124     -0.000269      0.000000
    274 O2    s      -0.000146      0.000143      0.000085      0.000000
    275 O2    s      -0.000110      0.000025      0.000429      0.000000
    276 O2    s       0.000364     -0.000316      0.004179      0.000000
    277 O2    s       0.000144     -0.000120      0.000397      0.000000
    278 O3    s       0.000282     -0.000108     -0.000060      0.000000
    279 O2    s       0.000039      0.000072     -0.000051      0.000000
    280 O2    s      -0.000288      0.000229     -0.000007      0.000000
    281 O2    s      -0.000057      0.000142     -0.000045      0.000000
    282 O2    s       0.001544     -0.000428      0.000547      0.000000
    283 O2    s      -0.000171      0.000176      0.000340      0.000000
    284 O3    s      -0.001823     -0.002566      0.003089      0.000000
    285 O2    s       0.000113     -0.000128      0.000044      0.000000
    286 O2    s       0.000074     -0.000210      0.000149      0.000000
    287 O2    s       0.000087     -0.000045      0.000353      0.000000
    288 O2    s      -0.000192      0.000451     -0.000025      0.000000
    289 O2    s      -0.000424     -0.000199     -0.001989      0.000000
    290 O2    s      -0.000130      0.000331      0.000416      0.000000
    291 O2    s       0.000064     -0.000036      0.000025      0.000000
    292 O2    s      -0.000066     -0.000009     -0.000015      0.000000
    293 O2    s       0.000060     -0.000100      0.000169      0.000000
    294 O3    s      -0.001079      0.000706     -0.000772      0.000000
    295 O2    s       0.000063      0.000072      0.000336      0.000000
    296 O2    s       0.000449     -0.000551     -0.000569      0.000000
    297 O2    s       0.000050     -0.000056     -0.000330      0.000000
    298 O2    s       0.000053     -0.000079      0.000356      0.000000
    299 O2    s      -0.000127      0.000184     -0.000012      0.000000
    300 O3    s       0.000495     -0.000923      0.002832      0.000000
    301 O2    s      -0.000122      0.000216     -0.000118      0.000000
    302 O2    s      -0.000073      0.000103     -0.000092      0.000000
    303 O2    s      -0.000460      0.000327     -0.000081      0.000000
    304 O2    s       0.000064     -0.000061      0.000237      0.000000
    305 O2    s       0.000317      0.000084      0.000306      0.000000
    306 O2    s       0.000157     -0.000043      0.000130      0.000000
    307 F     s      -0.000493      0.000878      0.000493      0.000000
    308 F     s      -0.000039      0.000135      0.000008      0.000000
    309 F     s       0.000294     -0.000293      0.000208      0.000000
    310 F     s      -0.000030      0.000112      0.000003      0.000000
    311 F     s       0.001818      0.000790     -0.002939      0.000000
    312 F     s      -0.000247      0.000195      0.000018      0.000000
--------------------------------------------------------------------------------
  Maximum abs         0.003772      0.002566      0.005698      0.000000
--------------------------------------------------------------------------------


  Time to end of optimisation =     177.2758 seconds


  Peak dynamic memory used =      19.13 MB 


  Timing analysis for GULP :

--------------------------------------------------------------------------------
  Task / Subroutine                                          Time (Seconds)
--------------------------------------------------------------------------------
  Calculation of reciprocal space energy and derivatives          4.1936
  Calculation of real space energy and derivatives              155.7157
  Calculation of three-body energy and derivatives               15.2598
  Calculation of matrix inversion                                 1.8614
  Global summation overhead                                       0.0004
--------------------------------------------------------------------------------
  Total CPU time                                                177.2758
--------------------------------------------------------------------------------


  Dump file written as out.res                                                 
  CIF file written as out.cif                                                 


  Job Finished at 01:11.01  5th November   2016                               

