********************************************************************************
*                       GENERAL UTILITY LATTICE PROGRAM                        *
*                                 Julian Gale                                  *
*                      Nanochemistry Research Institute                        *
*                           Department of Chemistry                            *
*                    Curtin University, Western Australia                      *
********************************************************************************
* Version = 4.2.0 * Last modified =  20th January 2014                         *
********************************************************************************
*  optimise     - perform optimisation run                                     *
*  conp         - constant pressure calculation                                *
*  qok          - running with non charge neutral cell is OK                   *
********************************************************************************

  Job Started  at 16:00.05  5th November   2016                               

  Number of CPUs =     1


  Total number of configurations input =   1

********************************************************************************
*  Input for Configuration =   1                                               *
********************************************************************************

  Formula = Ge3Si57O120F6                                               

  Number of irreducible atoms/shells =     312


  Total number atoms/shells =     312

  Dimensionality = 3               :  Bulk   


  Charge on solid   =  -6.000000 =>neutralising background added


  Cartesian lattice vectors (Angstroms) :

       11.959417    0.000000    0.000000
       -6.054674   10.382905    0.000000
        0.040112    0.088708   29.372088

  Cell parameters (Angstroms/Degrees):

  a =      11.9594    alpha =  89.8899
  b =      12.0193    beta  =  89.9218
  c =      29.3722    gamma = 120.2481

  Initial cell volume =        3647.234597 Angs**3

  Temperature of configuration =  0.000     K 

  Pressure of configuration =         0.000 GPa 

  Fractional coordinates of asymmetric unit :

--------------------------------------------------------------------------------
   No.  Atomic       x           y          z         Charge      Occupancy
        Label      (Frac)      (Frac)     (Frac)        (e)         (Frac)  
--------------------------------------------------------------------------------
      1 Ge    c    0.699600    0.375700    0.033890     4.00000    1.000000    
      2 Si    c    0.629546 *  0.319576 *  0.364210 *   4.00000    1.000000    
      3 Si    c    0.679509 *  0.303594 *  0.697039 *   4.00000    1.000000    
      4 Si    c    0.307407 *  0.625396 *  0.525493 *   4.00000    1.000000    
      5 Si    c    0.375922 *  0.675898 *  0.860795 *   4.00000    1.000000    
      6 Si    c    0.306377 *  0.694317 *  0.196592 *   4.00000    1.000000    
      7 Si    c    0.364446 *  0.678857 *  0.298455 *   4.00000    1.000000    
      8 Si    c    0.316456 *  0.620760 *  0.961236 *   4.00000    1.000000    
      9 Si    c    0.304131 *  0.686415 *  0.627682 *   4.00000    1.000000    
     10 Si    c    0.621934 *  0.299518 *  0.797997 *   4.00000    1.000000    
     11 Si    c    0.673849 *  0.369511 *  0.464940 *   4.00000    1.000000    
     12 Si    c    0.677760 *  0.313065 *  0.132629 *   4.00000    1.000000    
     13 Si    c    0.527760 *  0.417354 *  0.966153 *   4.00000    1.000000    
     14 Si    c    0.581381 *  0.104522 *  0.304359 *   4.00000    1.000000    
     15 Si    c    0.888004 *  0.477656 *  0.630706 *   4.00000    1.000000    
     16 Si    c    0.473758 *  0.573616 *  0.461656 *   4.00000    1.000000    
     17 Si    c    0.416348 *  0.887947 *  0.796056 *   4.00000    1.000000    
     18 Si    c    0.099223 *  0.528932 *  0.128050 *   4.00000    1.000000    
     19 Si    c    0.421139 *  0.514109 *  0.360517 *   4.00000    1.000000    
     20 Si    c    0.099632 *  0.581008 *  0.024557 *   4.00000    1.000000    
     21 Si    c    0.472169 *  0.894364 *  0.694049 *   4.00000    1.000000    
     22 Si    c    0.581293 *  0.469902 *  0.863250 *   4.00000    1.000000    
     23 Si    c    0.882775 *  0.413104 *  0.528015 *   4.00000    1.000000    
     24 Si    c    0.517487 *  0.107987 *  0.202080 *   4.00000    1.000000    
     25 Si    c    0.300449 *  0.399131 *  0.847416 *   4.00000    1.000000    
     26 Si    c    0.590381 *  0.898679 *  0.182808 *   4.00000    1.000000    
     27 Ge    c    0.096992 *  0.686884 *  0.519129 *   4.00000    1.000000    
     28 Si    c    0.705017 *  0.594485 *  0.348153 *   4.00000    1.000000    
     29 Si    c    0.400962 *  0.102931 *  0.680761 *   4.00000    1.000000    
     30 Si    c    0.886825 *  0.292904 *  0.009686 *   4.00000    1.000000    
     31 Si    c    0.394870 *  0.291811 *  0.476804 *   4.00000    1.000000    
     32 Si    c    0.883956 *  0.598796 *  0.141857 *   4.00000    1.000000    
     33 Si    c    0.697813 *  0.097568 *  0.811546 *   4.00000    1.000000    
     34 Si    c    0.594139 *  0.698056 *  0.977212 *   4.00000    1.000000    
     35 Si    c    0.100833 *  0.405339 *  0.644777 *   4.00000    1.000000    
     36 Ge    c    0.305430 *  0.889167 *  0.308541 *   4.00000    1.000000    
     37 Si    c    0.248499 *  0.342200 *  0.948081 *   4.00000    1.000000    
     38 Si    c    0.652528 *  0.897716 *  0.284354 *   4.00000    1.000000    
     39 Si    c    0.090514 *  0.760604 *  0.615505 *   4.00000    1.000000    
     40 Si    c    0.754503 *  0.652407 *  0.449197 *   4.00000    1.000000    
     41 Si    c    0.340307 *  0.090027 *  0.781766 *   4.00000    1.000000    
     42 Si    c    0.894138 *  0.246580 *  0.113023 *   4.00000    1.000000    
     43 Si    c    0.343397 *  0.235936 *  0.375729 *   4.00000    1.000000    
     44 Si    c    0.894888 *  0.660272 *  0.038862 *   4.00000    1.000000    
     45 Si    c    0.751005 *  0.095471 *  0.710627 *   4.00000    1.000000    
     46 Si    c    0.656563 *  0.748230 *  0.876425 *   4.00000    1.000000    
     47 Si    c    0.090794 *  0.339933 *  0.543135 *   4.00000    1.000000    
     48 Si    c    0.231868 *  0.905254 *  0.212806 *   4.00000    1.000000    
     49 Si    c    0.970150 *  0.121874 *  0.961771 *   4.00000    1.000000    
     50 Si    c    0.877701 *  0.842981 *  0.297247 *   4.00000    1.000000    
     51 Si    c    0.153266 *  0.035878 *  0.630919 *   4.00000    1.000000    
     52 Si    c    0.034540 *  0.873093 *  0.464326 *   4.00000    1.000000    
     53 Si    c    0.122150 *  0.151335 *  0.796404 *   4.00000    1.000000    
     54 Si    c    0.836899 *  0.970203 *  0.129630 *   4.00000    1.000000    
     55 Si    c    0.121493 *  0.955725 *  0.361668 *   4.00000    1.000000    
     56 Si    c    0.841754 *  0.881514 *  0.028076 *   4.00000    1.000000    
     57 Si    c    0.031467 *  0.158071 *  0.695499 *   4.00000    1.000000    
     58 Si    c    0.876896 *  0.026856 *  0.861212 *   4.00000    1.000000    
     59 Si    c    0.146330 *  0.116616 *  0.528447 *   4.00000    1.000000    
     60 Si    c    0.958185 *  0.846747 *  0.193850 *   4.00000    1.000000    
     61 O2    c    0.923766 *  0.005185 *  0.996849 *   0.87073    1.000000    
     62 O2    c    0.999627 *  0.925990 *  0.328956 *   0.87073    1.000000    
     63 O2    c    0.074454 *  0.082412 *  0.661925 *   0.87073    1.000000    
     64 O2    c    0.065405 *  0.996638 *  0.495838 *   0.87073    1.000000    
     65 O2    c    0.997815 *  0.068916 *  0.827939 *   0.87073    1.000000    
     66 O2    c    0.916249 *  0.929484 *  0.162704 *   0.87073    1.000000    
     67 O2    c    0.339547 *  0.552405 *  0.326046 *   0.87073    1.000000    
     68 O2    c    0.426214 *  0.770979 *  0.660779 *   0.87073    1.000000    
     69 O2    c    0.227466 *  0.656970 *  0.993124 *   0.87073    1.000000    
     70 O2    c    0.658817 *  0.420539 *  0.831328 *   0.87073    1.000000    
     71 O2    c    0.570541 *  0.236484 *  0.171620 *   0.87073    1.000000    
     72 O2    c    0.751122 *  0.325560 *  0.499177 *   0.87073    1.000000    
     73 O3    c    0.566050 *  0.337861 *  0.998631 *   1.33043    1.000000    
     74 O2    c    0.765076 *  0.427892 *  0.664604 *   0.87073    1.000000    
     75 O2    c    0.672033 *  0.234826 *  0.333066 *   0.87073    1.000000    
     76 O2    c    0.431248 *  0.653154 *  0.494992 *   0.87073    1.000000    
     77 O2    c    0.222859 *  0.576995 *  0.161263 *   0.87073    1.000000    
     78 O2    c    0.338448 *  0.760587 *  0.827627 *   0.87073    1.000000    
     79 O2    c    0.123681 *  0.213455 *  0.968303 *   0.87073    1.000000    
     80 O2    c    0.778502 *  0.897076 *  0.303325 *   0.87073    1.000000    
     81 O2    c    0.093813 *  0.883719 *  0.640407 *   0.87073    1.000000    
     82 O2    c    0.878806 *  0.775804 *  0.470537 *   0.87073    1.000000    
     83 O2    c    0.212735 *  0.088067 *  0.801822 *   0.87073    1.000000    
     84 O2    c    0.898414 *  0.124165 *  0.134228 *   0.87073    1.000000    
     85 O2    c    0.221895 *  0.109837 *  0.354341 *   0.87073    1.000000    
     86 O2    c    0.911505 *  0.797448 *  0.022863 *   0.87073    1.000000    
     87 O2    c    0.877233 *  0.095767 *  0.690116 *   0.87073    1.000000    
     88 O2    c    0.784466 *  0.873193 *  0.855911 *   0.87073    1.000000    
     89 O2    c    0.087787 *  0.212447 *  0.524223 *   0.87073    1.000000    
     90 O2    c    0.111761 *  0.906008 *  0.186619 *   0.87073    1.000000    
     91 O2    c    0.921741 *  0.858392 *  0.244974 *   0.87073    1.000000    
     92 O2    c    0.135065 *  0.067495 *  0.579760 *   0.87073    1.000000    
     93 O2    c    0.932883 *  0.064087 *  0.911654 *   0.87073    1.000000    
     94 O2    c    0.071477 *  0.141830 *  0.745588 *   0.87073    1.000000    
     95 O2    c    0.848454 *  0.929791 *  0.079244 *   0.87073    1.000000    
     96 O2    c    0.066491 *  0.927048 *  0.412895 *   0.87073    1.000000    
     97 O2    c    0.900521 *  0.203985 *  0.971563 *   0.87073    1.000000    
     98 O2    c    0.801655 *  0.691246 *  0.309063 *   0.87073    1.000000    
     99 O2    c    0.306312 *  0.108723 *  0.642373 *   0.87073    1.000000    
    100 O3    c    0.107358 *  0.800120 *  0.477230 *   1.33043    1.000000    
    101 O2    c    0.203623 *  0.302091 *  0.808777 *   0.87073    1.000000    
    102 O2    c    0.684717 *  0.901546 *  0.142788 *   0.87073    1.000000    
    103 O3    c    0.191853 *  0.879164 *  0.350126 *   1.33043    1.000000    
    104 O2    c    0.690335 *  0.797961 *  0.015570 *   0.87073    1.000000    
    105 O2    c    0.100826 *  0.310850 *  0.684093 *   0.87073    1.000000    
    106 O2    c    0.795235 *  0.097230 *  0.850061 *   0.87073    1.000000    
    107 O2    c    0.298111 *  0.197847 *  0.516086 *   0.87073    1.000000    
    108 O2    c    0.885153 *  0.695951 *  0.180204 *   0.87073    1.000000    
    109 O2    c    0.308923 *  0.635364 *  0.245954 *   0.87073    1.000000    
    110 O2    c    0.357401 *  0.683243 *  0.577138 *   0.87073    1.000000    
    111 O2    c    0.315509 *  0.676931 *  0.910688 *   0.87073    1.000000    
    112 O2    c    0.679633 *  0.359134 *  0.747687 *   0.87073    1.000000    
    113 O3    c    0.608816 *  0.301517 *  0.085236 *   1.33043    1.000000    
    114 O2    c    0.682146 *  0.316710 *  0.414857 *   0.87073    1.000000    
    115 O2    c    0.369748 *  0.332890 *  0.966447 *   0.87073    1.000000    
    116 O2    c    0.663448 *  0.029702 *  0.302232 *   0.87073    1.000000    
    117 O2    c    0.957958 *  0.633238 *  0.633065 *   0.87073    1.000000    
    118 O2    c    0.629591 *  0.661574 *  0.465111 *   0.87073    1.000000    
    119 O2    c    0.329385 *  0.956909 *  0.799321 *   0.87073    1.000000    
    120 O2    c    0.025260 *  0.373292 *  0.129896 *   0.87073    1.000000    
    121 O2    c    0.334471 *  0.358739 *  0.357470 *   0.87073    1.000000    
    122 O2    c    0.029140 *  0.665783 *  0.023361 *   0.87073    1.000000    
    123 O2    c    0.628988 *  0.964422 *  0.691222 *   0.87073    1.000000    
    124 O2    c    0.666684 *  0.625928 *  0.858789 *   0.87073    1.000000    
    125 O2    c    0.957522 *  0.331103 *  0.527040 *   0.87073    1.000000    
    126 O2    c    0.361741 *  0.037950 *  0.197219 *   0.87073    1.000000    
    127 O3    c    0.752150 *  0.283578 *  0.001428 *   1.33043    1.000000    
    128 O2    c    0.706010 *  0.461480 *  0.340744 *   0.87073    1.000000    
    129 O2    c    0.536910 *  0.236231 *  0.673990 *   0.87073    1.000000    
    130 O3    c    0.245772 *  0.699956 *  0.501612 *   1.33043    1.000000    
    131 O2    c    0.302207 *  0.533098 *  0.838073 *   0.87073    1.000000    
    132 O2    c    0.452356 *  0.768949 *  0.176037 *   0.87073    1.000000    
    133 O3    c    0.287395 *  0.736630 *  0.323103 *   1.33043    1.000000    
    134 O2    c    0.459400 *  0.698475 *  0.984227 *   0.87073    1.000000    
    135 O2    c    0.233314 *  0.541676 *  0.648892 *   0.87073    1.000000    
    136 O2    c    0.696903 *  0.230464 *  0.819705 *   0.87073    1.000000    
    137 O2    c    0.528611 *  0.293281 *  0.485849 *   0.87073    1.000000    
    138 O2    c    0.753651 *  0.462454 *  0.150459 *   0.87073    1.000000    
    139 O3    c    0.770191 *  0.545337 *  0.017687 *   1.33043    1.000000    
    140 O2    c    0.473698 *  0.242247 *  0.357252 *   0.87073    1.000000    
    141 O2    c    0.755867 *  0.224241 *  0.691857 *   0.87073    1.000000    
    142 O2    c    0.215265 *  0.468368 *  0.524539 *   0.87073    1.000000    
    143 O2    c    0.532809 *  0.751468 *  0.856186 *   0.87073    1.000000    
    144 O2    c    0.236870 *  0.779517 *  0.194301 *   0.87073    1.000000    
    145 O2    c    0.521642 *  0.773084 *  0.301041 *   0.87073    1.000000    
    146 O2    c    0.242363 *  0.465192 *  0.967402 *   0.87073    1.000000    
    147 O2    c    0.216911 *  0.753839 *  0.632093 *   0.87073    1.000000    
    148 O2    c    0.465373 *  0.215426 *  0.802124 *   0.87073    1.000000    
    149 O2    c    0.747638 *  0.524770 *  0.469982 *   0.87073    1.000000    
    150 O2    c    0.769137 *  0.247370 *  0.132811 *   0.87073    1.000000    
    151 O2    c    0.226637 *  0.325026 *  0.893633 *   0.87073    1.000000    
    152 O2    c    0.660413 *  0.897876 *  0.229315 *   0.87073    1.000000    
    153 O3    c    0.091081 *  0.787743 *  0.562849 *   1.33043    1.000000    
    154 O2    c    0.775772 *  0.668652 *  0.394514 *   0.87073    1.000000    
    155 O2    c    0.325052 *  0.095724 *  0.727345 *   0.87073    1.000000    
    156 O2    c    0.892378 *  0.230459 *  0.058645 *   0.87073    1.000000    
    157 O2    c    0.323467 *  0.218912 *  0.430357 *   0.87073    1.000000    
    158 O2    c    0.885400 *  0.665490 *  0.094323 *   0.87073    1.000000    
    159 O2    c    0.769564 *  0.094926 *  0.765083 *   0.87073    1.000000    
    160 O2    c    0.672085 *  0.768227 *  0.930934 *   0.87073    1.000000    
    161 O2    c    0.094360 *  0.333099 *  0.597993 *   0.87073    1.000000    
    162 O3    c    0.203214 *  0.899306 *  0.265305 *   1.33043    1.000000    
    163 O2    c    0.578422 *  0.559848 *  0.987618 *   0.87073    1.000000    
    164 O3    c    0.446634 *  0.024988 *  0.330108 *   1.33043    1.000000    
    165 O2    c    0.980180 *  0.427226 *  0.651157 *   0.87073    1.000000    
    166 O2    c    0.409511 *  0.431442 *  0.484390 *   0.87073    1.000000    
    167 O2    c    0.557471 *  0.971830 *  0.819572 *   0.87073    1.000000    
    168 O2    c    0.008707 *  0.581655 *  0.147590 *   0.87073    1.000000    
    169 O2    c    0.564893 *  0.578941 *  0.338200 *   0.87073    1.000000    
    170 O2    c    0.008688 *  0.438886 *  0.004028 *   0.87073    1.000000    
    171 O2    c    0.413816 *  0.977464 *  0.671219 *   0.87073    1.000000    
    172 O2    c    0.439633 *  0.410913 *  0.839983 *   0.87073    1.000000    
    173 O3    c    0.955531 *  0.546394 *  0.501035 *   1.33043    1.000000    
    174 O2    c    0.571824 *  0.021567 *  0.179331 *   0.87073    1.000000    
    175 O2    c    0.568579 *  0.152119 *  0.253171 *   0.87073    1.000000    
    176 O2    c    0.837939 *  0.422739 *  0.580031 *   0.87073    1.000000    
    177 O2    c    0.582149 *  0.421659 *  0.914618 *   0.87073    1.000000    
    178 O2    c    0.417510 *  0.837909 *  0.744672 *   0.87073    1.000000    
    179 O2    c    0.146023 *  0.577302 *  0.076485 *   0.87073    1.000000    
    180 O2    c    0.419341 *  0.571867 *  0.410582 *   0.87073    1.000000    
    181 F     c    0.411811 *  0.894685 *  0.259036 *   0.56000    1.000000    
    182 F     c    0.096836 *  0.579877 *  0.568464 *   0.56000    1.000000    
    183 F     c    0.444616 *  0.552107 *  0.911830 *   0.56000    1.000000    
    184 F     c    0.550378 *  0.099724 *  0.745502 *   0.56000    1.000000    
    185 F     c    0.848127 *  0.432840 *  0.069617 *   0.56000    1.000000    
    186 F     c    0.551251 *  0.443337 *  0.411579 *   0.56000    1.000000    
    187 O2    s    0.919609 *  0.004270 *  0.996447 *  -2.87073    1.000000    
    188 O2    s    0.997965 *  0.919475 *  0.328630 *  -2.87073    1.000000    
    189 O2    s    0.078354 *  0.085889 *  0.662307 *  -2.87073    1.000000    
    190 O2    s    0.071489 *  0.997781 *  0.496360 *  -2.87073    1.000000    
    191 O2    s    0.998215 *  0.073463 *  0.828129 *  -2.87073    1.000000    
    192 O2    s    0.911898 *  0.924969 *  0.162395 *  -2.87073    1.000000    
    193 O2    s    0.350511 *  0.562065 *  0.326576 *  -2.87073    1.000000    
    194 O2    s    0.418191 *  0.774760 *  0.660717 *  -2.87073    1.000000    
    195 O2    s    0.222859 *  0.645337 *  0.993258 *  -2.87073    1.000000    
    196 O2    s    0.647125 *  0.413052 *  0.831123 *  -2.87073    1.000000    
    197 O2    s    0.576187 *  0.230817 *  0.170753 *  -2.87073    1.000000    
    198 O2    s    0.756641 *  0.338890 *  0.498625 *  -2.87073    1.000000    
    199 O3    s    0.571629 *  0.349113 *  0.997718 *  -3.33043    1.000000    
    200 O2    s    0.769161 *  0.420363 *  0.664391 *  -2.87073    1.000000    
    201 O2    s    0.658571 *  0.229980 *  0.333241 *  -2.87073    1.000000    
    202 O2    s    0.422521 *  0.641923 *  0.494776 *  -2.87073    1.000000    
    203 O2    s    0.218357 *  0.583834 *  0.161359 *  -2.87073    1.000000    
    204 O2    s    0.350331 *  0.765151 *  0.827743 *  -2.87073    1.000000    
    205 O2    s    0.119790 *  0.216708 *  0.965552 *  -2.87073    1.000000    
    206 O2    s    0.775117 *  0.891526 *  0.300664 *  -2.87073    1.000000    
    207 O2    s    0.099716 *  0.887406 *  0.637001 *  -2.87073    1.000000    
    208 O2    s    0.880798 *  0.772131 *  0.467641 *  -2.87073    1.000000    
    209 O2    s    0.216286 *  0.094992 *  0.799201 *  -2.87073    1.000000    
    210 O2    s    0.891473 *  0.120656 *  0.131559 *  -2.87073    1.000000    
    211 O2    s    0.225039 *  0.108184 *  0.357337 *  -2.87073    1.000000    
    212 O2    s    0.902306 *  0.792494 *  0.025041 *  -2.87073    1.000000    
    213 O2    s    0.880730 *  0.102451 *  0.692792 *  -2.87073    1.000000    
    214 O2    s    0.781154 *  0.876725 *  0.858565 *  -2.87073    1.000000    
    215 O2    s    0.094113 *  0.216211 *  0.526653 *  -2.87073    1.000000    
    216 O2    s    0.107455 *  0.899652 *  0.189931 *  -2.87073    1.000000    
    217 O2    s    0.921059 *  0.855363 *  0.244854 *  -2.87073    1.000000    
    218 O2    s    0.138368 *  0.069379 *  0.579875 *  -2.87073    1.000000    
    219 O2    s    0.930784 *  0.066430 *  0.911653 *  -2.87073    1.000000    
    220 O2    s    0.072615 *  0.144782 *  0.745585 *  -2.87073    1.000000    
    221 O2    s    0.846367 *  0.929137 *  0.079412 *  -2.87073    1.000000    
    222 O2    s    0.069016 *  0.924388 *  0.412858 *  -2.87073    1.000000    
    223 O2    s    0.906668 *  0.204469 *  0.974541 *  -2.87073    1.000000    
    224 O2    s    0.799921 *  0.697536 *  0.311773 *  -2.87073    1.000000    
    225 O2    s    0.299972 *  0.100508 *  0.645100 *  -2.87073    1.000000    
    226 O3    s    0.098609 *  0.800622 *  0.478576 *  -3.33043    1.000000    
    227 O2    s    0.204810 *  0.295833 *  0.811408 *  -2.87073    1.000000    
    228 O2    s    0.690580 *  0.908376 *  0.145635 *  -2.87073    1.000000    
    229 O3    s    0.191883 *  0.888204 *  0.348561 *  -3.33043    1.000000    
    230 O2    s    0.696819 *  0.796810 *  0.013039 *  -2.87073    1.000000    
    231 O2    s    0.093701 *  0.305030 *  0.681157 *  -2.87073    1.000000    
    232 O2    s    0.793929 *  0.089823 *  0.847322 *  -2.87073    1.000000    
    233 O2    s    0.291875 *  0.198913 *  0.513322 *  -2.87073    1.000000    
    234 O2    s    0.892667 *  0.701613 *  0.177622 *  -2.87073    1.000000    
    235 O2    s    0.313829 *  0.645618 *  0.245662 *  -2.87073    1.000000    
    236 O2    s    0.347077 *  0.678062 *  0.577493 *  -2.87073    1.000000    
    237 O2    s    0.321679 *  0.671082 *  0.910815 *  -2.87073    1.000000    
    238 O2    s    0.673769 *  0.347421 *  0.747618 *  -2.87073    1.000000    
    239 O3    s    0.621872 *  0.307562 *  0.086727 *  -3.33043    1.000000    
    240 O2    s    0.675793 *  0.322537 *  0.414751 *  -2.87073    1.000000    
    241 O2    s    0.372139 *  0.342423 *  0.964367 *  -2.87073    1.000000    
    242 O2    s    0.654011 *  0.023117 *  0.300519 *  -2.87073    1.000000    
    243 O2    s    0.963928 *  0.629747 *  0.631048 *  -2.87073    1.000000    
    244 O2    s    0.626226 *  0.651291 *  0.463043 *  -2.87073    1.000000    
    245 O2    s    0.339456 *  0.963762 *  0.797141 *  -2.87073    1.000000    
    246 O2    s    0.019323 *  0.376381 *  0.127934 *  -2.87073    1.000000    
    247 O2    s    0.344546 *  0.362288 *  0.359717 *  -2.87073    1.000000    
    248 O2    s    0.023245 *  0.656294 *  0.025035 *  -2.87073    1.000000    
    249 O2    s    0.625629 *  0.970997 *  0.693570 *  -2.87073    1.000000    
    250 O2    s    0.656865 *  0.622753 *  0.861101 *  -2.87073    1.000000    
    251 O2    s    0.964185 *  0.340368 *  0.528868 *  -2.87073    1.000000    
    252 O2    s    0.364986 *  0.031885 *  0.199316 *  -2.87073    1.000000    
    253 O3    s    0.762994 *  0.290665 *  0.004525 *  -3.33043    1.000000    
    254 O2    s    0.698025 *  0.460865 *  0.343970 *  -2.87073    1.000000    
    255 O2    s    0.537377 *  0.229158 *  0.677130 *  -2.87073    1.000000    
    256 O3    s    0.241758 *  0.691192 *  0.505373 *  -3.33043    1.000000    
    257 O2    s    0.309586 *  0.533740 *  0.841407 *  -2.87073    1.000000    
    258 O2    s    0.451986 *  0.775043 *  0.178885 *  -2.87073    1.000000    
    259 O3    s    0.296721 *  0.741113 *  0.319455 *  -3.33043    1.000000    
    260 O2    s    0.458590 *  0.690474 *  0.981127 *  -2.87073    1.000000    
    261 O2    s    0.226345 *  0.541838 *  0.646267 *  -2.87073    1.000000    
    262 O2    s    0.689321 *  0.223605 *  0.816597 *  -2.87073    1.000000    
    263 O2    s    0.529431 *  0.301111 *  0.482647 *  -2.87073    1.000000    
    264 O2    s    0.760105 *  0.462309 *  0.147735 *  -2.87073    1.000000    
    265 O3    s    0.779756 *  0.547621 *  0.020962 *  -3.33043    1.000000    
    266 O2    s    0.476035 *  0.249778 *  0.359908 *  -2.87073    1.000000    
    267 O2    s    0.747375 *  0.218575 *  0.694385 *  -2.87073    1.000000    
    268 O2    s    0.210583 *  0.469846 *  0.526674 *  -2.87073    1.000000    
    269 O2    s    0.529872 *  0.743167 *  0.858823 *  -2.87073    1.000000    
    270 O2    s    0.243894 *  0.782993 *  0.196396 *  -2.87073    1.000000    
    271 O2    s    0.520478 *  0.777669 *  0.298930 *  -2.87073    1.000000    
    272 O2    s    0.250718 *  0.468326 *  0.964768 *  -2.87073    1.000000    
    273 O2    s    0.213132 *  0.747232 *  0.629925 *  -2.87073    1.000000    
    274 O2    s    0.468223 *  0.210540 *  0.799511 *  -2.87073    1.000000    
    275 O2    s    0.740386 *  0.522099 *  0.467229 *  -2.87073    1.000000    
    276 O2    s    0.773812 *  0.253874 *  0.130616 *  -2.87073    1.000000    
    277 O2    s    0.236686 *  0.334658 *  0.894491 *  -2.87073    1.000000    
    278 O2    s    0.652003 *  0.897943 *  0.229991 *  -2.87073    1.000000    
    279 O3    s    0.091389 *  0.778021 *  0.565494 *  -3.33043    1.000000    
    280 O2    s    0.766061 *  0.659093 *  0.395291 *  -2.87073    1.000000    
    281 O2    s    0.334632 *  0.095869 *  0.728251 *  -2.87073    1.000000    
    282 O2    s    0.892014 *  0.238357 *  0.059705 *  -2.87073    1.000000    
    283 O2    s    0.333117 *  0.228427 *  0.429549 *  -2.87073    1.000000    
    284 O2    s    0.886108 *  0.657584 *  0.094047 *  -2.87073    1.000000    
    285 O2    s    0.760097 *  0.095258 *  0.764166 *  -2.87073    1.000000    
    286 O2    s    0.662327 *  0.758808 *  0.929989 *  -2.87073    1.000000    
    287 O2    s    0.094691 *  0.341595 *  0.597258 *  -2.87073    1.000000    
    288 O3    s    0.212904 *  0.899317 *  0.262409 *  -3.33043    1.000000    
    289 O2    s    0.574743 *  0.560642 *  0.984282 *  -2.87073    1.000000    
    290 O3    s    0.450391 *  0.023184 *  0.325894 *  -3.33043    1.000000    
    291 O2    s    0.983949 *  0.430259 *  0.648296 *  -2.87073    1.000000    
    292 O2    s    0.414781 *  0.431321 *  0.481172 *  -2.87073    1.000000    
    293 O2    s    0.557890 *  0.976832 *  0.816247 *  -2.87073    1.000000    
    294 O2    s    0.005081 *  0.577679 *  0.144875 *  -2.87073    1.000000    
    295 O2    s    0.564838 *  0.573718 *  0.341588 *  -2.87073    1.000000    
    296 O2    s    0.005828 *  0.439270 *  0.006833 *  -2.87073    1.000000    
    297 O2    s    0.418700 *  0.982354 *  0.674615 *  -2.87073    1.000000    
    298 O2    s    0.439411 *  0.415967 *  0.843207 *  -2.87073    1.000000    
    299 O3    s    0.958760 *  0.543168 *  0.505083 *  -3.33043    1.000000    
    300 O2    s    0.568107 *  0.016911 *  0.182070 *  -2.87073    1.000000    
    301 O2    s    0.564105 *  0.142465 *  0.252615 *  -2.87073    1.000000    
    302 O2    s    0.847754 *  0.427713 *  0.580293 *  -2.87073    1.000000    
    303 O2    s    0.576682 *  0.426399 *  0.914300 *  -2.87073    1.000000    
    304 O2    s    0.423072 *  0.848938 *  0.744715 *  -2.87073    1.000000    
    305 O2    s    0.136365 *  0.572511 *  0.076725 *  -2.87073    1.000000    
    306 O2    s    0.425025 *  0.566183 *  0.410686 *  -2.87073    1.000000    
    307 F     s    0.404970 *  0.894247 *  0.261958 *  -1.56000    1.000000    
    308 F     s    0.096893 *  0.586112 *  0.565703 *  -1.56000    1.000000    
    309 F     s    0.443984 *  0.552722 *  0.911754 *  -1.56000    1.000000    
    310 F     s    0.550718 *  0.100125 *  0.745418 *  -1.56000    1.000000    
    311 F     s    0.837550 *  0.428711 *  0.067246 *  -1.56000    1.000000    
    312 F     s    0.551477 *  0.443186 *  0.411459 *  -1.56000    1.000000    
--------------------------------------------------------------------------------



********************************************************************************
*  General input information                                                   *
********************************************************************************

  Species output for all configurations : 

--------------------------------------------------------------------------------
  Species    Type    Atomic    Atomic    Charge       Radii (Angs)     Library
                     Number     Mass       (e)     Cova   Ionic  VDW   Symbol
--------------------------------------------------------------------------------
    Si       Core       14      28.09   4.000000   1.200  0.000  2.100          
    O1       Core        8      16.00   1.733957   0.730  0.000  1.360          
    O1       Shell       8       0.00  -3.733957   0.730  0.000  1.360          
    O2       Core        8      16.00   0.870733   0.730  0.000  1.360          
    O2       Shell       8       0.00  -2.870733   0.730  0.000  1.360          
    O3       Core        8      16.00   1.330431   0.730  0.000  1.360          
    O3       Shell       8       0.00  -3.330431   0.730  0.000  1.360          
    F        Core        9      19.00   0.560000   0.710  0.000  1.300          
    F        Shell       9       0.00  -1.560000   0.710  0.000  1.300          
    Ge       Core       32      72.61   4.000000   1.170  0.000  1.750          
--------------------------------------------------------------------------------


  Lattice summation method               =    Ewald          (3-D)
                                         =    Parry          (2-D)
                                         =    Saunders et al (1-D)
  Accuracy factor for lattice sums       =   12.000


  Time limit = Infinity

  Maximum range for interatomic potentials =        16.000000 Angstroms

  Taper potentials to zero over   1.0000 Angstroms using polynomial

  General interatomic potentials :

--------------------------------------------------------------------------------
Atom  Types   Potential         A         B         C         D     Cutoffs(Ang)
  1     2                                                            Min    Max 
--------------------------------------------------------------------------------
Si   c O1   s Buckingham    0.132E+04 0.318      10.1      0.00     0.000 16.000
Si   c O2   s Buckingham    0.132E+04 0.318      10.1      0.00     0.000 16.000
Si   c O3   s Buckingham    0.132E+04 0.318      10.1      0.00     0.000 16.000
Ge   c O1   s Buckingham    0.150E+04 0.326      16.8      0.00     0.000 16.000
Ge   c O2   s Buckingham    0.150E+04 0.326      16.8      0.00     0.000 16.000
Ge   c O3   s Buckingham    0.150E+04 0.326      16.8      0.00     0.000 16.000
O1   s O1   s Buckingham    0.228E+05 0.149      10.9      0.00     0.000 16.000
O1   s O2   s Buckingham    0.228E+05 0.149      10.9      0.00     0.000 16.000
O1   s O3   s Buckingham    0.228E+05 0.149      10.9      0.00     0.000 16.000
O2   s O2   s Buckingham    0.228E+05 0.149      10.9      0.00     0.000 16.000
O2   s O3   s Buckingham    0.228E+05 0.149      10.9      0.00     0.000 16.000
O3   s O3   s Buckingham    0.228E+05 0.149      10.9      0.00     0.000 16.000
Si   c F    s Buckingham     977.     0.282      0.00      0.00     0.000 16.000
Ge   c F    s Buckingham     681.     0.320      0.00      0.00     0.000 16.000
F    s F    s Buckingham     540.     0.262      0.00      0.00     0.000 16.000
O1   s F    s Buckingham    0.168E+04 0.268      0.00      0.00     0.000 16.000
O2   s F    s Buckingham    0.168E+04 0.268      0.00      0.00     0.000 16.000
O3   s F    s Buckingham    0.168E+04 0.268      0.00      0.00     0.000 16.000
O2   c O2   s Spring (c-s)   76.0      0.00      0.00      0.00     0.000  0.800
O3   c O3   s Spring (c-s)   128.      0.00      0.00      0.00     0.000  0.800
O1   c O1   s Spring (c-s)   180.      0.00      0.00      0.00     0.000  0.800
F    c F    s Spring (c-s)   33.5      0.00      0.00      0.00     0.000  0.800
--------------------------------------------------------------------------------

  General Three-body potentials :

  Harmonic form:

--------------------------------------------------------------------------------
Atom    Atom    Atom           Force Constants            Theta     Cutoffs  
  1       2       3     (eVrad**-2/eVrad**-3/eVrad**-4)   (deg)  1-2  1-3  2-3
--------------------------------------------------------------------------------
Si    c O1    s O1    s  1.261        0.0000    0.0000   109.470 0.00 0.00 0.00
                                                                 1.90 1.90 3.50
Si    c O1    s O2    s  1.261        0.0000    0.0000   109.470 0.00 0.00 0.00
                                                                 1.90 1.90 3.50
Si    c O2    s O2    s  1.261        0.0000    0.0000   109.470 0.00 0.00 0.00
                                                                 1.90 1.90 3.50
--------------------------------------------------------------------------------

********************************************************************************
*  Output for configuration   1                                                *
********************************************************************************


  Components of energy : 

--------------------------------------------------------------------------------
  Interatomic potentials     =        2066.87473759 eV
  Three-body potentials      =           0.49831428 eV
  Monopole - monopole (real) =       -6613.96701042 eV
  Monopole - monopole (recip)=       -3174.11005835 eV
  Monopole - monopole (total)=       -9788.07706877 eV
  Neutralising energy        =          -6.46567760 eV
--------------------------------------------------------------------------------
  Total lattice energy       =       -7727.16969450 eV
--------------------------------------------------------------------------------
  Total lattice energy       =         -745553.7549 kJ/(mole unit cells)
--------------------------------------------------------------------------------


  Number of variables =      939

  Maximum number of calculations  =          5000
  Maximum Hessian update interval =            10
  Maximum step size               =   0.100000000
  Maximum parameter tolerance     =   0.000010000
  Maximum function  tolerance     =   0.000010000
  Maximum gradient  tolerance     =   0.001000000
  Maximum gradient  component     =   0.010000000

  Symmetry not applied to optimisation

  Cell parameters to be optimised using strains

  Newton-Raphson optimiser to be used

  BFGS hessian update to be used

  Dumpfile to be written after every cycle

  Start of bulk optimisation :

  Cycle:      0 Energy:     -7727.169695  Gnorm:      0.010089  CPU:    2.047
  ** Hessian calculated **
  Cycle:      1 Energy:     -7727.169884  Gnorm:      0.002841  CPU:    5.236
  Cycle:      2 Energy:     -7727.169928  Gnorm:      0.001628  CPU:    8.062
  Cycle:      3 Energy:     -7727.169966  Gnorm:      0.001239  CPU:   10.887
  Cycle:      4 Energy:     -7727.170012  Gnorm:      0.001195  CPU:   13.705
  Cycle:      5 Energy:     -7727.170075  Gnorm:      0.001387  CPU:   16.520
  Cycle:      6 Energy:     -7727.170385  Gnorm:      0.003209  CPU:   22.044
  Cycle:      7 Energy:     -7727.170750  Gnorm:      0.005239  CPU:   26.210
  Cycle:      8 Energy:     -7727.171204  Gnorm:      0.007596  CPU:   30.380
  Cycle:      9 Energy:     -7727.171754  Gnorm:      0.010184  CPU:   34.550
  Cycle:     10 Energy:     -7727.172367  Gnorm:      0.012575  CPU:   38.718
  ** Hessian calculated **
  Cycle:     11 Energy:     -7727.172734  Gnorm:      0.003928  CPU:   43.915
  Cycle:     12 Energy:     -7727.172847  Gnorm:      0.002837  CPU:   47.407
  Cycle:     13 Energy:     -7727.172983  Gnorm:      0.002839  CPU:   51.574
  Cycle:     14 Energy:     -7727.173151  Gnorm:      0.002973  CPU:   55.742
  Cycle:     15 Energy:     -7727.173296  Gnorm:      0.002827  CPU:   59.234
  Cycle:     16 Energy:     -7727.173418  Gnorm:      0.002545  CPU:   62.728
  Cycle:     17 Energy:     -7727.173533  Gnorm:      0.001839  CPU:   66.218
  Cycle:     18 Energy:     -7727.173625  Gnorm:      0.001581  CPU:   69.036
  Cycle:     19 Energy:     -7727.173831  Gnorm:      0.002381  CPU:   73.880
  Cycle:     20 Energy:     -7727.174024  Gnorm:      0.002775  CPU:   77.374
  ** Hessian calculated **
  Cycle:     21 Energy:     -7727.174166  Gnorm:      0.002770  CPU:   81.891
  Cycle:     22 Energy:     -7727.174520  Gnorm:      0.002758  CPU:   86.735
  Cycle:     23 Energy:     -7727.175120  Gnorm:      0.002738  CPU:   91.582
  Cycle:     24 Energy:     -7727.176045  Gnorm:      0.002706  CPU:   96.426
  Cycle:     25 Energy:     -7727.177429  Gnorm:      0.002658  CPU:  101.269
  Cycle:     26 Energy:     -7727.179131  Gnorm:      0.002598  CPU:  105.437
  Cycle:     27 Energy:     -7727.181940  Gnorm:      0.002496  CPU:  110.283
  Cycle:     28 Energy:     -7727.186093  Gnorm:      0.002337  CPU:  115.128
  Cycle:     29 Energy:     -7727.190946  Gnorm:      0.002136  CPU:  119.298
  Cycle:     30 Energy:     -7727.198211  Gnorm:      0.001798  CPU:  124.142
  ** Hessian calculated **
  Cycle:     31 Energy:     -7727.205834  Gnorm:      0.001347  CPU:  130.021
  Cycle:     32 Energy:     -7727.212442  Gnorm:      0.000838  CPU:  134.187
  Cycle:     33 Energy:     -7727.214266  Gnorm:      0.000524  CPU:  138.355
  Cycle:     34 Energy:     -7727.214716  Gnorm:      0.000294  CPU:  142.523
  Cycle:     35 Energy:     -7727.214828  Gnorm:      0.000156  CPU:  146.691
  Cycle:     36 Energy:     -7727.214847  Gnorm:      0.000110  CPU:  149.510
  Cycle:     37 Energy:     -7727.214857  Gnorm:      0.000078  CPU:  152.326
  Cycle:     38 Energy:     -7727.214861  Gnorm:      0.000054  CPU:  155.141
  Cycle:     39 Energy:     -7727.214863  Gnorm:      0.000038  CPU:  157.958
  Cycle:     40 Energy:     -7727.214865  Gnorm:      0.000027  CPU:  160.774
  ** Hessian calculated **


  **** Optimisation achieved ****


  Final energy =   -7727.21486512 eV
  Final Gnorm  =       0.00001873

  Components of energy : 

--------------------------------------------------------------------------------
  Interatomic potentials     =        2066.92557040 eV
  Three-body potentials      =           0.51151080 eV
  Monopole - monopole (real) =       -6614.48064857 eV
  Monopole - monopole (recip)=       -3173.70643997 eV
  Monopole - monopole (total)=       -9788.18708854 eV
  Neutralising energy        =          -6.46485777 eV
--------------------------------------------------------------------------------
  Total lattice energy       =       -7727.21486512 eV
--------------------------------------------------------------------------------
  Total lattice energy       =         -745558.1132 kJ/(mole unit cells)
--------------------------------------------------------------------------------

  Final fractional coordinates of atoms :

--------------------------------------------------------------------------------
   No.  Atomic        x           y          z          Radius
        Label       (Frac)      (Frac)     (Frac)       (Angs) 
--------------------------------------------------------------------------------
     1  Ge    c     0.699600    0.375700    0.033890    0.000000
     2  Si    c     0.615127    0.306206    0.364665    0.000000
     3  Si    c     0.668100    0.292840    0.697085    0.000000
     4  Si    c     0.295356    0.614305    0.525897    0.000000
     5  Si    c     0.367405    0.666841    0.861412    0.000000
     6  Si    c     0.293522    0.682800    0.197692    0.000000
     7  Si    c     0.350138    0.666435    0.299774    0.000000
     8  Si    c     0.309187    0.611310    0.962171    0.000000
     9  Si    c     0.293333    0.676313    0.628263    0.000000
    10  Si    c     0.611611    0.289629    0.798243    0.000000
    11  Si    c     0.660199    0.355916    0.465488    0.000000
    12  Si    c     0.666101    0.303412    0.132565    0.000000
    13  Si    c     0.521459    0.409330    0.966357    0.000000
    14  Si    c     0.566340    0.091453    0.304739    0.000000
    15  Si    c     0.877517    0.467649    0.631054    0.000000
    16  Si    c     0.459960    0.559140    0.462541    0.000000
    17  Si    c     0.406462    0.878714    0.796648    0.000000
    18  Si    c     0.087172    0.517408    0.129498    0.000000
    19  Si    c     0.406401    0.500056    0.361275    0.000000
    20  Si    c     0.093201    0.573537    0.025826    0.000000
    21  Si    c     0.461891    0.884798    0.694359    0.000000
    22  Si    c     0.573718    0.462180    0.863131    0.000000
    23  Si    c     0.871465    0.402757    0.528137    0.000000
    24  Si    c     0.503919    0.095966    0.201966    0.000000
    25  Si    c     0.292946    0.391142    0.847606    0.000000
    26  Si    c     0.576985    0.886756    0.183524    0.000000
    27  Ge    c     0.085709    0.676323    0.519679    0.000000
    28  Si    c     0.690372    0.580713    0.348642    0.000000
    29  Si    c     0.389923    0.092709    0.680919    0.000000
    30  Si    c     0.881165    0.286563    0.010010    0.000000
    31  Si    c     0.381283    0.277689    0.477544    0.000000
    32  Si    c     0.872603    0.588143    0.143031    0.000000
    33  Si    c     0.687556    0.088001    0.812078    0.000000
    34  Si    c     0.587149    0.689110    0.977578    0.000000
    35  Si    c     0.090525    0.395576    0.645278    0.000000
    36  Ge    c     0.290718    0.876177    0.309358    0.000000
    37  Si    c     0.242048    0.333589    0.948550    0.000000
    38  Si    c     0.637694    0.884822    0.285411    0.000000
    39  Si    c     0.079492    0.750244    0.616155    0.000000
    40  Si    c     0.740810    0.638488    0.449841    0.000000
    41  Si    c     0.330308    0.080434    0.782238    0.000000
    42  Si    c     0.882896    0.236578    0.113698    0.000000
    43  Si    c     0.329117    0.222395    0.376307    0.000000
    44  Si    c     0.891989    0.657246    0.040040    0.000000
    45  Si    c     0.740378    0.085678    0.710945    0.000000
    46  Si    c     0.648373    0.739536    0.876490    0.000000
    47  Si    c     0.079107    0.329178    0.543533    0.000000
    48  Si    c     0.218520    0.893088    0.213318    0.000000
    49  Si    c     0.963038    0.114467    0.962241    0.000000
    50  Si    c     0.862904    0.830090    0.298069    0.000000
    51  Si    c     0.141057    0.024477    0.631677    0.000000
    52  Si    c     0.020138    0.860873    0.465200    0.000000
    53  Si    c     0.113488    0.143395    0.797082    0.000000
    54  Si    c     0.824463    0.959885    0.130536    0.000000
    55  Si    c     0.106868    0.943006    0.362402    0.000000
    56  Si    c     0.834133    0.874525    0.028867    0.000000
    57  Si    c     0.020987    0.148309    0.696178    0.000000
    58  Si    c     0.867591    0.018398    0.861848    0.000000
    59  Si    c     0.131873    0.103843    0.529077    0.000000
    60  Si    c     0.944928    0.835184    0.194690    0.000000
    61  O2    c     0.915673    0.998739    0.997869    0.000000
    62  O2    c     0.984658    0.912692    0.329799    0.000000
    63  O2    c     0.063387    0.071346    0.663084    0.000000
    64  O2    c     0.049179    0.983762    0.496733    0.000000
    65  O2    c     0.989687    0.062371    0.829006    0.000000
    66  O2    c     0.903668    0.918450    0.163437    0.000000
    67  O2    c     0.324895    0.539460    0.327140    0.000000
    68  O2    c     0.415692    0.761482    0.661152    0.000000
    69  O2    c     0.221721    0.648200    0.994624    0.000000
    70  O2    c     0.649828    0.411407    0.831169    0.000000
    71  O2    c     0.557312    0.224133    0.171097    0.000000
    72  O2    c     0.739496    0.314059    0.499686    0.000000
    73  O3    c     0.564160    0.333628    0.998673    0.000000
    74  O2    c     0.753930    0.417244    0.664697    0.000000
    75  O2    c     0.657110    0.221572    0.333312    0.000000
    76  O2    c     0.418922    0.640149    0.495619    0.000000
    77  O2    c     0.210320    0.564854    0.162794    0.000000
    78  O2    c     0.329235    0.751520    0.828415    0.000000
    79  O2    c     0.116750    0.204437    0.968425    0.000000
    80  O2    c     0.763404    0.883654    0.304375    0.000000
    81  O2    c     0.082490    0.872664    0.641311    0.000000
    82  O2    c     0.864763    0.761692    0.471214    0.000000
    83  O2    c     0.203179    0.079166    0.802394    0.000000
    84  O2    c     0.885210    0.113413    0.135166    0.000000
    85  O2    c     0.207598    0.096786    0.354904    0.000000
    86  O2    c     0.908240    0.794290    0.024515    0.000000
    87  O2    c     0.866985    0.086450    0.690611    0.000000
    88  O2    c     0.776083    0.865047    0.856119    0.000000
    89  O2    c     0.075687    0.201579    0.524743    0.000000
    90  O2    c     0.098251    0.893874    0.187255    0.000000
    91  O2    c     0.907784    0.847037    0.245764    0.000000
    92  O2    c     0.119897    0.054800    0.580563    0.000000
    93  O2    c     0.922818    0.054839    0.912471    0.000000
    94  O2    c     0.061181    0.133074    0.746430    0.000000
    95  O2    c     0.836906    0.921299    0.079970    0.000000
    96  O2    c     0.051777    0.915285    0.413710    0.000000
    97  O2    c     0.895403    0.198357    0.971887    0.000000
    98  O2    c     0.786875    0.678247    0.309558    0.000000
    99  O2    c     0.294404    0.097487    0.642564    0.000000
   100  O3    c     0.094907    0.789818    0.478011    0.000000
   101  O2    c     0.196094    0.294064    0.809051    0.000000
   102  O2    c     0.672255    0.890302    0.143671    0.000000
   103  O3    c     0.177050    0.866330    0.350945    0.000000
   104  O2    c     0.683739    0.788736    0.015790    0.000000
   105  O2    c     0.090685    0.300779    0.684529    0.000000
   106  O2    c     0.784975    0.087712    0.850671    0.000000
   107  O2    c     0.283671    0.182923    0.516628    0.000000
   108  O2    c     0.872129    0.684468    0.181313    0.000000
   109  O2    c     0.295601    0.623816    0.247164    0.000000
   110  O2    c     0.345524    0.672238    0.577551    0.000000
   111  O2    c     0.307211    0.667134    0.911520    0.000000
   112  O2    c     0.668372    0.348469    0.747697    0.000000
   113  O3    c     0.603274    0.297600    0.084620    0.000000
   114  O2    c     0.668242    0.303159    0.415328    0.000000
   115  O2    c     0.363361    0.324204    0.966910    0.000000
   116  O2    c     0.648392    0.016644    0.303014    0.000000
   117  O2    c     0.947100    0.622860    0.633690    0.000000
   118  O2    c     0.615627    0.646923    0.465763    0.000000
   119  O2    c     0.319224    0.947331    0.799894    0.000000
   120  O2    c     0.013391    0.362090    0.131346    0.000000
   121  O2    c     0.319886    0.345027    0.358054    0.000000
   122  O2    c     0.025507    0.661111    0.024769    0.000000
   123  O2    c     0.618668    0.954822    0.691526    0.000000
   124  O2    c     0.659199    0.618062    0.858540    0.000000
   125  O2    c     0.945910    0.320519    0.527531    0.000000
   126  O2    c     0.348116    0.025465    0.197324    0.000000
   127  O3    c     0.748412    0.280433    0.001521    0.000000
   128  O2    c     0.691549    0.448046    0.341100    0.000000
   129  O2    c     0.525669    0.225855    0.673932    0.000000
   130  O3    c     0.234485    0.689444    0.501844    0.000000
   131  O2    c     0.293792    0.524647    0.838508    0.000000
   132  O2    c     0.439203    0.757218    0.176834    0.000000
   133  O3    c     0.272854    0.723969    0.324366    0.000000
   134  O2    c     0.452365    0.689222    0.984807    0.000000
   135  O2    c     0.222847    0.531701    0.649594    0.000000
   136  O2    c     0.686556    0.220655    0.820089    0.000000
   137  O2    c     0.515074    0.279060    0.486625    0.000000
   138  O2    c     0.741944    0.452112    0.151120    0.000000
   139  O3    c     0.768377    0.543571    0.017690    0.000000
   140  O2    c     0.459383    0.228945    0.357691    0.000000
   141  O2    c     0.744787    0.213901    0.691868    0.000000
   142  O2    c     0.203015    0.457569    0.524728    0.000000
   143  O2    c     0.524198    0.742431    0.856480    0.000000
   144  O2    c     0.223646    0.767598    0.194910    0.000000
   145  O2    c     0.507189    0.760502    0.302489    0.000000
   146  O2    c     0.235526    0.455878    0.968237    0.000000
   147  O2    c     0.205812    0.743258    0.632725    0.000000
   148  O2    c     0.455181    0.205465    0.802645    0.000000
   149  O2    c     0.733865    0.510852    0.470604    0.000000
   150  O2    c     0.757632    0.237878    0.132746    0.000000
   151  O2    c     0.220146    0.316870    0.894041    0.000000
   152  O2    c     0.645800    0.885302    0.230296    0.000000
   153  O3    c     0.080021    0.777386    0.563422    0.000000
   154  O2    c     0.761235    0.654319    0.395036    0.000000
   155  O2    c     0.314692    0.085837    0.727722    0.000000
   156  O2    c     0.884762    0.223322    0.059183    0.000000
   157  O2    c     0.309782    0.205405    0.431050    0.000000
   158  O2    c     0.877321    0.657256    0.095475    0.000000
   159  O2    c     0.758948    0.085206    0.765495    0.000000
   160  O2    c     0.664258    0.758921    0.931061    0.000000
   161  O2    c     0.084018    0.323521    0.598476    0.000000
   162  O3    c     0.189225    0.886788    0.265881    0.000000
   163  O2    c     0.571245    0.551177    0.988042    0.000000
   164  O3    c     0.431702    0.012153    0.330624    0.000000
   165  O2    c     0.969978    0.417579    0.651607    0.000000
   166  O2    c     0.396140    0.417157    0.485456    0.000000
   167  O2    c     0.547297    0.962595    0.820217    0.000000
   168  O2    c     0.996478    0.569799    0.149118    0.000000
   169  O2    c     0.549988    0.564592    0.338823    0.000000
   170  O2    c     0.002412    0.432854    0.004595    0.000000
   171  O2    c     0.403578    0.967877    0.671456    0.000000
   172  O2    c     0.432390    0.404041    0.839770    0.000000
   173  O3    c     0.944905    0.535963    0.501151    0.000000
   174  O2    c     0.558220    0.009321    0.179574    0.000000
   175  O2    c     0.553712    0.138660    0.253307    0.000000
   176  O2    c     0.827974    0.413870    0.580258    0.000000
   177  O2    c     0.575011    0.414235    0.914553    0.000000
   178  O2    c     0.407746    0.828975    0.745203    0.000000
   179  O2    c     0.135834    0.566638    0.078035    0.000000
   180  O2    c     0.404710    0.556712    0.411515    0.000000
   181  F     c     0.397052    0.881128    0.259867    0.000000
   182  F     c     0.086137    0.570127    0.568889    0.000000
   183  F     c     0.437029    0.543203    0.912130    0.000000
   184  F     c     0.540019    0.090241    0.745801    0.000000
   185  F     c     0.843908    0.428642    0.070290    0.000000
   186  F     c     0.537051    0.428462    0.412315    0.000000
   187  O2    s     0.911636    0.997592    0.997385    0.000000
   188  O2    s     0.983065    0.906289    0.329461    0.000000
   189  O2    s     0.067251    0.074942    0.663363    0.000000
   190  O2    s     0.055610    0.984976    0.497220    0.000000
   191  O2    s     0.989871    0.066547    0.829112    0.000000
   192  O2    s     0.899228    0.913966    0.163154    0.000000
   193  O2    s     0.335903    0.549060    0.327668    0.000000
   194  O2    s     0.407688    0.765176    0.661110    0.000000
   195  O2    s     0.216844    0.636631    0.994685    0.000000
   196  O2    s     0.638141    0.404004    0.831011    0.000000
   197  O2    s     0.562998    0.218795    0.170344    0.000000
   198  O2    s     0.744813    0.327268    0.499099    0.000000
   199  O3    s     0.569091    0.344897    0.997646    0.000000
   200  O2    s     0.758063    0.409752    0.664505    0.000000
   201  O2    s     0.643696    0.216744    0.333519    0.000000
   202  O2    s     0.410034    0.628956    0.495416    0.000000
   203  O2    s     0.205822    0.571860    0.162842    0.000000
   204  O2    s     0.341110    0.756078    0.828490    0.000000
   205  O2    s     0.112833    0.207838    0.965753    0.000000
   206  O2    s     0.760097    0.878239    0.301697    0.000000
   207  O2    s     0.088334    0.876403    0.637866    0.000000
   208  O2    s     0.866760    0.758241    0.468344    0.000000
   209  O2    s     0.206769    0.086114    0.799777    0.000000
   210  O2    s     0.878546    0.110003    0.132468    0.000000
   211  O2    s     0.210699    0.095107    0.357910    0.000000
   212  O2    s     0.898682    0.788753    0.026564    0.000000
   213  O2    s     0.870412    0.093033    0.693290    0.000000
   214  O2    s     0.772710    0.868501    0.858797    0.000000
   215  O2    s     0.081809    0.205140    0.527165    0.000000
   216  O2    s     0.093980    0.887576    0.190578    0.000000
   217  O2    s     0.907091    0.843803    0.245649    0.000000
   218  O2    s     0.123649    0.056849    0.580653    0.000000
   219  O2    s     0.921173    0.057512    0.912430    0.000000
   220  O2    s     0.062494    0.136016    0.746391    0.000000
   221  O2    s     0.835141    0.920571    0.080151    0.000000
   222  O2    s     0.054349    0.912463    0.413666    0.000000
   223  O2    s     0.901292    0.198639    0.974899    0.000000
   224  O2    s     0.785152    0.684453    0.312301    0.000000
   225  O2    s     0.288157    0.089397    0.645338    0.000000
   226  O3    s     0.086024    0.790075    0.479376    0.000000
   227  O2    s     0.197153    0.287826    0.811715    0.000000
   228  O2    s     0.678030    0.897152    0.146502    0.000000
   229  O3    s     0.177099    0.875359    0.349378    0.000000
   230  O2    s     0.690187    0.787904    0.013331    0.000000
   231  O2    s     0.083489    0.295012    0.681617    0.000000
   232  O2    s     0.783798    0.080423    0.847933    0.000000
   233  O2    s     0.277545    0.184306    0.513899    0.000000
   234  O2    s     0.879782    0.690188    0.178714    0.000000
   235  O2    s     0.300493    0.634051    0.246876    0.000000
   236  O2    s     0.335316    0.667169    0.577930    0.000000
   237  O2    s     0.313455    0.661410    0.911638    0.000000
   238  O2    s     0.662567    0.336783    0.747658    0.000000
   239  O3    s     0.615979    0.303133    0.086490    0.000000
   240  O2    s     0.661873    0.308973    0.415235    0.000000
   241  O2    s     0.365683    0.333722    0.964811    0.000000
   242  O2    s     0.638996    0.010059    0.301289    0.000000
   243  O2    s     0.953101    0.619410    0.631644    0.000000
   244  O2    s     0.612333    0.636719    0.463718    0.000000
   245  O2    s     0.329325    0.954207    0.797707    0.000000
   246  O2    s     0.007522    0.365309    0.129305    0.000000
   247  O2    s     0.329988    0.348587    0.360313    0.000000
   248  O2    s     0.019291    0.651613    0.026409    0.000000
   249  O2    s     0.615272    0.961348    0.693869    0.000000
   250  O2    s     0.649332    0.614837    0.860889    0.000000
   251  O2    s     0.952623    0.329773    0.529313    0.000000
   252  O2    s     0.351403    0.019524    0.199430    0.000000
   253  O3    s     0.759515    0.287377    0.004638    0.000000
   254  O2    s     0.683573    0.447431    0.344342    0.000000
   255  O2    s     0.526103    0.218752    0.677097    0.000000
   256  O3    s     0.230473    0.680650    0.505655    0.000000
   257  O2    s     0.301243    0.525263    0.841834    0.000000
   258  O2    s     0.438878    0.763341    0.179701    0.000000
   259  O3    s     0.282184    0.728423    0.320701    0.000000
   260  O2    s     0.451531    0.681237    0.981714    0.000000
   261  O2    s     0.215884    0.531884    0.646943    0.000000
   262  O2    s     0.678996    0.213800    0.816982    0.000000
   263  O2    s     0.515890    0.286925    0.483416    0.000000
   264  O2    s     0.748568    0.452216    0.148414    0.000000
   265  O3    s     0.777624    0.545263    0.021111    0.000000
   266  O2    s     0.461685    0.236431    0.360361    0.000000
   267  O2    s     0.736321    0.208224    0.694434    0.000000
   268  O2    s     0.198377    0.458969    0.526909    0.000000
   269  O2    s     0.521348    0.734195    0.859124    0.000000
   270  O2    s     0.230678    0.771130    0.197048    0.000000
   271  O2    s     0.506003    0.765066    0.300331    0.000000
   272  O2    s     0.243863    0.459082    0.965574    0.000000
   273  O2    s     0.202115    0.736729    0.630556    0.000000
   274  O2    s     0.458051    0.200649    0.800002    0.000000
   275  O2    s     0.726659    0.508252    0.467852    0.000000
   276  O2    s     0.762406    0.244267    0.130629    0.000000
   277  O2    s     0.230091    0.326468    0.894889    0.000000
   278  O2    s     0.637492    0.885409    0.230940    0.000000
   279  O3    s     0.080318    0.767702    0.566105    0.000000
   280  O2    s     0.751619    0.644888    0.395830    0.000000
   281  O2    s     0.324234    0.085982    0.728613    0.000000
   282  O2    s     0.884204    0.230964    0.060235    0.000000
   283  O2    s     0.319374    0.214843    0.430228    0.000000
   284  O2    s     0.878212    0.649670    0.095125    0.000000
   285  O2    s     0.749507    0.085542    0.764587    0.000000
   286  O2    s     0.654527    0.749590    0.930140    0.000000
   287  O2    s     0.084199    0.331857    0.597733    0.000000
   288  O3    s     0.198952    0.886815    0.263005    0.000000
   289  O2    s     0.567722    0.552193    0.984675    0.000000
   290  O3    s     0.435453    0.010311    0.326419    0.000000
   291  O2    s     0.973701    0.420527    0.648747    0.000000
   292  O2    s     0.401335    0.417063    0.482199    0.000000
   293  O2    s     0.547752    0.967571    0.816873    0.000000
   294  O2    s     0.992958    0.566029    0.146363    0.000000
   295  O2    s     0.549984    0.559480    0.342208    0.000000
   296  O2    s     0.999699    0.433178    0.007456    0.000000
   297  O2    s     0.408357    0.972677    0.674853    0.000000
   298  O2    s     0.432063    0.408867    0.843048    0.000000
   299  O3    s     0.947904    0.532616    0.505249    0.000000
   300  O2    s     0.554543    0.004769    0.182332    0.000000
   301  O2    s     0.549410    0.129278    0.252736    0.000000
   302  O2    s     0.837592    0.418564    0.580527    0.000000
   303  O2    s     0.569558    0.418908    0.914213    0.000000
   304  O2    s     0.413228    0.839887    0.745224    0.000000
   305  O2    s     0.126358    0.562123    0.078197    0.000000
   306  O2    s     0.410495    0.551198    0.411587    0.000000
   307  F     s     0.390196    0.880668    0.262790    0.000000
   308  F     s     0.086207    0.576525    0.566045    0.000000
   309  F     s     0.436382    0.543794    0.912046    0.000000
   310  F     s     0.540367    0.090671    0.745711    0.000000
   311  F     s     0.833074    0.424723    0.067668    0.000000
   312  F     s     0.537291    0.428231    0.412204    0.000000
--------------------------------------------------------------------------------

  Final Cartesian lattice vectors (Angstroms) :

       11.963048    0.000435   -0.000407
       -6.056134   10.400285    0.015111
        0.039128    0.131024   29.324821


  Final cell parameters and derivatives :

--------------------------------------------------------------------------------
       a           11.963048 Angstrom     dE/de1(xx)     0.001274 eV/strain
       b           12.035070 Angstrom     dE/de2(yy)     0.000500 eV/strain
       c           29.325140 Angstrom     dE/de3(zz)     0.002370 eV/strain
       alpha       89.745306 Degrees      dE/de4(yz)    -0.000247 eV/strain
       beta        89.925493 Degrees      dE/de5(xz)     0.000116 eV/strain
       gamma      120.210335 Degrees      dE/de6(xy)     0.000224 eV/strain
--------------------------------------------------------------------------------

  Primitive cell volume =          3648.622318 Angs**3

  Density of cell =      1.753564 g/cm**3

  Non-primitive cell volume =          3648.622318 Angs**3


  Final internal derivatives :

--------------------------------------------------------------------------------
   No.  Atomic          a             b             c           Radius
        Label          (eV)          (eV)          (eV)        (eV/Angs)
--------------------------------------------------------------------------------
      1 Ge    c       0.000000      0.000000      0.000000      0.000000
      2 Si    c      -0.000007      0.000135      0.000179      0.000000
      3 Si    c       0.000083      0.000119     -0.000139      0.000000
      4 Si    c      -0.000271      0.000235      0.001066      0.000000
      5 Si    c      -0.000078      0.000146      0.000219      0.000000
      6 Si    c      -0.000067      0.000257      0.000568      0.000000
      7 Si    c      -0.000024      0.000476     -0.000192      0.000000
      8 Si    c       0.000178      0.000284     -0.000717      0.000000
      9 Si    c      -0.000092     -0.000027     -0.000264      0.000000
     10 Si    c       0.000011     -0.000105     -0.000486      0.000000
     11 Si    c      -0.000278      0.000105     -0.000984      0.000000
     12 Si    c       0.000435     -0.001073      0.007181      0.000000
     13 Si    c      -0.001258      0.000936     -0.003570      0.000000
     14 Si    c       0.000042      0.000261     -0.000664      0.000000
     15 Si    c      -0.000167     -0.000177     -0.000700      0.000000
     16 Si    c       0.000413     -0.000070     -0.000870      0.000000
     17 Si    c      -0.000051     -0.000024      0.000254      0.000000
     18 Si    c       0.000248      0.000276      0.000813      0.000000
     19 Si    c       0.000168      0.000223      0.000161      0.000000
     20 Si    c       0.000263      0.000367     -0.000732      0.000000
     21 Si    c      -0.000177     -0.000048      0.000398      0.000000
     22 Si    c      -0.000268     -0.000263      0.000428      0.000000
     23 Si    c      -0.000250     -0.000134      0.000598      0.000000
     24 Si    c       0.000358      0.000442     -0.000058      0.000000
     25 Si    c      -0.000050     -0.000392      0.000010      0.000000
     26 Si    c       0.000065      0.000051      0.000123      0.000000
     27 Ge    c      -0.000012     -0.000395      0.000844      0.000000
     28 Si    c       0.000420      0.000165     -0.000288      0.000000
     29 Si    c      -0.000006      0.000020      0.000343      0.000000
     30 Si    c       0.001265     -0.000382     -0.000877      0.000000
     31 Si    c      -0.000170     -0.000008      0.000261      0.000000
     32 Si    c       0.000747      0.000155      0.001432      0.000000
     33 Si    c      -0.000088      0.000053     -0.000231      0.000000
     34 Si    c       0.000353      0.000053     -0.000217      0.000000
     35 Si    c       0.000015     -0.000241     -0.000330      0.000000
     36 Ge    c       0.000138      0.000335     -0.000510      0.000000
     37 Si    c       0.000021     -0.000246     -0.000130      0.000000
     38 Si    c      -0.000108      0.000138     -0.000591      0.000000
     39 Si    c      -0.000189     -0.000106     -0.001274      0.000000
     40 Si    c       0.000404      0.000372      0.000141      0.000000
     41 Si    c       0.000164      0.000142      0.000028      0.000000
     42 Si    c       0.000475     -0.000162      0.001059      0.000000
     43 Si    c      -0.000057      0.000046     -0.000227      0.000000
     44 Si    c       0.000555      0.000298     -0.003481      0.000000
     45 Si    c      -0.000177     -0.000168      0.000010      0.000000
     46 Si    c       0.000162      0.000129      0.000076      0.000000
     47 Si    c       0.000200     -0.000037      0.000592      0.000000
     48 Si    c       0.000317      0.000333      0.000123      0.000000
     49 Si    c       0.000156     -0.000132      0.000518      0.000000
     50 Si    c       0.000582      0.000040     -0.000529      0.000000
     51 Si    c       0.000118      0.000149      0.000148      0.000000
     52 Si    c       0.000036      0.000316     -0.000300      0.000000
     53 Si    c      -0.000102     -0.000337      0.000066      0.000000
     54 Si    c      -0.000091      0.000002      0.000006      0.000000
     55 Si    c      -0.000032     -0.000224      0.000008      0.000000
     56 Si    c       0.000005      0.000759     -0.000583      0.000000
     57 Si    c      -0.000014      0.000014     -0.000344      0.000000
     58 Si    c       0.000250      0.000192      0.000355      0.000000
     59 Si    c       0.000008     -0.000094      0.000435      0.000000
     60 Si    c       0.000368      0.000081      0.000128      0.000000
     61 O2    c       0.000102     -0.000251      0.000626      0.000000
     62 O2    c       0.000239     -0.000206     -0.000273      0.000000
     63 O2    c       0.000044      0.000025     -0.000431      0.000000
     64 O2    c       0.000010     -0.000336     -0.000372      0.000000
     65 O2    c       0.000214     -0.000135     -0.000473      0.000000
     66 O2    c      -0.000052      0.000054     -0.000305      0.000000
     67 O2    c      -0.000096      0.000117     -0.000347      0.000000
     68 O2    c      -0.000055     -0.000005     -0.000259      0.000000
     69 O2    c      -0.000316      0.000328      0.000662      0.000000
     70 O2    c      -0.000101      0.000152     -0.000097      0.000000
     71 O2    c       0.000004     -0.000137      0.000300      0.000000
     72 O2    c      -0.000015     -0.000125      0.000064      0.000000
     73 O3    c       0.000247     -0.001962      0.001089      0.000000
     74 O2    c       0.000063     -0.000037     -0.000051      0.000000
     75 O2    c      -0.000009      0.000097     -0.000183      0.000000
     76 O2    c       0.000193     -0.000034     -0.000231      0.000000
     77 O2    c      -0.000247      0.000110     -0.000638      0.000000
     78 O2    c       0.000019      0.000022      0.000090      0.000000
     79 O2    c       0.000100      0.000020      0.000207      0.000000
     80 O2    c      -0.000024      0.000195     -0.000439      0.000000
     81 O2    c      -0.000003      0.000171      0.000085      0.000000
     82 O2    c      -0.000004     -0.000010     -0.000413      0.000000
     83 O2    c       0.000007      0.000148     -0.000134      0.000000
     84 O2    c       0.000043     -0.000075     -0.000393      0.000000
     85 O2    c       0.000096      0.000046      0.000186      0.000000
     86 O2    c       0.001196     -0.001173      0.000156      0.000000
     87 O2    c       0.000128     -0.000025     -0.000015      0.000000
     88 O2    c      -0.000050     -0.000164      0.000193      0.000000
     89 O2    c       0.000077      0.000006      0.000155      0.000000
     90 O2    c      -0.000125     -0.000057      0.000162      0.000000
     91 O2    c       0.000292     -0.000258      0.000078      0.000000
     92 O2    c      -0.000237      0.000223     -0.000780      0.000000
     93 O2    c      -0.000084     -0.000137     -0.001235      0.000000
     94 O2    c       0.000073     -0.000067     -0.000623      0.000000
     95 O2    c       0.000063      0.000213      0.001839      0.000000
     96 O2    c       0.000167     -0.000083      0.000449      0.000000
     97 O2    c      -0.000267      0.000628      0.000622      0.000000
     98 O2    c       0.000171     -0.000200      0.000133      0.000000
     99 O2    c      -0.000133      0.000038     -0.000282      0.000000
    100 O3    c      -0.000234      0.000037     -0.002063      0.000000
    101 O2    c       0.000156      0.000019      0.000213      0.000000
    102 O2    c       0.000076      0.000200     -0.000223      0.000000
    103 O3    c      -0.000152      0.000236     -0.001339      0.000000
    104 O2    c      -0.000437     -0.000063     -0.000128      0.000000
    105 O2    c      -0.000036     -0.000059     -0.000105      0.000000
    106 O2    c      -0.000033      0.000100     -0.000234      0.000000
    107 O2    c       0.000186      0.000263     -0.000001      0.000000
    108 O2    c       0.000248     -0.000098      0.000325      0.000000
    109 O2    c      -0.000045     -0.000215     -0.000155      0.000000
    110 O2    c       0.000210     -0.000067      0.000233      0.000000
    111 O2    c      -0.000147      0.000076     -0.000075      0.000000
    112 O2    c      -0.000046      0.000189      0.000118      0.000000
    113 O3    c      -0.003329     -0.000471     -0.004871      0.000000
    114 O2    c       0.000353     -0.000292     -0.000002      0.000000
    115 O2    c       0.000360     -0.000183      0.000469      0.000000
    116 O2    c       0.000062      0.000337      0.000090      0.000000
    117 O2    c      -0.000077      0.000237      0.000239      0.000000
    118 O2    c       0.000036      0.000033     -0.000135      0.000000
    119 O2    c      -0.000021     -0.000086      0.000372      0.000000
    120 O2    c       0.000185     -0.000009      0.000272      0.000000
    121 O2    c       0.000007      0.000008     -0.000226      0.000000
    122 O2    c      -0.000050      0.000639     -0.000366      0.000000
    123 O2    c      -0.000008     -0.000040     -0.000087      0.000000
    124 O2    c       0.000141     -0.000094     -0.000417      0.000000
    125 O2    c      -0.000118      0.000068     -0.000187      0.000000
    126 O2    c      -0.000036      0.000163     -0.000152      0.000000
    127 O3    c      -0.000054     -0.000515     -0.002663      0.000000
    128 O2    c       0.000106     -0.000090     -0.000393      0.000000
    129 O2    c       0.000030     -0.000044     -0.000402      0.000000
    130 O3    c       0.000349      0.000102     -0.002549      0.000000
    131 O2    c      -0.000209      0.000277     -0.000340      0.000000
    132 O2    c      -0.000094      0.000162     -0.000336      0.000000
    133 O3    c       0.000053     -0.000215      0.000156      0.000000
    134 O2    c      -0.000115      0.000137      0.000402      0.000000
    135 O2    c       0.000101     -0.000058      0.000135      0.000000
    136 O2    c       0.000038      0.000145      0.000558      0.000000
    137 O2    c       0.000254      0.000060      0.000287      0.000000
    138 O2    c       0.000185      0.000070      0.001387      0.000000
    139 O3    c      -0.000393     -0.000047     -0.002958      0.000000
    140 O2    c      -0.000063     -0.000014     -0.000256      0.000000
    141 O2    c       0.000158     -0.000054     -0.000277      0.000000
    142 O2    c       0.000145     -0.000401     -0.000191      0.000000
    143 O2    c      -0.000246      0.000142     -0.000284      0.000000
    144 O2    c      -0.000123     -0.000093     -0.000611      0.000000
    145 O2    c       0.000145      0.000033     -0.000331      0.000000
    146 O2    c      -0.000281      0.000220      0.000733      0.000000
    147 O2    c       0.000113      0.000126      0.000373      0.000000
    148 O2    c      -0.000122      0.000157      0.000313      0.000000
    149 O2    c       0.000102      0.000105     -0.000037      0.000000
    150 O2    c      -0.000195     -0.000071      0.000657      0.000000
    151 O2    c      -0.000004     -0.000049     -0.000088      0.000000
    152 O2    c       0.000316     -0.000057      0.000478      0.000000
    153 O3    c      -0.000055      0.000187      0.000337      0.000000
    154 O2    c       0.000016     -0.000034      0.000389      0.000000
    155 O2    c      -0.000208      0.000002     -0.000026      0.000000
    156 O2    c       0.000309     -0.000670     -0.001046      0.000000
    157 O2    c      -0.000067     -0.000018     -0.000026      0.000000
    158 O2    c      -0.000252      0.000787      0.002836      0.000000
    159 O2    c       0.000159      0.000008      0.000150      0.000000
    160 O2    c       0.000070      0.000010      0.000023      0.000000
    161 O2    c       0.000101     -0.000279      0.000196      0.000000
    162 O3    c      -0.000381      0.000109     -0.000220      0.000000
    163 O2    c       0.000168     -0.000243      0.000551      0.000000
    164 O3    c       0.000250      0.000346     -0.000699      0.000000
    165 O2    c      -0.000015     -0.000215      0.000183      0.000000
    166 O2    c      -0.000133      0.000449      0.000461      0.000000
    167 O2    c       0.000033      0.000035      0.000412      0.000000
    168 O2    c       0.000278      0.000108      0.000488      0.000000
    169 O2    c      -0.000175     -0.000024     -0.000083      0.000000
    170 O2    c       0.000123      0.000010     -0.000632      0.000000
    171 O2    c      -0.000116     -0.000125     -0.000277      0.000000
    172 O2    c       0.000331     -0.000222     -0.000383      0.000000
    173 O3    c      -0.000381     -0.000197     -0.002421      0.000000
    174 O2    c       0.000212      0.000038     -0.000748      0.000000
    175 O2    c      -0.000076      0.000171      0.000080      0.000000
    176 O2    c       0.000061      0.000099      0.000075      0.000000
    177 O2    c       0.000129     -0.000144     -0.000390      0.000000
    178 O2    c       0.000012     -0.000066      0.000168      0.000000
    179 O2    c       0.000530     -0.000083      0.000386      0.000000
    180 O2    c      -0.000320      0.000313      0.000325      0.000000
    181 F     c       0.000039      0.000157     -0.000320      0.000000
    182 F     c      -0.000025     -0.000053     -0.000301      0.000000
    183 F     c      -0.000015      0.000017     -0.000088      0.000000
    184 F     c      -0.000021     -0.000070     -0.000124      0.000000
    185 F     c       0.000403      0.000058     -0.000212      0.000000
    186 F     c      -0.000014      0.000143     -0.000047      0.000000
    187 O2    s      -0.000211      0.000406     -0.000519      0.000000
    188 O2    s      -0.000352      0.000331     -0.000224      0.000000
    189 O2    s       0.000074      0.000142      0.000653      0.000000
    190 O2    s       0.000544      0.000049      0.000080      0.000000
    191 O2    s      -0.000250      0.000062     -0.000087      0.000000
    192 O2    s      -0.000160     -0.000104      0.000166      0.000000
    193 O2    s       0.000412      0.000132      0.000208      0.000000
    194 O2    s      -0.000335     -0.000118      0.000376      0.000000
    195 O2    s       0.000182     -0.000132      0.000386      0.000000
    196 O2    s      -0.000049     -0.000073     -0.000186      0.000000
    197 O2    s       0.000141     -0.000199      0.000769      0.000000
    198 O2    s       0.000153      0.000109      0.000225      0.000000
    199 O3    s       0.000259      0.001926     -0.000134      0.000000
    200 O2    s       0.000226     -0.000307      0.000044      0.000000
    201 O2    s      -0.000110      0.000125      0.000151      0.000000
    202 O2    s      -0.000205      0.000087      0.000489      0.000000
    203 O2    s       0.000125     -0.000159     -0.000111      0.000000
    204 O2    s       0.000110      0.000087     -0.000166      0.000000
    205 O2    s       0.000139      0.000206     -0.000507      0.000000
    206 O2    s       0.000223      0.000039     -0.000005      0.000000
    207 O2    s       0.000123      0.000054     -0.000371      0.000000
    208 O2    s      -0.000072     -0.000237      0.000023      0.000000
    209 O2    s       0.000068     -0.000106     -0.000243      0.000000
    210 O2    s       0.000017     -0.000106      0.000086      0.000000
    211 O2    s       0.000244      0.000122      0.000498      0.000000
    212 O2    s      -0.000087      0.000493     -0.000284      0.000000
    213 O2    s       0.000022     -0.000186      0.000413      0.000000
    214 O2    s      -0.000271     -0.000035      0.000140      0.000000
    215 O2    s      -0.000096      0.000368      0.000205      0.000000
    216 O2    s      -0.000239      0.000350      0.000199      0.000000
    217 O2    s      -0.000084      0.000236     -0.000515      0.000000
    218 O2    s       0.000716      0.000010      0.000456      0.000000
    219 O2    s       0.000012      0.000231     -0.000015      0.000000
    220 O2    s      -0.000239      0.000095      0.000202      0.000000
    221 O2    s      -0.000147      0.000018      0.000397      0.000000
    222 O2    s       0.000336     -0.000289     -0.000479      0.000000
    223 O2    s       0.000184      0.000255      0.000190      0.000000
    224 O2    s      -0.000454      0.000321      0.000946      0.000000
    225 O2    s       0.000041     -0.000075      0.000086      0.000000
    226 O3    s      -0.000075      0.000070      0.002118      0.000000
    227 O2    s      -0.000277      0.000298      0.000656      0.000000
    228 O2    s       0.000172     -0.000107      0.000364      0.000000
    229 O3    s       0.000129      0.000004      0.000940      0.000000
    230 O2    s      -0.000269     -0.000130     -0.000897      0.000000
    231 O2    s      -0.000414      0.000128     -0.000375      0.000000
    232 O2    s       0.000150      0.000101     -0.000442      0.000000
    233 O2    s       0.000145      0.000123     -0.000707      0.000000
    234 O2    s       0.000151      0.000141     -0.000377      0.000000
    235 O2    s       0.000469     -0.000601     -0.000337      0.000000
    236 O2    s       0.000597     -0.000055     -0.000074      0.000000
    237 O2    s       0.000152      0.000204      0.000006      0.000000
    238 O2    s       0.000174      0.000355      0.000187      0.000000
    239 O3    s       0.002937      0.001197      0.001042      0.000000
    240 O2    s       0.000121     -0.000223     -0.000037      0.000000
    241 O2    s      -0.000184      0.000008      0.000246      0.000000
    242 O2    s       0.000014      0.000192      0.000687      0.000000
    243 O2    s      -0.000139      0.000006     -0.000001      0.000000
    244 O2    s      -0.000181      0.000313      0.000228      0.000000
    245 O2    s       0.000053     -0.000048      0.000184      0.000000
    246 O2    s       0.000363     -0.000162     -0.000070      0.000000
    247 O2    s      -0.000102      0.000140     -0.000135      0.000000
    248 O2    s       0.000420      0.000043     -0.000477      0.000000
    249 O2    s       0.000137     -0.000140      0.000225      0.000000
    250 O2    s      -0.000012      0.000049     -0.000395      0.000000
    251 O2    s      -0.000036     -0.000293     -0.000566      0.000000
    252 O2    s      -0.000099      0.000158     -0.000223      0.000000
    253 O3    s      -0.000045      0.000932      0.001839      0.000000
    254 O2    s       0.000347     -0.000168     -0.000353      0.000000
    255 O2    s      -0.000011      0.000056     -0.000190      0.000000
    256 O3    s      -0.000133      0.000074      0.001653      0.000000
    257 O2    s      -0.000111     -0.000006     -0.000200      0.000000
    258 O2    s       0.000261     -0.000192     -0.000312      0.000000
    259 O3    s       0.000169      0.000042      0.001530      0.000000
    260 O2    s       0.000075      0.000053     -0.000115      0.000000
    261 O2    s      -0.000209      0.000029      0.000458      0.000000
    262 O2    s       0.000071      0.000145      0.000296      0.000000
    263 O2    s       0.000252     -0.000187      0.000274      0.000000
    264 O2    s      -0.000141      0.000103     -0.002113      0.000000
    265 O3    s      -0.000170     -0.000594      0.002928      0.000000
    266 O2    s       0.000224     -0.000178     -0.000228      0.000000
    267 O2    s       0.000088      0.000039     -0.000264      0.000000
    268 O2    s       0.000150      0.000108      0.000048      0.000000
    269 O2    s      -0.000042      0.000187     -0.000014      0.000000
    270 O2    s       0.000099      0.000209     -0.000415      0.000000
    271 O2    s       0.000426     -0.000283      0.000454      0.000000
    272 O2    s       0.000145      0.000028     -0.000263      0.000000
    273 O2    s      -0.000025      0.000060      0.000576      0.000000
    274 O2    s      -0.000004      0.000170      0.000061      0.000000
    275 O2    s       0.000303     -0.000255      0.000722      0.000000
    276 O2    s      -0.000152      0.000122     -0.001290      0.000000
    277 O2    s      -0.000405     -0.000020      0.000221      0.000000
    278 O2    s       0.000564     -0.000290     -0.000151      0.000000
    279 O3    s      -0.000171      0.000371     -0.000578      0.000000
    280 O2    s       0.000102      0.000580      0.000048      0.000000
    281 O2    s      -0.000121      0.000142      0.000052      0.000000
    282 O2    s      -0.000276      0.000022     -0.000191      0.000000
    283 O2    s      -0.000072     -0.000152     -0.000151      0.000000
    284 O2    s       0.000000      0.000071     -0.000559      0.000000
    285 O2    s       0.000296     -0.000313     -0.000102      0.000000
    286 O2    s       0.000134      0.000367      0.000031      0.000000
    287 O2    s      -0.000061     -0.000436     -0.000794      0.000000
    288 O3    s       0.000069      0.000761      0.000235      0.000000
    289 O2    s       0.000436     -0.000270      0.000249      0.000000
    290 O3    s       0.000077      0.000196      0.000369      0.000000
    291 O2    s      -0.000170     -0.000211      0.000676      0.000000
    292 O2    s      -0.000163      0.000245      0.000029      0.000000
    293 O2    s       0.000151     -0.000095      0.000053      0.000000
    294 O2    s       0.000052      0.000440      0.000021      0.000000
    295 O2    s      -0.000219      0.000688      0.000171      0.000000
    296 O2    s       0.000221     -0.000645     -0.000521      0.000000
    297 O2    s      -0.000169     -0.000105     -0.000070      0.000000
    298 O2    s      -0.000050     -0.000238     -0.000164      0.000000
    299 O3    s       0.000026      0.000233      0.002596      0.000000
    300 O2    s       0.000273      0.000089     -0.000582      0.000000
    301 O2    s       0.000406      0.000687     -0.000321      0.000000
    302 O2    s      -0.000685     -0.000428     -0.000162      0.000000
    303 O2    s       0.000304     -0.000471      0.000229      0.000000
    304 O2    s      -0.000056     -0.000368     -0.000299      0.000000
    305 O2    s       0.000843      0.000367      0.000281      0.000000
    306 O2    s       0.000459      0.000345      0.000016      0.000000
    307 F     s       0.000271      0.000099     -0.000178      0.000000
    308 F     s      -0.000200      0.000028      0.000154      0.000000
    309 F     s      -0.000067      0.000129      0.000044      0.000000
    310 F     s      -0.000004     -0.000118     -0.000077      0.000000
    311 F     s      -0.000885     -0.000101     -0.000203      0.000000
    312 F     s      -0.000106      0.000225     -0.000023      0.000000
--------------------------------------------------------------------------------
  Maximum abs         0.003329      0.001962      0.007181      0.000000
--------------------------------------------------------------------------------


  Time to end of optimisation =     165.2950 seconds


  Peak dynamic memory used =      19.13 MB 


  Timing analysis for GULP :

--------------------------------------------------------------------------------
  Task / Subroutine                                          Time (Seconds)
--------------------------------------------------------------------------------
  Calculation of reciprocal space energy and derivatives          4.1287
  Calculation of real space energy and derivatives              144.3076
  Calculation of three-body energy and derivatives               14.7462
  Calculation of matrix inversion                                 1.8639
  Global summation overhead                                       0.0005
--------------------------------------------------------------------------------
  Total CPU time                                                165.2951
--------------------------------------------------------------------------------


  Dump file written as out.res                                                 
  CIF file written as out.cif                                                 


  Job Finished at 16:02.50  5th November   2016                               

