********************************************************************************
*                       GENERAL UTILITY LATTICE PROGRAM                        *
*                                 Julian Gale                                  *
*                      Nanochemistry Research Institute                        *
*                           Department of Chemistry                            *
*                    Curtin University, Western Australia                      *
********************************************************************************
* Version = 4.2.0 * Last modified =  20th January 2014                         *
********************************************************************************
*  optimise     - perform optimisation run                                     *
*  conp         - constant pressure calculation                                *
*  qok          - running with non charge neutral cell is OK                   *
********************************************************************************

  Job Started  at 19:23.37  6th November   2016                               

  Number of CPUs =     1


  Total number of configurations input =   1

********************************************************************************
*  Input for Configuration =   1                                               *
********************************************************************************

  Formula = Ge3Si57O120F6                                               

  Number of irreducible atoms/shells =     312


  Total number atoms/shells =     312

  Dimensionality = 3               :  Bulk   


  Charge on solid   =  -6.000000 =>neutralising background added


  Cartesian lattice vectors (Angstroms) :

       11.940750    0.000000    0.000000
       -6.017776   10.407475    0.000000
       -0.382003   -0.159823   29.436701

  Cell parameters (Angstroms/Degrees):

  a =      11.9407    alpha =  89.8971
  b =      12.0220    beta  =  90.7435
  c =      29.4396    gamma = 120.0372

  Initial cell volume =        3658.188612 Angs**3

  Temperature of configuration =  0.000     K 

  Pressure of configuration =         0.000 GPa 

  Fractional coordinates of asymmetric unit :

--------------------------------------------------------------------------------
   No.  Atomic       x           y          z         Charge      Occupancy
        Label      (Frac)      (Frac)     (Frac)        (e)         (Frac)  
--------------------------------------------------------------------------------
      1 Ge    c    0.699600    0.375700    0.033890     4.00000    1.000000    
      2 Si    c    0.621828 *  0.322833 *  0.366149 *   4.00000    1.000000    
      3 Si    c    0.681343 *  0.308476 *  0.695405 *   4.00000    1.000000    
      4 Si    c    0.297472 *  0.616339 *  0.529788 *   4.00000    1.000000    
      5 Si    c    0.378330 *  0.678811 *  0.862294 *   4.00000    1.000000    
      6 Si    c    0.321211 *  0.705993 *  0.197856 *   4.00000    1.000000    
      7 Si    c    0.377488 *  0.699938 *  0.298421 *   4.00000    1.000000    
      8 Si    c    0.319022 *  0.621791 *  0.962036 *   4.00000    1.000000    
      9 Si    c    0.302110 *  0.668937 *  0.630518 *   4.00000    1.000000    
     10 Si    c    0.618248 *  0.301771 *  0.797618 *   4.00000    1.000000    
     11 Si    c    0.676274 *  0.379889 *  0.466860 *   4.00000    1.000000    
     12 Si    c    0.687001 *  0.321090 *  0.133489 *   4.00000    1.000000    
     13 Si    c    0.528804 *  0.415816 *  0.965309 *   4.00000    1.000000    
     14 Si    c    0.584055 *  0.110340 *  0.302832 *   4.00000    1.000000    
     15 Si    c    0.898064 *  0.475859 *  0.632952 *   4.00000    1.000000    
     16 Si    c    0.469297 *  0.581017 *  0.464683 *   4.00000    1.000000    
     17 Si    c    0.409886 *  0.885167 *  0.795984 *   4.00000    1.000000    
     18 Si    c    0.110093 *  0.534389 *  0.130419 *   4.00000    1.000000    
     19 Si    c    0.416629 *  0.526829 *  0.362882 *   4.00000    1.000000    
     20 Si    c    0.107253 *  0.578664 *  0.027045 *   4.00000    1.000000    
     21 Si    c    0.467595 *  0.881053 *  0.693279 *   4.00000    1.000000    
     22 Si    c    0.581716 *  0.472717 *  0.863490 *   4.00000    1.000000    
     23 Si    c    0.889054 *  0.418393 *  0.531779 *   4.00000    1.000000    
     24 Si    c    0.529144 *  0.114080 *  0.201238 *   4.00000    1.000000    
     25 Si    c    0.300607 *  0.401866 *  0.846664 *   4.00000    1.000000    
     26 Si    c    0.599860 *  0.907007 *  0.184403 *   4.00000    1.000000    
     27 Si    c    0.098010 *  0.697422 *  0.516673 *   4.00000    1.000000    
     28 Si    c    0.697737 *  0.598587 *  0.350221 *   4.00000    1.000000    
     29 Ge    c    0.410757 *  0.096533 *  0.687739 *   4.00000    1.000000    
     30 Si    c    0.890798 *  0.293311 *  0.013658 *   4.00000    1.000000    
     31 Si    c    0.396505 *  0.301210 *  0.480456 *   4.00000    1.000000    
     32 Si    c    0.893812 *  0.605480 *  0.142409 *   4.00000    1.000000    
     33 Si    c    0.695838 *  0.098411 *  0.811917 *   4.00000    1.000000    
     34 Si    c    0.595815 *  0.695195 *  0.979562 *   4.00000    1.000000    
     35 Si    c    0.100196 *  0.394184 *  0.646047 *   4.00000    1.000000    
     36 Si    c    0.301897 *  0.900956 *  0.315217 *   4.00000    1.000000    
     37 Si    c    0.250760 *  0.344008 *  0.946943 *   4.00000    1.000000    
     38 Si    c    0.659776 *  0.909353 *  0.285157 *   4.00000    1.000000    
     39 Si    c    0.099863 *  0.753098 *  0.617623 *   4.00000    1.000000    
     40 Si    c    0.749055 *  0.659588 *  0.450916 *   4.00000    1.000000    
     41 Si    c    0.329390 *  0.087693 *  0.783341 *   4.00000    1.000000    
     42 Si    c    0.903019 *  0.252488 *  0.116865 *   4.00000    1.000000    
     43 Si    c    0.339979 *  0.249904 *  0.379209 *   4.00000    1.000000    
     44 Si    c    0.901424 *  0.656961 *  0.039367 *   4.00000    1.000000    
     45 Si    c    0.749412 *  0.091280 *  0.710350 *   4.00000    1.000000    
     46 Si    c    0.659191 *  0.750174 *  0.879581 *   4.00000    1.000000    
     47 Si    c    0.088118 *  0.336904 *  0.545178 *   4.00000    1.000000    
     48 Si    c    0.249655 *  0.912715 *  0.214518 *   4.00000    1.000000    
     49 Si    c    0.974283 *  0.125222 *  0.963549 *   4.00000    1.000000    
     50 Si    c    0.877217 *  0.844672 *  0.299497 *   4.00000    1.000000    
     51 Si    c    0.159983 *  0.033040 *  0.633125 *   4.00000    1.000000    
     52 Si    c    0.029780 *  0.877596 *  0.465949 *   4.00000    1.000000    
     53 Si    c    0.117873 *  0.151745 *  0.798406 *   4.00000    1.000000    
     54 Si    c    0.848200 *  0.977663 *  0.134227 *   4.00000    1.000000    
     55 Si    c    0.122737 *  0.969207 *  0.365092 *   4.00000    1.000000    
     56 Ge    c    0.849196 *  0.881508 *  0.030601 *   4.00000    1.000000    
     57 Si    c    0.029354 *  0.146630 *  0.696158 *   4.00000    1.000000    
     58 Si    c    0.875131 *  0.028884 *  0.863140 *   4.00000    1.000000    
     59 Si    c    0.150347 *  0.120186 *  0.531636 *   4.00000    1.000000    
     60 Si    c    0.969186 *  0.851897 *  0.197862 *   4.00000    1.000000    
     61 O3    c    0.939934 *  0.010302 *  0.996838 *   1.33043    1.000000    
     62 O2    c    0.001163 *  0.926341 *  0.331528 *   0.87073    1.000000    
     63 O2    c    0.067044 *  0.064539 *  0.663793 *   0.87073    1.000000    
     64 O2    c    0.072198 *  0.999149 *  0.498276 *   0.87073    1.000000    
     65 O2    c    0.993682 *  0.074074 *  0.829582 *   0.87073    1.000000    
     66 O2    c    0.929538 *  0.939030 *  0.168274 *   0.87073    1.000000    
     67 O2    c    0.339615 *  0.575500 *  0.329830 *   0.87073    1.000000    
     68 O2    c    0.426974 *  0.751639 *  0.663755 *   0.87073    1.000000    
     69 O2    c    0.231597 *  0.655878 *  0.994905 *   0.87073    1.000000    
     70 O2    c    0.657494 *  0.423145 *  0.830977 *   0.87073    1.000000    
     71 O2    c    0.578558 *  0.243037 *  0.171441 *   0.87073    1.000000    
     72 O2    c    0.760604 *  0.341530 *  0.499965 *   0.87073    1.000000    
     73 O3    c    0.566961 *  0.334817 *  0.997574 *   1.33043    1.000000    
     74 O2    c    0.778233 *  0.434733 *  0.667037 *   0.87073    1.000000    
     75 O2    c    0.660887 *  0.235670 *  0.335237 *   0.87073    1.000000    
     76 O2    c    0.419184 *  0.656414 *  0.496595 *   0.87073    1.000000    
     77 O2    c    0.234402 *  0.584815 *  0.163883 *   0.87073    1.000000    
     78 O2    c    0.339218 *  0.762234 *  0.829020 *   0.87073    1.000000    
     79 O2    c    0.127865 *  0.218892 *  0.967647 *   0.87073    1.000000    
     80 O2    c    0.786684 *  0.908278 *  0.304751 *   0.87073    1.000000    
     81 O2    c    0.102490 *  0.878422 *  0.638269 *   0.87073    1.000000    
     82 O2    c    0.875140 *  0.786877 *  0.470911 *   0.87073    1.000000    
     83 O2    c    0.209859 *  0.091127 *  0.808262 *   0.87073    1.000000    
     84 O2    c    0.907064 *  0.131548 *  0.139327 *   0.87073    1.000000    
     85 O2    c    0.213564 *  0.122568 *  0.359076 *   0.87073    1.000000    
     86 O3    c    0.922975 *  0.792647 *  0.022124 *   1.33043    1.000000    
     87 O2    c    0.874613 *  0.090020 *  0.690986 *   0.87073    1.000000    
     88 O2    c    0.785508 *  0.874880 *  0.859125 *   0.87073    1.000000    
     89 O2    c    0.085987 *  0.210135 *  0.525131 *   0.87073    1.000000    
     90 O2    c    0.123776 *  0.914462 *  0.193981 *   0.87073    1.000000    
     91 O2    c    0.926725 *  0.853289 *  0.248814 *   0.87073    1.000000    
     92 O2    c    0.137996 *  0.067032 *  0.581790 *   0.87073    1.000000    
     93 O2    c    0.931163 *  0.070086 *  0.913184 *   0.87073    1.000000    
     94 O2    c    0.065537 *  0.131971 *  0.747363 *   0.87073    1.000000    
     95 O3    c    0.867142 *  0.940949 *  0.084757 *   1.33043    1.000000    
     96 O2    c    0.069317 *  0.930271 *  0.415353 *   0.87073    1.000000    
     97 O2    c    0.899743 *  0.200738 *  0.976084 *   0.87073    1.000000    
     98 O2    c    0.795931 *  0.694276 *  0.311942 *   0.87073    1.000000    
     99 O3    c    0.306581 *  0.106614 *  0.645509 *   1.33043    1.000000    
    100 O2    c    0.098465 *  0.794789 *  0.478141 *   0.87073    1.000000    
    101 O2    c    0.200458 *  0.304730 *  0.808289 *   0.87073    1.000000    
    102 O2    c    0.695704 *  0.906449 *  0.145758 *   0.87073    1.000000    
    103 O2    c    0.204986 *  0.899419 *  0.353692 *   0.87073    1.000000    
    104 O3    c    0.686188 *  0.791288 *  0.019324 *   1.33043    1.000000    
    105 O2    c    0.101732 *  0.297910 *  0.684432 *   0.87073    1.000000    
    106 O2    c    0.789510 *  0.095650 *  0.851347 *   0.87073    1.000000    
    107 O2    c    0.301829 *  0.204653 *  0.518930 *   0.87073    1.000000    
    108 O2    c    0.899040 *  0.704356 *  0.180789 *   0.87073    1.000000    
    109 O2    c    0.320784 *  0.645146 *  0.247408 *   0.87073    1.000000    
    110 O2    c    0.358117 *  0.671516 *  0.580116 *   0.87073    1.000000    
    111 O2    c    0.317072 *  0.678222 *  0.911724 *   0.87073    1.000000    
    112 O2    c    0.673669 *  0.354636 *  0.747391 *   0.87073    1.000000    
    113 O3    c    0.615619 *  0.307163 *  0.085846 *   1.33043    1.000000    
    114 O2    c    0.678543 *  0.323710 *  0.416716 *   0.87073    1.000000    
    115 O2    c    0.371579 *  0.331721 *  0.964804 *   0.87073    1.000000    
    116 O2    c    0.670955 *  0.040729 *  0.304702 *   0.87073    1.000000    
    117 O2    c    0.967108 *  0.630896 *  0.635400 *   0.87073    1.000000    
    118 O2    c    0.625896 *  0.669530 *  0.468086 *   0.87073    1.000000    
    119 O2    c    0.323633 *  0.954572 *  0.799295 *   0.87073    1.000000    
    120 O2    c    0.036093 *  0.379161 *  0.132860 *   0.87073    1.000000    
    121 O2    c    0.329304 *  0.370885 *  0.359734 *   0.87073    1.000000    
    122 O2    c    0.034654 *  0.660810 *  0.025150 *   0.87073    1.000000    
    123 O2    c    0.625529 *  0.958268 *  0.693549 *   0.87073    1.000000    
    124 O2    c    0.668187 *  0.628533 *  0.860343 *   0.87073    1.000000    
    125 O2    c    0.955450 *  0.329256 *  0.527236 *   0.87073    1.000000    
    126 O2    c    0.372338 *  0.044660 *  0.196826 *   0.87073    1.000000    
    127 O3    c    0.756390 *  0.284455 *  0.003640 *   1.33043    1.000000    
    128 O2    c    0.696858 *  0.464386 *  0.342884 *   0.87073    1.000000    
    129 O3    c    0.544100 *  0.246795 *  0.671127 *   1.33043    1.000000    
    130 O2    c    0.229078 *  0.692379 *  0.508134 *   0.87073    1.000000    
    131 O2    c    0.305283 *  0.537485 *  0.838478 *   0.87073    1.000000    
    132 O2    c    0.463947 *  0.774764 *  0.175289 *   0.87073    1.000000    
    133 O2    c    0.301939 *  0.766882 *  0.320958 *   0.87073    1.000000    
    134 O2    c    0.462128 *  0.697941 *  0.984990 *   0.87073    1.000000    
    135 O2    c    0.235906 *  0.526773 *  0.652895 *   0.87073    1.000000    
    136 O2    c    0.692481 *  0.229930 *  0.817976 *   0.87073    1.000000    
    137 O2    c    0.532375 *  0.304115 *  0.488154 *   0.87073    1.000000    
    138 O2    c    0.762585 *  0.470742 *  0.151283 *   0.87073    1.000000    
    139 O3    c    0.773007 *  0.544069 *  0.018129 *   1.33043    1.000000    
    140 O2    c    0.465240 *  0.247949 *  0.360178 *   0.87073    1.000000    
    141 O2    c    0.744706 *  0.215196 *  0.692564 *   0.87073    1.000000    
    142 O2    c    0.214532 *  0.460776 *  0.525164 *   0.87073    1.000000    
    143 O2    c    0.535481 *  0.756603 *  0.859815 *   0.87073    1.000000    
    144 O2    c    0.244562 *  0.785498 *  0.193948 *   0.87073    1.000000    
    145 O2    c    0.533912 *  0.782871 *  0.303676 *   0.87073    1.000000    
    146 O2    c    0.246502 *  0.467046 *  0.966705 *   0.87073    1.000000    
    147 O2    c    0.222924 *  0.745063 *  0.636504 *   0.87073    1.000000    
    148 O2    c    0.463052 *  0.212648 *  0.801034 *   0.87073    1.000000    
    149 O2    c    0.749503 *  0.535402 *  0.471391 *   0.87073    1.000000    
    150 O2    c    0.780169 *  0.257702 *  0.135698 *   0.87073    1.000000    
    151 O2    c    0.228490 *  0.328466 *  0.892579 *   0.87073    1.000000    
    152 O2    c    0.675450 *  0.909269 *  0.230700 *   0.87073    1.000000    
    153 O2    c    0.099645 *  0.769787 *  0.563067 *   0.87073    1.000000    
    154 O2    c    0.768900 *  0.674778 *  0.396554 *   0.87073    1.000000    
    155 O3    c    0.302245 *  0.089874 *  0.730776 *   1.33043    1.000000    
    156 O2    c    0.897004 *  0.231542 *  0.062609 *   0.87073    1.000000    
    157 O2    c    0.322619 *  0.231823 *  0.433464 *   0.87073    1.000000    
    158 O2    c    0.892001 *  0.670011 *  0.094739 *   0.87073    1.000000    
    159 O2    c    0.762105 *  0.095141 *  0.765092 *   0.87073    1.000000    
    160 O2    c    0.678055 *  0.767782 *  0.934299 *   0.87073    1.000000    
    161 O2    c    0.091374 *  0.318760 *  0.599482 *   0.87073    1.000000    
    162 O2    c    0.231620 *  0.908855 *  0.268838 *   0.87073    1.000000    
    163 O2    c    0.579586 *  0.556154 *  0.988606 *   0.87073    1.000000    
    164 O2    c    0.442796 *  0.023767 *  0.325075 *   0.87073    1.000000    
    165 O2    c    0.977874 *  0.412845 *  0.655751 *   0.87073    1.000000    
    166 O2    c    0.412259 *  0.441081 *  0.488030 *   0.87073    1.000000    
    167 O2    c    0.553253 *  0.977450 *  0.816738 *   0.87073    1.000000    
    168 O2    c    0.018508 *  0.587722 *  0.148067 *   0.87073    1.000000    
    169 O2    c    0.558168 *  0.585023 *  0.340138 *   0.87073    1.000000    
    170 O2    c    0.016868 *  0.435267 *  0.007429 *   0.87073    1.000000    
    171 O3    c    0.407462 *  0.956043 *  0.667603 *   1.33043    1.000000    
    172 O2    c    0.440097 *  0.414043 *  0.839408 *   0.87073    1.000000    
    173 O2    c    0.970385 *  0.558968 *  0.508498 *   0.87073    1.000000    
    174 O2    c    0.587777 *  0.033644 *  0.176557 *   0.87073    1.000000    
    175 O2    c    0.582393 *  0.163977 *  0.252336 *   0.87073    1.000000    
    176 O2    c    0.838110 *  0.418719 *  0.582749 *   0.87073    1.000000    
    177 O2    c    0.584090 *  0.421798 *  0.914236 *   0.87073    1.000000    
    178 O2    c    0.412910 *  0.836552 *  0.745006 *   0.87073    1.000000    
    179 O2    c    0.157073 *  0.578970 *  0.078869 *   0.87073    1.000000    
    180 O2    c    0.415913 *  0.580382 *  0.413460 *   0.87073    1.000000    
    181 F     c    0.450060 *  0.902938 *  0.248361 *   0.56000    1.000000    
    182 F     c    0.098021 *  0.543331 *  0.581090 *   0.56000    1.000000    
    183 F     c    0.450759 *  0.554245 *  0.912196 *   0.56000    1.000000    
    184 F     c    0.516622 *  0.094866 *  0.736226 *   0.56000    1.000000    
    185 F     c    0.854207 *  0.436412 *  0.070727 *   0.56000    1.000000    
    186 F     c    0.548155 *  0.451943 *  0.413871 *   0.56000    1.000000    
    187 O3    s    0.935673 *  0.011638 *  0.996143 *  -3.33043    1.000000    
    188 O2    s    0.000761 *  0.921903 *  0.331666 *  -2.87073    1.000000    
    189 O2    s    0.072314 *  0.070557 *  0.664296 *  -2.87073    1.000000    
    190 O2    s    0.076034 *  0.998757 *  0.498292 *  -2.87073    1.000000    
    191 O2    s    0.994019 *  0.077616 *  0.829924 *  -2.87073    1.000000    
    192 O2    s    0.925104 *  0.933531 *  0.167876 *  -2.87073    1.000000    
    193 O2    s    0.351328 *  0.583440 *  0.329912 *  -2.87073    1.000000    
    194 O2    s    0.418576 *  0.756386 *  0.663393 *  -2.87073    1.000000    
    195 O2    s    0.227379 *  0.644306 *  0.994934 *  -2.87073    1.000000    
    196 O2    s    0.645770 *  0.415495 *  0.830773 *  -2.87073    1.000000    
    197 O2    s    0.584628 *  0.237635 *  0.170616 *  -2.87073    1.000000    
    198 O2    s    0.765012 *  0.353492 *  0.499768 *  -2.87073    1.000000    
    199 O3    s    0.572798 *  0.346380 *  0.996879 *  -3.33043    1.000000    
    200 O2    s    0.780381 *  0.425606 *  0.666541 *  -2.87073    1.000000    
    201 O2    s    0.648927 *  0.231438 *  0.335002 *  -2.87073    1.000000    
    202 O2    s    0.411864 *  0.644435 *  0.496698 *  -2.87073    1.000000    
    203 O2    s    0.229885 *  0.591583 *  0.163737 *  -2.87073    1.000000    
    204 O2    s    0.350669 *  0.766640 *  0.828953 *  -2.87073    1.000000    
    205 O2    s    0.124160 *  0.222030 *  0.964996 *  -2.87073    1.000000    
    206 O2    s    0.783022 *  0.901630 *  0.302175 *  -2.87073    1.000000    
    207 O2    s    0.107904 *  0.880348 *  0.635574 *  -2.87073    1.000000    
    208 O2    s    0.878388 *  0.783235 *  0.468331 *  -2.87073    1.000000    
    209 O2    s    0.212212 *  0.097144 *  0.804792 *  -2.87073    1.000000    
    210 O2    s    0.900572 *  0.128354 *  0.136484 *  -2.87073    1.000000    
    211 O2    s    0.216932 *  0.119401 *  0.361752 *  -2.87073    1.000000    
    212 O3    s    0.914612 *  0.786705 *  0.024508 *  -3.33043    1.000000    
    213 O2    s    0.877291 *  0.096039 *  0.693561 *  -2.87073    1.000000    
    214 O2    s    0.782114 *  0.878538 *  0.861629 *  -2.87073    1.000000    
    215 O2    s    0.092901 *  0.213821 *  0.527843 *  -2.87073    1.000000    
    216 O2    s    0.120276 *  0.907588 *  0.196492 *  -2.87073    1.000000    
    217 O2    s    0.925958 *  0.852133 *  0.248710 *  -2.87073    1.000000    
    218 O2    s    0.141706 *  0.069583 *  0.581378 *  -2.87073    1.000000    
    219 O2    s    0.929443 *  0.071456 *  0.913005 *  -2.87073    1.000000    
    220 O2    s    0.067389 *  0.135855 *  0.747438 *  -2.87073    1.000000    
    221 O3    s    0.863483 *  0.939867 *  0.085560 *  -3.33043    1.000000    
    222 O2    s    0.070982 *  0.928817 *  0.415277 *  -2.87073    1.000000    
    223 O2    s    0.906962 *  0.202258 *  0.978697 *  -2.87073    1.000000    
    224 O2    s    0.794633 *  0.700618 *  0.314497 *  -2.87073    1.000000    
    225 O3    s    0.296828 *  0.097582 *  0.646887 *  -3.33043    1.000000    
    226 O2    s    0.091106 *  0.793689 *  0.480758 *  -2.87073    1.000000    
    227 O2    s    0.202041 *  0.298662 *  0.811175 *  -2.87073    1.000000    
    228 O2    s    0.701864 *  0.913928 *  0.148466 *  -2.87073    1.000000    
    229 O2    s    0.206338 *  0.906888 *  0.350927 *  -2.87073    1.000000    
    230 O3    s    0.691050 *  0.789601 *  0.016449 *  -3.33043    1.000000    
    231 O2    s    0.093918 *  0.291810 *  0.681721 *  -2.87073    1.000000    
    232 O2    s    0.788464 *  0.088976 *  0.848382 *  -2.87073    1.000000    
    233 O2    s    0.295857 *  0.205890 *  0.516247 *  -2.87073    1.000000    
    234 O2    s    0.905928 *  0.709703 *  0.178589 *  -2.87073    1.000000    
    235 O2    s    0.326510 *  0.656876 *  0.247435 *  -2.87073    1.000000    
    236 O2    s    0.346144 *  0.665569 *  0.580120 *  -2.87073    1.000000    
    237 O2    s    0.323391 *  0.672541 *  0.911863 *  -2.87073    1.000000    
    238 O2    s    0.668596 *  0.344652 *  0.747634 *  -2.87073    1.000000    
    239 O3    s    0.628430 *  0.313160 *  0.087129 *  -3.33043    1.000000    
    240 O2    s    0.672424 *  0.329387 *  0.416579 *  -2.87073    1.000000    
    241 O2    s    0.374339 *  0.341745 *  0.962850 *  -2.87073    1.000000    
    242 O2    s    0.660886 *  0.034187 *  0.302476 *  -2.87073    1.000000    
    243 O2    s    0.973711 *  0.627317 *  0.633271 *  -2.87073    1.000000    
    244 O2    s    0.622654 *  0.659360 *  0.465926 *  -2.87073    1.000000    
    245 O2    s    0.333174 *  0.960641 *  0.797344 *  -2.87073    1.000000    
    246 O2    s    0.029984 *  0.382233 *  0.130943 *  -2.87073    1.000000    
    247 O2    s    0.339319 *  0.374289 *  0.362068 *  -2.87073    1.000000    
    248 O2    s    0.028898 *  0.651396 *  0.026811 *  -2.87073    1.000000    
    249 O2    s    0.622856 *  0.964714 *  0.695327 *  -2.87073    1.000000    
    250 O2    s    0.658364 *  0.625240 *  0.862680 *  -2.87073    1.000000    
    251 O2    s    0.962556 *  0.339208 *  0.529585 *  -2.87073    1.000000    
    252 O2    s    0.375479 *  0.037852 *  0.199144 *  -2.87073    1.000000    
    253 O3    s    0.766780 *  0.291502 *  0.006795 *  -3.33043    1.000000    
    254 O2    s    0.689283 *  0.463915 *  0.346040 *  -2.87073    1.000000    
    255 O3    s    0.549204 *  0.242764 *  0.674880 *  -3.33043    1.000000    
    256 O2    s    0.222290 *  0.685046 *  0.511290 *  -2.87073    1.000000    
    257 O2    s    0.312331 *  0.537789 *  0.841819 *  -2.87073    1.000000    
    258 O2    s    0.463347 *  0.781398 *  0.178574 *  -2.87073    1.000000    
    259 O2    s    0.309670 *  0.774069 *  0.318011 *  -2.87073    1.000000    
    260 O2    s    0.460939 *  0.689673 *  0.981969 *  -2.87073    1.000000    
    261 O2    s    0.228348 *  0.527393 *  0.649816 *  -2.87073    1.000000    
    262 O2    s    0.685256 *  0.223204 *  0.815237 *  -2.87073    1.000000    
    263 O2    s    0.532943 *  0.311678 *  0.485096 *  -2.87073    1.000000    
    264 O2    s    0.768994 *  0.470297 *  0.148571 *  -2.87073    1.000000    
    265 O3    s    0.782223 *  0.545494 *  0.021345 *  -3.33043    1.000000    
    266 O2    s    0.468023 *  0.256004 *  0.362794 *  -2.87073    1.000000    
    267 O2    s    0.738825 *  0.210662 *  0.694786 *  -2.87073    1.000000    
    268 O2    s    0.209532 *  0.463716 *  0.527756 *  -2.87073    1.000000    
    269 O2    s    0.532369 *  0.747800 *  0.862167 *  -2.87073    1.000000    
    270 O2    s    0.253145 *  0.790774 *  0.196516 *  -2.87073    1.000000    
    271 O2    s    0.531194 *  0.788021 *  0.301143 *  -2.87073    1.000000    
    272 O2    s    0.254692 *  0.470280 *  0.964116 *  -2.87073    1.000000    
    273 O2    s    0.217760 *  0.737808 *  0.633873 *  -2.87073    1.000000    
    274 O2    s    0.465985 *  0.209286 *  0.798858 *  -2.87073    1.000000    
    275 O2    s    0.741704 *  0.532690 *  0.468719 *  -2.87073    1.000000    
    276 O2    s    0.784397 *  0.263629 *  0.133390 *  -2.87073    1.000000    
    277 O2    s    0.238427 *  0.337861 *  0.893500 *  -2.87073    1.000000    
    278 O2    s    0.665806 *  0.909038 *  0.231569 *  -2.87073    1.000000    
    279 O2    s    0.099499 *  0.760364 *  0.563873 *  -2.87073    1.000000    
    280 O2    s    0.759301 *  0.665137 *  0.397397 *  -2.87073    1.000000    
    281 O3    s    0.312336 *  0.090054 *  0.733457 *  -3.33043    1.000000    
    282 O2    s    0.896960 *  0.239771 *  0.063567 *  -2.87073    1.000000    
    283 O2    s    0.332202 *  0.241017 *  0.432593 *  -2.87073    1.000000    
    284 O2    s    0.892897 *  0.661702 *  0.094652 *  -2.87073    1.000000    
    285 O2    s    0.753672 *  0.095092 *  0.764371 *  -2.87073    1.000000    
    286 O2    s    0.668036 *  0.758807 *  0.933155 *  -2.87073    1.000000    
    287 O2    s    0.091954 *  0.328625 *  0.598635 *  -2.87073    1.000000    
    288 O2    s    0.240874 *  0.908451 *  0.267878 *  -2.87073    1.000000    
    289 O2    s    0.575950 *  0.557128 *  0.985232 *  -2.87073    1.000000    
    290 O2    s    0.442421 *  0.019409 *  0.321675 *  -2.87073    1.000000    
    291 O2    s    0.982880 *  0.417537 *  0.652337 *  -2.87073    1.000000    
    292 O2    s    0.416709 *  0.440633 *  0.484758 *  -2.87073    1.000000    
    293 O2    s    0.553907 *  0.981241 *  0.813990 *  -2.87073    1.000000    
    294 O2    s    0.014912 *  0.583763 *  0.145559 *  -2.87073    1.000000    
    295 O2    s    0.558376 *  0.580231 *  0.343576 *  -2.87073    1.000000    
    296 O2    s    0.013474 *  0.436164 *  0.010197 *  -2.87073    1.000000    
    297 O3    s    0.414094 *  0.958748 *  0.671689 *  -3.33043    1.000000    
    298 O2    s    0.439880 *  0.418981 *  0.842680 *  -2.87073    1.000000    
    299 O2    s    0.975821 *  0.559253 *  0.511791 *  -2.87073    1.000000    
    300 O2    s    0.582860 *  0.028264 *  0.179921 *  -2.87073    1.000000    
    301 O2    s    0.576894 *  0.153028 *  0.252216 *  -2.87073    1.000000    
    302 O2    s    0.849562 *  0.424560 *  0.582651 *  -2.87073    1.000000    
    303 O2    s    0.578381 *  0.426641 *  0.913972 *  -2.87073    1.000000    
    304 O2    s    0.417914 *  0.846083 *  0.745341 *  -2.87073    1.000000    
    305 O2    s    0.147103 *  0.574247 *  0.079008 *  -2.87073    1.000000    
    306 O2    s    0.421477 *  0.574855 *  0.413472 *  -2.87073    1.000000    
    307 F     s    0.449745 *  0.902432 *  0.248183 *  -1.56000    1.000000    
    308 F     s    0.098259 *  0.543211 *  0.581086 *  -1.56000    1.000000    
    309 F     s    0.450549 *  0.554967 *  0.912094 *  -1.56000    1.000000    
    310 F     s    0.509798 *  0.095019 *  0.733213 *  -1.56000    1.000000    
    311 F     s    0.844914 *  0.432841 *  0.068609 *  -1.56000    1.000000    
    312 F     s    0.548417 *  0.451857 *  0.413728 *  -1.56000    1.000000    
--------------------------------------------------------------------------------



********************************************************************************
*  General input information                                                   *
********************************************************************************

  Species output for all configurations : 

--------------------------------------------------------------------------------
  Species    Type    Atomic    Atomic    Charge       Radii (Angs)     Library
                     Number     Mass       (e)     Cova   Ionic  VDW   Symbol
--------------------------------------------------------------------------------
    Si       Core       14      28.09   4.000000   1.200  0.000  2.100          
    O1       Core        8      16.00   1.733957   0.730  0.000  1.360          
    O1       Shell       8       0.00  -3.733957   0.730  0.000  1.360          
    O2       Core        8      16.00   0.870733   0.730  0.000  1.360          
    O2       Shell       8       0.00  -2.870733   0.730  0.000  1.360          
    O3       Core        8      16.00   1.330431   0.730  0.000  1.360          
    O3       Shell       8       0.00  -3.330431   0.730  0.000  1.360          
    F        Core        9      19.00   0.560000   0.710  0.000  1.300          
    F        Shell       9       0.00  -1.560000   0.710  0.000  1.300          
    Ge       Core       32      72.61   4.000000   1.170  0.000  1.750          
--------------------------------------------------------------------------------


  Lattice summation method               =    Ewald          (3-D)
                                         =    Parry          (2-D)
                                         =    Saunders et al (1-D)
  Accuracy factor for lattice sums       =   12.000


  Time limit = Infinity

  Maximum range for interatomic potentials =        16.000000 Angstroms

  Taper potentials to zero over   1.0000 Angstroms using polynomial

  General interatomic potentials :

--------------------------------------------------------------------------------
Atom  Types   Potential         A         B         C         D     Cutoffs(Ang)
  1     2                                                            Min    Max 
--------------------------------------------------------------------------------
Si   c O1   s Buckingham    0.132E+04 0.318      10.1      0.00     0.000 16.000
Si   c O2   s Buckingham    0.132E+04 0.318      10.1      0.00     0.000 16.000
Si   c O3   s Buckingham    0.132E+04 0.318      10.1      0.00     0.000 16.000
Ge   c O1   s Buckingham    0.150E+04 0.326      16.8      0.00     0.000 16.000
Ge   c O2   s Buckingham    0.150E+04 0.326      16.8      0.00     0.000 16.000
Ge   c O3   s Buckingham    0.150E+04 0.326      16.8      0.00     0.000 16.000
O1   s O1   s Buckingham    0.228E+05 0.149      10.9      0.00     0.000 16.000
O1   s O2   s Buckingham    0.228E+05 0.149      10.9      0.00     0.000 16.000
O1   s O3   s Buckingham    0.228E+05 0.149      10.9      0.00     0.000 16.000
O2   s O2   s Buckingham    0.228E+05 0.149      10.9      0.00     0.000 16.000
O2   s O3   s Buckingham    0.228E+05 0.149      10.9      0.00     0.000 16.000
O3   s O3   s Buckingham    0.228E+05 0.149      10.9      0.00     0.000 16.000
Si   c F    s Buckingham     977.     0.282      0.00      0.00     0.000 16.000
Ge   c F    s Buckingham     681.     0.320      0.00      0.00     0.000 16.000
F    s F    s Buckingham     540.     0.262      0.00      0.00     0.000 16.000
O1   s F    s Buckingham    0.168E+04 0.268      0.00      0.00     0.000 16.000
O2   s F    s Buckingham    0.168E+04 0.268      0.00      0.00     0.000 16.000
O3   s F    s Buckingham    0.168E+04 0.268      0.00      0.00     0.000 16.000
O2   c O2   s Spring (c-s)   76.0      0.00      0.00      0.00     0.000  0.800
O3   c O3   s Spring (c-s)   128.      0.00      0.00      0.00     0.000  0.800
O1   c O1   s Spring (c-s)   180.      0.00      0.00      0.00     0.000  0.800
F    c F    s Spring (c-s)   33.5      0.00      0.00      0.00     0.000  0.800
--------------------------------------------------------------------------------

  General Three-body potentials :

  Harmonic form:

--------------------------------------------------------------------------------
Atom    Atom    Atom           Force Constants            Theta     Cutoffs  
  1       2       3     (eVrad**-2/eVrad**-3/eVrad**-4)   (deg)  1-2  1-3  2-3
--------------------------------------------------------------------------------
Si    c O1    s O1    s  1.261        0.0000    0.0000   109.470 0.00 0.00 0.00
                                                                 1.90 1.90 3.50
Si    c O1    s O2    s  1.261        0.0000    0.0000   109.470 0.00 0.00 0.00
                                                                 1.90 1.90 3.50
Si    c O2    s O2    s  1.261        0.0000    0.0000   109.470 0.00 0.00 0.00
                                                                 1.90 1.90 3.50
--------------------------------------------------------------------------------

********************************************************************************
*  Output for configuration   1                                                *
********************************************************************************


  Components of energy : 

--------------------------------------------------------------------------------
  Interatomic potentials     =        2063.16142853 eV
  Three-body potentials      =           0.47145533 eV
  Monopole - monopole (real) =       -6612.78625415 eV
  Monopole - monopole (recip)=       -3170.94655444 eV
  Monopole - monopole (total)=       -9783.73280859 eV
  Neutralising energy        =          -6.45921758 eV
--------------------------------------------------------------------------------
  Total lattice energy       =       -7726.55914230 eV
--------------------------------------------------------------------------------
  Total lattice energy       =         -745494.8460 kJ/(mole unit cells)
--------------------------------------------------------------------------------


  Number of variables =      939

  Maximum number of calculations  =          5000
  Maximum Hessian update interval =            10
  Maximum step size               =   0.100000000
  Maximum parameter tolerance     =   0.000010000
  Maximum function  tolerance     =   0.000010000
  Maximum gradient  tolerance     =   0.001000000
  Maximum gradient  component     =   0.010000000

  Symmetry not applied to optimisation

  Cell parameters to be optimised using strains

  Newton-Raphson optimiser to be used

  BFGS hessian update to be used

  Dumpfile to be written after every cycle

  Start of bulk optimisation :

  Cycle:      0 Energy:     -7726.559142  Gnorm:      0.009615  CPU:    2.017
  ** Hessian calculated **
  Cycle:      1 Energy:     -7726.589058  Gnorm:      0.008069  CPU:    6.591
  Cycle:      2 Energy:     -7726.621484  Gnorm:      0.005904  CPU:   10.789
  Cycle:      3 Energy:     -7726.646810  Gnorm:      0.003298  CPU:   14.986
  Cycle:      4 Energy:     -7726.652825  Gnorm:      0.001822  CPU:   19.185
  Cycle:      5 Energy:     -7726.654282  Gnorm:      0.001070  CPU:   23.382
  Cycle:      6 Energy:     -7726.654655  Gnorm:      0.000501  CPU:   27.580
  Cycle:      7 Energy:     -7726.654737  Gnorm:      0.000402  CPU:   31.099
  Cycle:      8 Energy:     -7726.654762  Gnorm:      0.000210  CPU:   33.938
  Cycle:      9 Energy:     -7726.654773  Gnorm:      0.000167  CPU:   36.777
  Cycle:     10 Energy:     -7726.654777  Gnorm:      0.000112  CPU:   39.616
  ** Hessian calculated **
  Cycle:     11 Energy:     -7726.654777  Gnorm:      0.000059  CPU:   44.148
  Cycle:     12 Energy:     -7726.654777  Gnorm:      0.000047  CPU:   46.987
  Cycle:     13 Energy:     -7726.654777  Gnorm:      0.000035  CPU:   49.825


  **** Optimisation achieved ****


  Final energy =   -7726.65477746 eV
  Final Gnorm  =       0.00002876

  Components of energy : 

--------------------------------------------------------------------------------
  Interatomic potentials     =        2063.89368588 eV
  Three-body potentials      =           0.49278511 eV
  Monopole - monopole (real) =       -6613.00707582 eV
  Monopole - monopole (recip)=       -3171.57367337 eV
  Monopole - monopole (total)=       -9784.58074919 eV
  Neutralising energy        =          -6.46049925 eV
--------------------------------------------------------------------------------
  Total lattice energy       =       -7726.65477746 eV
--------------------------------------------------------------------------------
  Total lattice energy       =         -745504.0733 kJ/(mole unit cells)
--------------------------------------------------------------------------------

  Final fractional coordinates of atoms :

--------------------------------------------------------------------------------
   No.  Atomic        x           y          z          Radius
        Label       (Frac)      (Frac)     (Frac)       (Angs) 
--------------------------------------------------------------------------------
     1  Ge    c     0.699600    0.375700    0.033890    0.000000
     2  Si    c     0.605662    0.308131    0.365961    0.000000
     3  Si    c     0.673171    0.304154    0.695134    0.000000
     4  Si    c     0.282719    0.604984    0.527974    0.000000
     5  Si    c     0.366086    0.669237    0.859685    0.000000
     6  Si    c     0.306508    0.697469    0.196068    0.000000
     7  Si    c     0.360493    0.685916    0.296710    0.000000
     8  Si    c     0.306660    0.614844    0.959594    0.000000
     9  Si    c     0.294702    0.661474    0.628639    0.000000
    10  Si    c     0.607826    0.293174    0.797355    0.000000
    11  Si    c     0.660494    0.368179    0.466705    0.000000
    12  Si    c     0.673724    0.312088    0.132922    0.000000
    13  Si    c     0.522346    0.412632    0.965940    0.000000
    14  Si    c     0.567881    0.096125    0.302710    0.000000
    15  Si    c     0.891316    0.470722    0.633435    0.000000
    16  Si    c     0.451818    0.567303    0.462453    0.000000
    17  Si    c     0.400191    0.876779    0.793405    0.000000
    18  Si    c     0.096627    0.526078    0.128279    0.000000
    19  Si    c     0.398685    0.510640    0.360560    0.000000
    20  Si    c     0.095612    0.572337    0.024852    0.000000
    21  Si    c     0.459632    0.876424    0.690476    0.000000
    22  Si    c     0.571669    0.464551    0.863189    0.000000
    23  Si    c     0.875124    0.409406    0.532059    0.000000
    24  Si    c     0.514469    0.104902    0.200897    0.000000
    25  Si    c     0.290366    0.392909    0.845287    0.000000
    26  Si    c     0.584981    0.898213    0.183371    0.000000
    27  Si    c     0.084134    0.687626    0.516141    0.000000
    28  Si    c     0.680019    0.582433    0.348729    0.000000
    29  Ge    c     0.403167    0.092521    0.686053    0.000000
    30  Si    c     0.880878    0.285751    0.011128    0.000000
    31  Si    c     0.379963    0.288424    0.479023    0.000000
    32  Si    c     0.880526    0.597357    0.140669    0.000000
    33  Si    c     0.685846    0.089535    0.810666    0.000000
    34  Si    c     0.584166    0.691387    0.977554    0.000000
    35  Si    c     0.093451    0.387985    0.645547    0.000000
    36  Si    c     0.285714    0.886890    0.314390    0.000000
    37  Si    c     0.243009    0.338657    0.945927    0.000000
    38  Si    c     0.642982    0.895232    0.284295    0.000000
    39  Si    c     0.092958    0.747038    0.617150    0.000000
    40  Si    c     0.732246    0.646904    0.449412    0.000000
    41  Si    c     0.319593    0.079647    0.781650    0.000000
    42  Si    c     0.890296    0.244243    0.114988    0.000000
    43  Si    c     0.323230    0.234677    0.377684    0.000000
    44  Si    c     0.893394    0.655756    0.037438    0.000000
    45  Si    c     0.740914    0.086375    0.708927    0.000000
    46  Si    c     0.647044    0.741679    0.877408    0.000000
    47  Si    c     0.074206    0.326799    0.544555    0.000000
    48  Si    c     0.234891    0.903388    0.213572    0.000000
    49  Si    c     0.966236    0.118981    0.962159    0.000000
    50  Si    c     0.859391    0.828545    0.298521    0.000000
    51  Si    c     0.150650    0.026199    0.632178    0.000000
    52  Si    c     0.012808    0.865823    0.465024    0.000000
    53  Si    c     0.107236    0.141913    0.797454    0.000000
    54  Si    c     0.833951    0.969329    0.133537    0.000000
    55  Si    c     0.106204    0.954289    0.363982    0.000000
    56  Ge    c     0.837296    0.877604    0.029459    0.000000
    57  Si    c     0.020173    0.139516    0.695077    0.000000
    58  Si    c     0.864575    0.018763    0.862138    0.000000
    59  Si    c     0.133939    0.108577    0.530487    0.000000
    60  Si    c     0.954031    0.842112    0.196952    0.000000
    61  O3    c     0.933140    0.010691    0.998425    0.000000
    62  O2    c     0.983448    0.909417    0.330693    0.000000
    63  O2    c     0.057072    0.056619    0.662873    0.000000
    64  O2    c     0.053859    0.987414    0.497235    0.000000
    65  O2    c     0.984704    0.065266    0.829364    0.000000
    66  O2    c     0.914321    0.931333    0.168533    0.000000
    67  O2    c     0.322014    0.559734    0.327255    0.000000
    68  O2    c     0.421354    0.747582    0.660951    0.000000
    69  O2    c     0.218639    0.648582    0.992250    0.000000
    70  O2    c     0.646909    0.413152    0.831304    0.000000
    71  O2    c     0.566190    0.234689    0.171231    0.000000
    72  O2    c     0.745215    0.332055    0.500792    0.000000
    73  O3    c     0.562572    0.334653    0.998390    0.000000
    74  O2    c     0.772699    0.431447    0.667844    0.000000
    75  O2    c     0.644848    0.220079    0.335693    0.000000
    76  O2    c     0.401976    0.643502    0.493852    0.000000
    77  O2    c     0.220962    0.576956    0.161822    0.000000
    78  O2    c     0.327810    0.752403    0.825720    0.000000
    79  O2    c     0.119632    0.212444    0.965898    0.000000
    80  O2    c     0.768929    0.892129    0.304022    0.000000
    81  O2    c     0.097202    0.872632    0.638059    0.000000
    82  O2    c     0.858012    0.774785    0.469253    0.000000
    83  O2    c     0.199384    0.081145    0.806743    0.000000
    84  O2    c     0.894512    0.123392    0.137452    0.000000
    85  O2    c     0.197220    0.107251    0.357386    0.000000
    86  O3    c     0.912593    0.789949    0.020308    0.000000
    87  O2    c     0.866154    0.086135    0.689186    0.000000
    88  O2    c     0.773910    0.865478    0.856858    0.000000
    89  O2    c     0.069639    0.198864    0.524609    0.000000
    90  O2    c     0.108813    0.905899    0.193351    0.000000
    91  O2    c     0.909233    0.838230    0.247890    0.000000
    92  O2    c     0.123772    0.055610    0.580666    0.000000
    93  O2    c     0.918904    0.055520    0.912883    0.000000
    94  O2    c     0.052380    0.121360    0.746583    0.000000
    95  O3    c     0.852086    0.928177    0.084741    0.000000
    96  O2    c     0.053826    0.918211    0.414459    0.000000
    97  O2    c     0.891706    0.195845    0.973124    0.000000
    98  O2    c     0.777995    0.677897    0.310392    0.000000
    99  O3    c     0.297803    0.102715    0.643956    0.000000
   100  O2    c     0.082063    0.783834    0.477606    0.000000
   101  O2    c     0.190188    0.294692    0.807085    0.000000
   102  O2    c     0.681494    0.900091    0.144667    0.000000
   103  O2    c     0.188482    0.884316    0.352911    0.000000
   104  O3    c     0.675344    0.790788    0.016712    0.000000
   105  O2    c     0.095537    0.291182    0.683789    0.000000
   106  O2    c     0.779687    0.086503    0.850310    0.000000
   107  O2    c     0.284962    0.192359    0.517437    0.000000
   108  O2    c     0.885179    0.695994    0.178850    0.000000
   109  O2    c     0.305130    0.634183    0.245303    0.000000
   110  O2    c     0.347665    0.661724    0.577879    0.000000
   111  O2    c     0.303508    0.669342    0.908852    0.000000
   112  O2    c     0.664043    0.347951    0.747325    0.000000
   113  O3    c     0.607602    0.302296    0.084752    0.000000
   114  O2    c     0.663115    0.310790    0.416780    0.000000
   115  O2    c     0.364506    0.328911    0.964807    0.000000
   116  O2    c     0.654758    0.026414    0.304135    0.000000
   117  O2    c     0.960905    0.625519    0.635455    0.000000
   118  O2    c     0.608360    0.656198    0.465941    0.000000
   119  O2    c     0.314238    0.946390    0.796964    0.000000
   120  O2    c     0.022767    0.371157    0.131131    0.000000
   121  O2    c     0.311840    0.354845    0.357610    0.000000
   122  O2    c     0.025968    0.657510    0.023937    0.000000
   123  O2    c     0.617591    0.954238    0.691420    0.000000
   124  O2    c     0.656751    0.619994    0.858963    0.000000
   125  O2    c     0.941099    0.320016    0.527377    0.000000
   126  O2    c     0.357611    0.035762    0.196135    0.000000
   127  O3    c     0.747120    0.278880    0.002269    0.000000
   128  O2    c     0.680257    0.448714    0.342046    0.000000
   129  O3    c     0.536519    0.243826    0.670204    0.000000
   130  O2    c     0.213993    0.681275    0.506542    0.000000
   131  O2    c     0.293760    0.527586    0.836196    0.000000
   132  O2    c     0.449081    0.766937    0.173497    0.000000
   133  O2    c     0.284690    0.752174    0.319467    0.000000
   134  O2    c     0.449905    0.693286    0.982635    0.000000
   135  O2    c     0.230175    0.520078    0.651660    0.000000
   136  O2    c     0.681571    0.220225    0.817371    0.000000
   137  O2    c     0.516187    0.292170    0.487530    0.000000
   138  O2    c     0.750738    0.462374    0.150229    0.000000
   139  O3    c     0.767283    0.540862    0.015815    0.000000
   140  O2    c     0.449049    0.232577    0.359424    0.000000
   141  O2    c     0.736390    0.210897    0.691787    0.000000
   142  O2    c     0.199530    0.449490    0.523644    0.000000
   143  O2    c     0.523297    0.747502    0.857068    0.000000
   144  O2    c     0.229481    0.776805    0.192385    0.000000
   145  O2    c     0.516782    0.768781    0.302467    0.000000
   146  O2    c     0.235504    0.460467    0.965091    0.000000
   147  O2    c     0.216507    0.738396    0.635302    0.000000
   148  O2    c     0.452631    0.203973    0.800133    0.000000
   149  O2    c     0.733028    0.523518    0.470553    0.000000
   150  O2    c     0.767421    0.248899    0.133973    0.000000
   151  O2    c     0.219620    0.321119    0.891533    0.000000
   152  O2    c     0.659274    0.897242    0.229771    0.000000
   153  O2    c     0.089593    0.762028    0.562475    0.000000
   154  O2    c     0.751233    0.660064    0.394948    0.000000
   155  O3    c     0.293555    0.084339    0.729010    0.000000
   156  O2    c     0.885759    0.224335    0.060559    0.000000
   157  O2    c     0.306007    0.217958    0.432052    0.000000
   158  O2    c     0.877405    0.661495    0.092874    0.000000
   159  O2    c     0.753086    0.088350    0.763813    0.000000
   160  O2    c     0.666011    0.762131    0.932112    0.000000
   161  O2    c     0.081184    0.311096    0.598972    0.000000
   162  O2    c     0.216639    0.897765    0.267969    0.000000
   163  O2    c     0.570290    0.554179    0.987913    0.000000
   164  O2    c     0.426867    0.008490    0.324845    0.000000
   165  O2    c     0.972727    0.408715    0.655921    0.000000
   166  O2    c     0.395215    0.428025    0.486189    0.000000
   167  O2    c     0.543422    0.968035    0.814725    0.000000
   168  O2    c     0.005941    0.580499    0.145781    0.000000
   169  O2    c     0.540123    0.567861    0.337997    0.000000
   170  O2    c     0.003837    0.429609    0.005129    0.000000
   171  O3    c     0.400756    0.953163    0.665035    0.000000
   172  O2    c     0.430039    0.405091    0.838786    0.000000
   173  O2    c     0.955642    0.549586    0.508649    0.000000
   174  O2    c     0.573471    0.025300    0.176151    0.000000
   175  O2    c     0.566124    0.152009    0.252437    0.000000
   176  O2    c     0.828669    0.412121    0.583505    0.000000
   177  O2    c     0.575611    0.417798    0.914450    0.000000
   178  O2    c     0.404002    0.830784    0.742083    0.000000
   179  O2    c     0.144427    0.569927    0.076724    0.000000
   180  O2    c     0.397869    0.564726    0.411024    0.000000
   181  F     c     0.434023    0.891260    0.247238    0.000000
   182  F     c     0.089892    0.536580    0.580393    0.000000
   183  F     c     0.438974    0.548890    0.910663    0.000000
   184  F     c     0.507881    0.089341    0.734574    0.000000
   185  F     c     0.847455    0.432067    0.069904    0.000000
   186  F     c     0.531218    0.437000    0.412365    0.000000
   187  O3    s     0.928219    0.010792    0.997189    0.000000
   188  O2    s     0.983207    0.905317    0.330791    0.000000
   189  O2    s     0.062506    0.062849    0.663357    0.000000
   190  O2    s     0.058025    0.987033    0.497254    0.000000
   191  O2    s     0.984643    0.068538    0.829546    0.000000
   192  O2    s     0.910010    0.925537    0.167902    0.000000
   193  O2    s     0.333733    0.567799    0.327453    0.000000
   194  O2    s     0.412539    0.751867    0.660676    0.000000
   195  O2    s     0.214572    0.637144    0.992377    0.000000
   196  O2    s     0.635269    0.405822    0.830967    0.000000
   197  O2    s     0.571921    0.229218    0.170343    0.000000
   198  O2    s     0.749742    0.343813    0.500441    0.000000
   199  O3    s     0.567755    0.346049    0.997333    0.000000
   200  O2    s     0.774415    0.422012    0.667196    0.000000
   201  O2    s     0.632882    0.216074    0.335325    0.000000
   202  O2    s     0.394910    0.631560    0.494088    0.000000
   203  O2    s     0.216279    0.583649    0.161692    0.000000
   204  O2    s     0.339333    0.756982    0.825800    0.000000
   205  O2    s     0.115748    0.215515    0.963375    0.000000
   206  O2    s     0.765342    0.885712    0.301398    0.000000
   207  O2    s     0.102022    0.874378    0.635260    0.000000
   208  O2    s     0.861301    0.771121    0.466767    0.000000
   209  O2    s     0.201739    0.087390    0.803314    0.000000
   210  O2    s     0.887811    0.120136    0.134717    0.000000
   211  O2    s     0.200538    0.104162    0.360139    0.000000
   212  O3    s     0.904423    0.783599    0.022784    0.000000
   213  O2    s     0.868799    0.091729    0.691879    0.000000
   214  O2    s     0.770663    0.869257    0.859497    0.000000
   215  O2    s     0.076789    0.202620    0.527241    0.000000
   216  O2    s     0.105337    0.898833    0.195801    0.000000
   217  O2    s     0.908723    0.837595    0.247795    0.000000
   218  O2    s     0.127761    0.058640    0.580270    0.000000
   219  O2    s     0.917977    0.058429    0.912580    0.000000
   220  O2    s     0.055005    0.125759    0.746606    0.000000
   221  O3    s     0.848769    0.928351    0.085360    0.000000
   222  O2    s     0.055204    0.916457    0.414356    0.000000
   223  O2    s     0.898616    0.197185    0.976011    0.000000
   224  O2    s     0.776738    0.684278    0.313015    0.000000
   225  O3    s     0.288099    0.093402    0.645375    0.000000
   226  O2    s     0.074857    0.782768    0.480197    0.000000
   227  O2    s     0.191743    0.288734    0.809982    0.000000
   228  O2    s     0.687581    0.907140    0.147443    0.000000
   229  O2    s     0.189848    0.891884    0.350117    0.000000
   230  O3    s     0.680362    0.788728    0.014090    0.000000
   231  O2    s     0.087430    0.285187    0.681060    0.000000
   232  O2    s     0.778623    0.079776    0.847361    0.000000
   233  O2    s     0.279052    0.193617    0.514784    0.000000
   234  O2    s     0.892063    0.701252    0.176756    0.000000
   235  O2    s     0.310869    0.645920    0.245439    0.000000
   236  O2    s     0.335588    0.655882    0.577989    0.000000
   237  O2    s     0.310053    0.663820    0.909079    0.000000
   238  O2    s     0.659031    0.337985    0.747503    0.000000
   239  O3    s     0.620360    0.308001    0.086507    0.000000
   240  O2    s     0.656911    0.316384    0.416603    0.000000
   241  O2    s     0.366837    0.338429    0.962797    0.000000
   242  O2    s     0.644637    0.019917    0.301916    0.000000
   243  O2    s     0.967355    0.621841    0.633309    0.000000
   244  O2    s     0.605255    0.646062    0.463828    0.000000
   245  O2    s     0.323729    0.952500    0.795043    0.000000
   246  O2    s     0.016699    0.374165    0.129145    0.000000
   247  O2    s     0.321882    0.358367    0.359984    0.000000
   248  O2    s     0.019932    0.648121    0.025434    0.000000
   249  O2    s     0.614914    0.960582    0.693217    0.000000
   250  O2    s     0.647011    0.616793    0.861330    0.000000
   251  O2    s     0.948290    0.329907    0.529665    0.000000
   252  O2    s     0.360826    0.028993    0.198447    0.000000
   253  O3    s     0.758300    0.286037    0.005386    0.000000
   254  O2    s     0.672630    0.448322    0.345205    0.000000
   255  O3    s     0.541576    0.239648    0.673948    0.000000
   256  O2    s     0.207349    0.674077    0.509792    0.000000
   257  O2    s     0.300865    0.528054    0.839594    0.000000
   258  O2    s     0.448554    0.773449    0.176870    0.000000
   259  O2    s     0.292552    0.759483    0.316568    0.000000
   260  O2    s     0.448843    0.684904    0.979654    0.000000
   261  O2    s     0.222388    0.520664    0.648613    0.000000
   262  O2    s     0.674497    0.213694    0.814594    0.000000
   263  O2    s     0.516796    0.299661    0.484434    0.000000
   264  O2    s     0.757000    0.462102    0.147516    0.000000
   265  O3    s     0.776571    0.542590    0.019235    0.000000
   266  O2    s     0.451723    0.240692    0.362018    0.000000
   267  O2    s     0.730502    0.206280    0.693989    0.000000
   268  O2    s     0.194631    0.452486    0.526310    0.000000
   269  O2    s     0.520287    0.738752    0.859501    0.000000
   270  O2    s     0.238126    0.782056    0.194999    0.000000
   271  O2    s     0.514088    0.773913    0.299919    0.000000
   272  O2    s     0.243855    0.463778    0.962497    0.000000
   273  O2    s     0.211152    0.731174    0.632686    0.000000
   274  O2    s     0.455681    0.200724    0.797945    0.000000
   275  O2    s     0.725257    0.520711    0.467871    0.000000
   276  O2    s     0.771696    0.254815    0.131764    0.000000
   277  O2    s     0.229566    0.330589    0.892395    0.000000
   278  O2    s     0.649698    0.897134    0.230647    0.000000
   279  O2    s     0.089369    0.752565    0.563302    0.000000
   280  O2    s     0.741742    0.650516    0.395842    0.000000
   281  O3    s     0.303521    0.084349    0.731736    0.000000
   282  O2    s     0.885727    0.232359    0.061495    0.000000
   283  O2    s     0.315583    0.227119    0.431154    0.000000
   284  O2    s     0.879126    0.653987    0.092772    0.000000
   285  O2    s     0.744626    0.088270    0.763091    0.000000
   286  O2    s     0.655972    0.753000    0.931006    0.000000
   287  O2    s     0.081723    0.320832    0.598093    0.000000
   288  O2    s     0.225799    0.897244    0.267005    0.000000
   289  O2    s     0.566791    0.555149    0.984557    0.000000
   290  O2    s     0.426432    0.004372    0.321384    0.000000
   291  O2    s     0.977346    0.413067    0.652466    0.000000
   292  O2    s     0.399678    0.427530    0.482914    0.000000
   293  O2    s     0.544121    0.972017    0.812014    0.000000
   294  O2    s     0.002163    0.576343    0.143338    0.000000
   295  O2    s     0.540350    0.563286    0.341494    0.000000
   296  O2    s     0.001015    0.430348    0.007903    0.000000
   297  O3    s     0.407180    0.955494    0.669147    0.000000
   298  O2    s     0.429735    0.410091    0.842001    0.000000
   299  O2    s     0.961191    0.549783    0.511894    0.000000
   300  O2    s     0.568428    0.019837    0.179480    0.000000
   301  O2    s     0.560804    0.141173    0.252203    0.000000
   302  O2    s     0.839915    0.417819    0.583287    0.000000
   303  O2    s     0.569978    0.422339    0.914033    0.000000
   304  O2    s     0.408995    0.840143    0.742489    0.000000
   305  O2    s     0.134488    0.565584    0.076841    0.000000
   306  O2    s     0.403531    0.559346    0.411071    0.000000
   307  F     s     0.433673    0.890722    0.247040    0.000000
   308  F     s     0.090381    0.536614    0.580381    0.000000
   309  F     s     0.438646    0.549758    0.910551    0.000000
   310  F     s     0.500982    0.089643    0.731482    0.000000
   311  F     s     0.836492    0.428002    0.067300    0.000000
   312  F     s     0.531495    0.436850    0.412204    0.000000
--------------------------------------------------------------------------------

  Final Cartesian lattice vectors (Angstroms) :

       11.935503    0.001195   -0.023189
       -6.014090   10.421776    0.013587
       -0.439017   -0.154716   29.390857


  Final cell parameters and derivatives :

--------------------------------------------------------------------------------
       a           11.935525 Angstrom     dE/de1(xx)     0.000424 eV/strain
       b           12.032576 Angstrom     dE/de2(yy)     0.000696 eV/strain
       c           29.394542 Angstrom     dE/de3(zz)     0.001270 eV/strain
       alpha       89.768802 Degrees      dE/de4(yz)     0.000074 eV/strain
       beta        90.967110 Degrees      dE/de5(xz)    -0.000008 eV/strain
       gamma      119.982264 Degrees      dE/de6(xy)    -0.000004 eV/strain
--------------------------------------------------------------------------------

  Primitive cell volume =          3656.011846 Angs**3

  Density of cell =      1.750020 g/cm**3

  Non-primitive cell volume =          3656.011846 Angs**3


  Final internal derivatives :

--------------------------------------------------------------------------------
   No.  Atomic          a             b             c           Radius
        Label          (eV)          (eV)          (eV)        (eV/Angs)
--------------------------------------------------------------------------------
      1 Ge    c       0.000000      0.000000      0.000000      0.000000
      2 Si    c      -0.000098      0.000388      0.000471      0.000000
      3 Si    c      -0.000285     -0.000197      0.000382      0.000000
      4 Si    c      -0.000030      0.000096     -0.000290      0.000000
      5 Si    c       0.000495     -0.000073      0.000284      0.000000
      6 Si    c      -0.000351      0.000345      0.000558      0.000000
      7 Si    c      -0.000197      0.000560      0.000157      0.000000
      8 Si    c       0.000573     -0.000248     -0.000782      0.000000
      9 Si    c      -0.000373     -0.000166     -0.000345      0.000000
     10 Si    c       0.000028      0.000335      0.000123      0.000000
     11 Si    c      -0.000172      0.000126     -0.000492      0.000000
     12 Si    c       0.000923     -0.000253      0.002119      0.000000
     13 Si    c       0.000050     -0.000876      0.000044      0.000000
     14 Si    c       0.000241     -0.000117     -0.000288      0.000000
     15 Si    c      -0.000205     -0.000201     -0.000398      0.000000
     16 Si    c       0.000280     -0.000217     -0.000308      0.000000
     17 Si    c       0.000371     -0.000432      0.000059      0.000000
     18 Si    c       0.000138      0.000316      0.000730      0.000000
     19 Si    c       0.000370      0.000059      0.001070      0.000000
     20 Si    c       0.000872      0.000146      0.000729      0.000000
     21 Si    c       0.000160     -0.000367      0.000510      0.000000
     22 Si    c       0.000088     -0.000073      0.000199      0.000000
     23 Si    c       0.000216     -0.000098      0.000131      0.000000
     24 Si    c       0.000453     -0.000658      0.000422      0.000000
     25 Si    c      -0.000027      0.000367      0.000435      0.000000
     26 Si    c      -0.000508      0.000424      0.001179      0.000000
     27 Si    c      -0.000036     -0.000156      0.000162      0.000000
     28 Si    c       0.000333      0.000325      0.000586      0.000000
     29 Ge    c      -0.000149     -0.000105      0.000326      0.000000
     30 Si    c       0.001330      0.001607      0.003542      0.000000
     31 Si    c      -0.000068      0.000069     -0.000279      0.000000
     32 Si    c       0.000819     -0.000540     -0.001231      0.000000
     33 Si    c       0.000287     -0.000214      0.000105      0.000000
     34 Si    c      -0.000074     -0.000228     -0.001884      0.000000
     35 Si    c      -0.000359      0.000018     -0.000206      0.000000
     36 Si    c       0.000168     -0.000204     -0.000281      0.000000
     37 Si    c       0.000082      0.000023     -0.000556      0.000000
     38 Si    c      -0.000342      0.000536      0.000093      0.000000
     39 Si    c      -0.000293     -0.000301     -0.000011      0.000000
     40 Si    c       0.000048     -0.000059     -0.000285      0.000000
     41 Si    c      -0.000083      0.000099     -0.000140      0.000000
     42 Si    c      -0.000151      0.000403      0.000190      0.000000
     43 Si    c       0.000083      0.000317      0.000662      0.000000
     44 Si    c       0.001910     -0.000077      0.000047      0.000000
     45 Si    c       0.000167     -0.000323      0.000532      0.000000
     46 Si    c      -0.000030      0.000628     -0.000122      0.000000
     47 Si    c      -0.000022      0.000238      0.000287      0.000000
     48 Si    c       0.000836     -0.000543      0.000403      0.000000
     49 Si    c       0.000210      0.002519     -0.000166      0.000000
     50 Si    c       0.000285      0.000247      0.000712      0.000000
     51 Si    c      -0.000195     -0.000025      0.000004      0.000000
     52 Si    c       0.000017      0.000255      0.000003      0.000000
     53 Si    c       0.000233      0.000560     -0.000031      0.000000
     54 Si    c      -0.000462     -0.000047      0.002408      0.000000
     55 Si    c      -0.000064      0.000263      0.000599      0.000000
     56 Ge    c      -0.001667     -0.002379      0.000037      0.000000
     57 Si    c       0.000066      0.000209      0.000246      0.000000
     58 Si    c      -0.000493      0.000749     -0.002950      0.000000
     59 Si    c       0.000010      0.000117     -0.000454      0.000000
     60 Si    c       0.000600     -0.000757      0.000323      0.000000
     61 O3    c       0.001813     -0.003165      0.000008      0.000000
     62 O2    c       0.000068      0.000336      0.000001      0.000000
     63 O2    c       0.000269      0.000465      0.000255      0.000000
     64 O2    c      -0.000079      0.000041      0.000233      0.000000
     65 O2    c       0.000093      0.000413     -0.001121      0.000000
     66 O2    c       0.000663     -0.000165      0.000885      0.000000
     67 O2    c       0.000164      0.000217      0.000713      0.000000
     68 O2    c      -0.000173      0.000053      0.001018      0.000000
     69 O2    c       0.001090      0.000043      0.000583      0.000000
     70 O2    c       0.000138      0.000075     -0.000515      0.000000
     71 O2    c       0.000448     -0.000402      0.000716      0.000000
     72 O2    c       0.000017     -0.000200     -0.000170      0.000000
     73 O3    c       0.000847     -0.001021     -0.000135      0.000000
     74 O2    c      -0.000329     -0.000155     -0.000547      0.000000
     75 O2    c      -0.000059      0.000165     -0.000255      0.000000
     76 O2    c       0.000544      0.000135      0.000025      0.000000
     77 O2    c      -0.000213      0.000299      0.000418      0.000000
     78 O2    c       0.000485     -0.000209      0.000460      0.000000
     79 O2    c       0.000590      0.000700     -0.000307      0.000000
     80 O2    c       0.000213      0.000301      0.000133      0.000000
     81 O2    c      -0.000600     -0.000646      0.000292      0.000000
     82 O2    c       0.000045     -0.000080     -0.000132      0.000000
     83 O2    c       0.000186     -0.000018     -0.000319      0.000000
     84 O2    c      -0.000229      0.001256      0.001474      0.000000
     85 O2    c       0.000195      0.000225      0.000539      0.000000
     86 O3    c       0.002784     -0.001959     -0.001131      0.000000
     87 O2    c      -0.000429     -0.000256      0.000121      0.000000
     88 O2    c      -0.000325      0.000456      0.000314      0.000000
     89 O2    c       0.000254      0.000079     -0.000013      0.000000
     90 O2    c       0.001027     -0.000160     -0.000025      0.000000
     91 O2    c       0.000494      0.000625      0.002616      0.000000
     92 O2    c      -0.000087      0.000482     -0.001212      0.000000
     93 O2    c      -0.000264     -0.000294     -0.008416      0.000000
     94 O2    c       0.000350      0.000307      0.001163      0.000000
     95 O3    c       0.001032      0.001956      0.003399      0.000000
     96 O2    c      -0.000048     -0.000074      0.000288      0.000000
     97 O2    c      -0.002044      0.002917      0.000562      0.000000
     98 O2    c       0.000142      0.000472      0.000789      0.000000
     99 O3    c       0.000623     -0.000066      0.001154      0.000000
    100 O2    c       0.000066      0.000026     -0.000061      0.000000
    101 O2    c       0.000237      0.000239      0.000524      0.000000
    102 O2    c      -0.000811     -0.000127      0.001455      0.000000
    103 O2    c      -0.000179      0.000114     -0.000259      0.000000
    104 O3    c      -0.001404     -0.001230      0.000232      0.000000
    105 O2    c       0.000003      0.000418     -0.000615      0.000000
    106 O2    c      -0.000054      0.000133     -0.000642      0.000000
    107 O2    c       0.000060      0.000037     -0.000453      0.000000
    108 O2    c       0.000813     -0.001324     -0.000536      0.000000
    109 O2    c      -0.000240      0.000394      0.000314      0.000000
    110 O2    c      -0.000137      0.000307      0.000135      0.000000
    111 O2    c       0.000886     -0.000302      0.000480      0.000000
    112 O2    c      -0.000065     -0.000042      0.000404      0.000000
    113 O3    c       0.001033     -0.000631      0.004550      0.000000
    114 O2    c      -0.000344      0.000182     -0.000191      0.000000
    115 O2    c       0.000397     -0.000404      0.000133      0.000000
    116 O2    c      -0.000334      0.000109     -0.000479      0.000000
    117 O2    c      -0.000250     -0.000303     -0.000180      0.000000
    118 O2    c       0.000271     -0.000238     -0.000138      0.000000
    119 O2    c       0.000108     -0.000036     -0.000067      0.000000
    120 O2    c      -0.000144      0.000338     -0.000180      0.000000
    121 O2    c       0.000497      0.000327      0.000650      0.000000
    122 O2    c       0.001698      0.000135     -0.001025      0.000000
    123 O2    c       0.000100     -0.000255      0.000382      0.000000
    124 O2    c       0.000156      0.000133      0.000168      0.000000
    125 O2    c      -0.000200      0.000165      0.000070      0.000000
    126 O2    c       0.000615     -0.000426      0.000291      0.000000
    127 O3    c       0.001486     -0.000356     -0.001975      0.000000
    128 O2    c      -0.000220      0.000476      0.000706      0.000000
    129 O3    c      -0.000273     -0.000368      0.000397      0.000000
    130 O2    c       0.000308      0.000126      0.000260      0.000000
    131 O2    c       0.000270      0.000095      0.000579      0.000000
    132 O2    c      -0.000069      0.000080      0.000589      0.000000
    133 O2    c       0.000194      0.000300     -0.000375      0.000000
    134 O2    c       0.000555     -0.000348     -0.000251      0.000000
    135 O2    c      -0.000263      0.000066     -0.000022      0.000000
    136 O2    c       0.000116      0.000014      0.000025      0.000000
    137 O2    c      -0.000180      0.000178     -0.000364      0.000000
    138 O2    c       0.000542     -0.000475      0.000243      0.000000
    139 O3    c       0.000069      0.000864      0.000105      0.000000
    140 O2    c      -0.000066      0.000411      0.000483      0.000000
    141 O2    c       0.000028     -0.000399      0.000243      0.000000
    142 O2    c       0.000111      0.000336      0.000136      0.000000
    143 O2    c       0.000344      0.000031      0.000639      0.000000
    144 O2    c       0.000649     -0.000281      0.000635      0.000000
    145 O2    c      -0.000121      0.000512     -0.000097      0.000000
    146 O2    c       0.000331     -0.000244     -0.000287      0.000000
    147 O2    c      -0.000303      0.000037     -0.000217      0.000000
    148 O2    c       0.000048      0.000075     -0.000267      0.000000
    149 O2    c      -0.000214      0.000062     -0.000375      0.000000
    150 O2    c       0.000012      0.000088     -0.000468      0.000000
    151 O2    c      -0.000165      0.000159     -0.000012      0.000000
    152 O2    c      -0.000240      0.000474      0.001030      0.000000
    153 O2    c      -0.000111     -0.000041      0.000712      0.000000
    154 O2    c       0.000058      0.000039      0.000491      0.000000
    155 O3    c       0.000162     -0.000083      0.000253      0.000000
    156 O2    c       0.000181     -0.000140      0.000370      0.000000
    157 O2    c       0.000127      0.000191     -0.000063      0.000000
    158 O2    c       0.000789      0.001440      0.004059      0.000000
    159 O2    c       0.000072     -0.000287      0.000276      0.000000
    160 O2    c       0.000170      0.000101      0.000029      0.000000
    161 O2    c      -0.000256      0.000125      0.000309      0.000000
    162 O2    c       0.000457     -0.000396     -0.000804      0.000000
    163 O2    c       0.000301     -0.000510     -0.000370      0.000000
    164 O2    c       0.000096      0.000042     -0.000414      0.000000
    165 O2    c      -0.000830     -0.000170     -0.000232      0.000000
    166 O2    c       0.000223     -0.000099     -0.000486      0.000000
    167 O2    c       0.000309     -0.000287      0.000076      0.000000
    168 O2    c       0.001192     -0.000374     -0.000063      0.000000
    169 O2    c       0.000411      0.000152      0.000775      0.000000
    170 O2    c       0.001737      0.000107     -0.000893      0.000000
    171 O3    c       0.000012     -0.000465      0.000538      0.000000
    172 O2    c       0.000138      0.000119     -0.000227      0.000000
    173 O2    c      -0.000011     -0.000264     -0.000136      0.000000
    174 O2    c       0.000123      0.000132      0.000541      0.000000
    175 O2    c       0.000425     -0.000180     -0.000237      0.000000
    176 O2    c      -0.000146     -0.000372     -0.000008      0.000000
    177 O2    c       0.000026     -0.000492      0.000946      0.000000
    178 O2    c       0.000181     -0.000291      0.000370      0.000000
    179 O2    c       0.000576      0.000557      0.001555      0.000000
    180 O2    c       0.000492     -0.000021      0.000163      0.000000
    181 F     c       0.000115      0.000012      0.000143      0.000000
    182 F     c      -0.000334     -0.000034      0.000282      0.000000
    183 F     c       0.000088     -0.000000      0.000233      0.000000
    184 F     c      -0.000158     -0.000105     -0.000162      0.000000
    185 F     c      -0.001445      0.000541     -0.003982      0.000000
    186 F     c       0.000052      0.000103      0.000086      0.000000
    187 O3    s       0.004604     -0.004700      0.001420      0.000000
    188 O2    s       0.000021      0.000670     -0.000093      0.000000
    189 O2    s       0.000349      0.000311      0.000231      0.000000
    190 O2    s       0.000158     -0.000211      0.000119      0.000000
    191 O2    s       0.000618      0.000025     -0.001510      0.000000
    192 O2    s       0.000248     -0.000125      0.001349      0.000000
    193 O2    s       0.000570     -0.000054      0.000780      0.000000
    194 O2    s      -0.000377      0.000170      0.001333      0.000000
    195 O2    s       0.001083     -0.000158      0.001244      0.000000
    196 O2    s       0.000209     -0.000012     -0.000499      0.000000
    197 O2    s       0.000409      0.000331      0.001633      0.000000
    198 O2    s      -0.000213      0.000013     -0.000396      0.000000
    199 O3    s       0.000357     -0.000287     -0.000524      0.000000
    200 O2    s      -0.000315     -0.000198     -0.000698      0.000000
    201 O2    s      -0.000315      0.000450     -0.000019      0.000000
    202 O2    s       0.000762     -0.000168     -0.000414      0.000000
    203 O2    s       0.000777     -0.000838     -0.000209      0.000000
    204 O2    s       0.000157      0.000116      0.000561      0.000000
    205 O2    s       0.000671      0.001696     -0.001211      0.000000
    206 O2    s       0.000153      0.000226     -0.000445      0.000000
    207 O2    s      -0.000794     -0.000592      0.000325      0.000000
    208 O2    s       0.000255     -0.000187      0.000095      0.000000
    209 O2    s       0.000277      0.000036      0.000182      0.000000
    210 O2    s       0.000106      0.001323      0.001975      0.000000
    211 O2    s       0.000294      0.000109      0.000694      0.000000
    212 O3    s       0.001735     -0.002359     -0.000220      0.000000
    213 O2    s      -0.000333     -0.000210      0.000156      0.000000
    214 O2    s       0.000536     -0.000752     -0.000627      0.000000
    215 O2    s       0.000265      0.000156     -0.000023      0.000000
    216 O2    s       0.000568      0.000024      0.000282      0.000000
    217 O2    s       0.000179      0.001090      0.002094      0.000000
    218 O2    s      -0.000193      0.000642     -0.001282      0.000000
    219 O2    s       0.000142     -0.000163     -0.008305      0.000000
    220 O2    s       0.000863      0.000354      0.000594      0.000000
    221 O3    s       0.000239      0.000850      0.004194      0.000000
    222 O2    s       0.000079     -0.000005      0.000251      0.000000
    223 O2    s      -0.000475      0.003364      0.001664      0.000000
    224 O2    s       0.000093      0.000663      0.000758      0.000000
    225 O3    s       0.000655     -0.000509      0.001316      0.000000
    226 O2    s      -0.000225      0.000307      0.000258      0.000000
    227 O2    s       0.000700     -0.000119      0.001176      0.000000
    228 O2    s      -0.000277     -0.000623      0.003117      0.000000
    229 O2    s      -0.000269      0.000432     -0.000478      0.000000
    230 O3    s      -0.000603     -0.002470      0.000816      0.000000
    231 O2    s      -0.000107      0.000534     -0.000873      0.000000
    232 O2    s      -0.000466      0.000804     -0.001996      0.000000
    233 O2    s       0.000093     -0.000061     -0.000588      0.000000
    234 O2    s       0.000784     -0.000874     -0.001030      0.000000
    235 O2    s       0.000594     -0.000503     -0.000253      0.000000
    236 O2    s      -0.000244      0.000334      0.000054      0.000000
    237 O2    s       0.000654      0.000059      0.000512      0.000000
    238 O2    s       0.000212     -0.000522      0.000417      0.000000
    239 O3    s       0.000095      0.001141      0.004025      0.000000
    240 O2    s      -0.000145     -0.000060     -0.000339      0.000000
    241 O2    s       0.000598     -0.001005      0.000229      0.000000
    242 O2    s       0.000080     -0.000010      0.000103      0.000000
    243 O2    s      -0.000550     -0.000238     -0.000383      0.000000
    244 O2    s       0.000086     -0.000078      0.000036      0.000000
    245 O2    s       0.000272     -0.000155     -0.000318      0.000000
    246 O2    s       0.001000     -0.000374     -0.000748      0.000000
    247 O2    s       0.000285      0.000435      0.000688      0.000000
    248 O2    s       0.000808      0.000574     -0.000937      0.000000
    249 O2    s      -0.000360      0.000097      0.000843      0.000000
    250 O2    s       0.000447      0.000105      0.000766      0.000000
    251 O2    s      -0.000055      0.000065     -0.000280      0.000000
    252 O2    s       0.000187      0.000194      0.000699      0.000000
    253 O3    s       0.001856     -0.000480     -0.001025      0.000000
    254 O2    s       0.000209      0.000222      0.000505      0.000000
    255 O3    s       0.000034     -0.000943      0.000996      0.000000
    256 O2    s       0.000270      0.000102      0.000124      0.000000
    257 O2    s       0.000324      0.000061      0.000700      0.000000
    258 O2    s       0.000515     -0.000867      0.000656      0.000000
    259 O2    s       0.000157      0.000124      0.000552      0.000000
    260 O2    s       0.000320     -0.000534      0.000308      0.000000
    261 O2    s      -0.000676      0.000160     -0.000049      0.000000
    262 O2    s      -0.000065      0.000097     -0.000680      0.000000
    263 O2    s       0.000039     -0.000067     -0.000321      0.000000
    264 O2    s      -0.000163     -0.000281      0.000506      0.000000
    265 O3    s      -0.001226      0.001566     -0.001202      0.000000
    266 O2    s       0.000190      0.000220      0.000372      0.000000
    267 O2    s      -0.000338     -0.000235      0.001190      0.000000
    268 O2    s       0.000543      0.000205      0.000004      0.000000
    269 O2    s       0.000246     -0.000079      0.000375      0.000000
    270 O2    s       0.000410     -0.000044      0.000375      0.000000
    271 O2    s       0.000369      0.000010     -0.000231      0.000000
    272 O2    s       0.000352     -0.000128      0.000352      0.000000
    273 O2    s      -0.000472     -0.000097     -0.000197      0.000000
    274 O2    s       0.000367     -0.000228     -0.000191      0.000000
    275 O2    s       0.000117     -0.000116     -0.000145      0.000000
    276 O2    s       0.000634     -0.000134      0.000319      0.000000
    277 O2    s       0.000591     -0.000819      0.000026      0.000000
    278 O2    s       0.000587     -0.000282      0.000693      0.000000
    279 O2    s      -0.000614      0.000206      0.000385      0.000000
    280 O2    s       0.000162      0.000277      0.000229      0.000000
    281 O3    s       0.000676     -0.000654      0.000096      0.000000
    282 O2    s       0.001910     -0.000310      0.000470      0.000000
    283 O2    s       0.000115      0.000128      0.000038      0.000000
    284 O2    s       0.001228      0.002426      0.003133      0.000000
    285 O2    s      -0.000449      0.000258     -0.000241      0.000000
    286 O2    s       0.001177     -0.000796      0.000226      0.000000
    287 O2    s      -0.000113     -0.000059      0.000039      0.000000
    288 O2    s      -0.000173      0.000422     -0.000271      0.000000
    289 O2    s       0.000421     -0.000250     -0.000336      0.000000
    290 O2    s      -0.000328      0.000826      0.000094      0.000000
    291 O2    s      -0.000720     -0.000105      0.000005      0.000000
    292 O2    s      -0.000067      0.000046     -0.000363      0.000000
    293 O2    s      -0.000377      0.000503     -0.000503      0.000000
    294 O2    s       0.000617     -0.000295     -0.000776      0.000000
    295 O2    s       0.000084      0.000761      0.000600      0.000000
    296 O2    s       0.003161     -0.000479      0.000361      0.000000
    297 O3    s      -0.000037     -0.000357      0.001887      0.000000
    298 O2    s       0.000181     -0.000111      0.000455      0.000000
    299 O2    s      -0.000575      0.000152     -0.000062      0.000000
    300 O2    s       0.000223     -0.000007      0.000434      0.000000
    301 O2    s      -0.000043      0.000513      0.000075      0.000000
    302 O2    s      -0.000715      0.000016     -0.000273      0.000000
    303 O2    s      -0.000201     -0.000624      0.000571      0.000000
    304 O2    s      -0.000328      0.000240      0.000244      0.000000
    305 O2    s       0.001698     -0.000089      0.000803      0.000000
    306 O2    s       0.000413      0.000230      0.000017      0.000000
    307 F     s       0.000246     -0.000047      0.000181      0.000000
    308 F     s      -0.000443      0.000088      0.000639      0.000000
    309 F     s       0.000556     -0.000456      0.000421      0.000000
    310 F     s      -0.000132     -0.000232     -0.000156      0.000000
    311 F     s      -0.001943      0.000293     -0.006056      0.000000
    312 F     s       0.000027      0.000121      0.000139      0.000000
--------------------------------------------------------------------------------
  Maximum abs         0.004604      0.004700      0.008416      0.000000
--------------------------------------------------------------------------------


  Time to end of optimisation =      52.6673 seconds


  Peak dynamic memory used =      19.13 MB 


  Timing analysis for GULP :

--------------------------------------------------------------------------------
  Task / Subroutine                                          Time (Seconds)
--------------------------------------------------------------------------------
  Calculation of reciprocal space energy and derivatives          1.3929
  Calculation of real space energy and derivatives               45.8262
  Calculation of three-body energy and derivatives                4.6117
  Calculation of matrix inversion                                 0.7440
--------------------------------------------------------------------------------
  Total CPU time                                                 52.6674
--------------------------------------------------------------------------------


  Dump file written as out.res                                                 
  CIF file written as out.cif                                                 


  Job Finished at 19:24.30  6th November   2016                               

