********************************************************************************
*                       GENERAL UTILITY LATTICE PROGRAM                        *
*                                 Julian Gale                                  *
*                      Nanochemistry Research Institute                        *
*                           Department of Chemistry                            *
*                    Curtin University, Western Australia                      *
********************************************************************************
* Version = 4.2.0 * Last modified =  20th January 2014                         *
********************************************************************************
*  optimise     - perform optimisation run                                     *
*  conp         - constant pressure calculation                                *
*  qok          - running with non charge neutral cell is OK                   *
********************************************************************************

  Job Started  at 00:24.04  7th November   2016                               

  Number of CPUs =     1


  Total number of configurations input =   1

********************************************************************************
*  Input for Configuration =   1                                               *
********************************************************************************

  Formula = Ge3Si57O120F6                                               

  Number of irreducible atoms/shells =     312


  Total number atoms/shells =     312

  Dimensionality = 3               :  Bulk   


  Charge on solid   =  -6.000000 =>neutralising background added


  Cartesian lattice vectors (Angstroms) :

       11.935622    0.000000    0.000000
       -6.046306   10.381853    0.000000
        0.100102   -0.149356   29.484069

  Cell parameters (Angstroms/Degrees):

  a =      11.9356    alpha =  90.3487
  b =      12.0142    beta  =  89.8055
  c =      29.4846    gamma = 120.2162

  Initial cell volume =        3653.485272 Angs**3

  Temperature of configuration =  0.000     K 

  Pressure of configuration =         0.000 GPa 

  Fractional coordinates of asymmetric unit :

--------------------------------------------------------------------------------
   No.  Atomic       x           y          z         Charge      Occupancy
        Label      (Frac)      (Frac)     (Frac)        (e)         (Frac)  
--------------------------------------------------------------------------------
      1 Ge    c    0.699600    0.375700    0.033890     4.00000    1.000000    
      2 Si    c    0.622210 *  0.323371 *  0.366788 *   4.00000    1.000000    
      3 Si    c    0.675843 *  0.301335 *  0.699695 *   4.00000    1.000000    
      4 Si    c    0.295542 *  0.621967 *  0.531184 *   4.00000    1.000000    
      5 Si    c    0.383109 *  0.671273 *  0.864917 *   4.00000    1.000000    
      6 Si    c    0.323723 *  0.702483 *  0.199204 *   4.00000    1.000000    
      7 Si    c    0.377306 *  0.698993 *  0.299699 *   4.00000    1.000000    
      8 Si    c    0.327689 *  0.625365 *  0.965019 *   4.00000    1.000000    
      9 Si    c    0.296005 *  0.677012 *  0.631692 *   4.00000    1.000000    
     10 Si    c    0.626285 *  0.303149 *  0.802607 *   4.00000    1.000000    
     11 Si    c    0.675195 *  0.380512 *  0.467288 *   4.00000    1.000000    
     12 Si    c    0.696699 *  0.317357 *  0.134773 *   4.00000    1.000000    
     13 Si    c    0.527646 *  0.418207 *  0.968233 *   4.00000    1.000000    
     14 Si    c    0.584728 *  0.110363 *  0.303393 *   4.00000    1.000000    
     15 Si    c    0.887444 *  0.471334 *  0.633925 *   4.00000    1.000000    
     16 Si    c    0.467245 *  0.582962 *  0.465967 *   4.00000    1.000000    
     17 Si    c    0.411476 *  0.878451 *  0.800708 *   4.00000    1.000000    
     18 Si    c    0.116345 *  0.530762 *  0.131859 *   4.00000    1.000000    
     19 Si    c    0.416256 *  0.527918 *  0.364317 *   4.00000    1.000000    
     20 Si    c    0.116588 *  0.587089 *  0.028728 *   4.00000    1.000000    
     21 Si    c    0.466646 *  0.886938 *  0.697057 *   4.00000    1.000000    
     22 Si    c    0.589285 *  0.471901 *  0.867102 *   4.00000    1.000000    
     23 Si    c    0.885156 *  0.418650 *  0.532346 *   4.00000    1.000000    
     24 Si    c    0.532514 *  0.111181 *  0.202093 *   4.00000    1.000000    
     25 Si    c    0.305563 *  0.394061 *  0.850087 *   4.00000    1.000000    
     26 Si    c    0.604256 *  0.904042 *  0.185598 *   4.00000    1.000000    
     27 Si    c    0.094121 *  0.699219 *  0.517261 *   4.00000    1.000000    
     28 Si    c    0.698568 *  0.599785 *  0.350994 *   4.00000    1.000000    
     29 Si    c    0.393870 *  0.098559 *  0.681186 *   4.00000    1.000000    
     30 Ge    c    0.899438 *  0.302433 *  0.016730 *   4.00000    1.000000    
     31 Si    c    0.395532 *  0.303427 *  0.481037 *   4.00000    1.000000    
     32 Si    c    0.902265 *  0.601220 *  0.146652 *   4.00000    1.000000    
     33 Si    c    0.698196 *  0.093784 *  0.815867 *   4.00000    1.000000    
     34 Si    c    0.605219 *  0.700766 *  0.981077 *   4.00000    1.000000    
     35 Si    c    0.096216 *  0.398587 *  0.647177 *   4.00000    1.000000    
     36 Si    c    0.302205 *  0.900418 *  0.315870 *   4.00000    1.000000    
     37 Si    c    0.249189 *  0.343013 *  0.950783 *   4.00000    1.000000    
     38 Si    c    0.660535 *  0.909071 *  0.286288 *   4.00000    1.000000    
     39 Si    c    0.087663 *  0.750343 *  0.618074 *   4.00000    1.000000    
     40 Si    c    0.747065 *  0.659843 *  0.451538 *   4.00000    1.000000    
     41 Ge    c    0.357871 *  0.088905 *  0.781128 *   4.00000    1.000000    
     42 Si    c    0.911962 *  0.247130 *  0.117841 *   4.00000    1.000000    
     43 Si    c    0.339458 *  0.250393 *  0.380340 *   4.00000    1.000000    
     44 Si    c    0.909807 *  0.662580 *  0.044530 *   4.00000    1.000000    
     45 Si    c    0.749131 *  0.088751 *  0.713563 *   4.00000    1.000000    
     46 Si    c    0.665522 *  0.749923 *  0.880676 *   4.00000    1.000000    
     47 Si    c    0.086561 *  0.340923 *  0.546311 *   4.00000    1.000000    
     48 Si    c    0.251826 *  0.910083 *  0.215557 *   4.00000    1.000000    
     49 Si    c    0.969888 *  0.120652 *  0.965149 *   4.00000    1.000000    
     50 Si    c    0.878131 *  0.846494 *  0.300045 *   4.00000    1.000000    
     51 Si    c    0.148568 *  0.029575 *  0.631011 *   4.00000    1.000000    
     52 Si    c    0.027060 *  0.878474 *  0.466169 *   4.00000    1.000000    
     53 Si    c    0.128628 *  0.145368 *  0.798041 *   4.00000    1.000000    
     54 Si    c    0.851688 *  0.971560 *  0.133943 *   4.00000    1.000000    
     55 Si    c    0.121747 *  0.969367 *  0.365356 *   4.00000    1.000000    
     56 Si    c    0.853734 *  0.883192 *  0.032018 *   4.00000    1.000000    
     57 Si    c    0.031782 *  0.152905 *  0.698079 *   4.00000    1.000000    
     58 Si    c    0.883768 *  0.027742 *  0.863995 *   4.00000    1.000000    
     59 Si    c    0.146286 *  0.122492 *  0.530974 *   4.00000    1.000000    
     60 Si    c    0.971725 *  0.848652 *  0.198745 *   4.00000    1.000000    
     61 O2    c    0.932805 *  0.002233 *  0.999003 *   0.87073    1.000000    
     62 O2    c    0.002248 *  0.928041 *  0.331593 *   0.87073    1.000000    
     63 O2    c    0.071342 *  0.073671 *  0.664122 *   0.87073    1.000000    
     64 O2    c    0.068993 *  0.002491 *  0.497401 *   0.87073    1.000000    
     65 O2    c    0.001113 *  0.071019 *  0.829591 *   0.87073    1.000000    
     66 O2    c    0.931636 *  0.927627 *  0.165575 *   0.87073    1.000000    
     67 O2    c    0.339230 *  0.575240 *  0.331562 *   0.87073    1.000000    
     68 O2    c    0.420193 *  0.763026 *  0.664098 *   0.87073    1.000000    
     69 O2    c    0.245976 *  0.668115 *  0.998146 *   0.87073    1.000000    
     70 O2    c    0.673090 *  0.427856 *  0.835648 *   0.87073    1.000000    
     71 O2    c    0.583291 *  0.238911 *  0.171650 *   0.87073    1.000000    
     72 O2    c    0.758380 *  0.341822 *  0.500280 *   0.87073    1.000000    
     73 O3    c    0.563059 *  0.338478 *  0.001758 *   1.33043    1.000000    
     74 O2    c    0.763165 *  0.423102 *  0.667284 *   0.87073    1.000000    
     75 O2    c    0.661592 *  0.236418 *  0.335594 *   0.87073    1.000000    
     76 O2    c    0.418410 *  0.660353 *  0.498040 *   0.87073    1.000000    
     77 O2    c    0.240654 *  0.581697 *  0.164965 *   0.87073    1.000000    
     78 O2    c    0.342191 *  0.749522 *  0.830692 *   0.87073    1.000000    
     79 O2    c    0.123696 *  0.219359 *  0.972120 *   0.87073    1.000000    
     80 O2    c    0.786578 *  0.908664 *  0.306444 *   0.87073    1.000000    
     81 O2    c    0.085750 *  0.875744 *  0.637711 *   0.87073    1.000000    
     82 O2    c    0.872458 *  0.786962 *  0.471967 *   0.87073    1.000000    
     83 O3    c    0.212784 *  0.080639 *  0.802540 *   1.33043    1.000000    
     84 O2    c    0.913427 *  0.125016 *  0.141163 *   0.87073    1.000000    
     85 O2    c    0.213257 *  0.123339 *  0.360188 *   0.87073    1.000000    
     86 O2    c    0.921970 *  0.796853 *  0.028202 *   0.87073    1.000000    
     87 O2    c    0.875886 *  0.091612 *  0.692980 *   0.87073    1.000000    
     88 O2    c    0.790997 *  0.873708 *  0.859053 *   0.87073    1.000000    
     89 O2    c    0.084031 *  0.214044 *  0.525717 *   0.87073    1.000000    
     90 O2    c    0.126907 *  0.912337 *  0.195148 *   0.87073    1.000000    
     91 O2    c    0.926947 *  0.858367 *  0.248890 *   0.87073    1.000000    
     92 O2    c    0.128018 *  0.065100 *  0.580772 *   0.87073    1.000000    
     93 O2    c    0.939421 *  0.064865 *  0.914281 *   0.87073    1.000000    
     94 O2    c    0.071314 *  0.139737 *  0.747990 *   0.87073    1.000000    
     95 O2    c    0.863709 *  0.935463 *  0.082872 *   0.87073    1.000000    
     96 O2    c    0.065433 *  0.928563 *  0.415384 *   0.87073    1.000000    
     97 O3    c    0.895075 *  0.194159 *  0.975462 *   1.33043    1.000000    
     98 O2    c    0.797466 *  0.695450 *  0.312491 *   0.87073    1.000000    
     99 O2    c    0.302964 *  0.097979 *  0.639575 *   0.87073    1.000000    
    100 O2    c    0.096791 *  0.797451 *  0.479029 *   0.87073    1.000000    
    101 O2    c    0.212705 *  0.297898 *  0.810861 *   0.87073    1.000000    
    102 O2    c    0.699586 *  0.900938 *  0.146936 *   0.87073    1.000000    
    103 O2    c    0.203931 *  0.899279 *  0.354321 *   0.87073    1.000000    
    104 O2    c    0.701534 *  0.797858 *  0.020091 *   0.87073    1.000000    
    105 O2    c    0.099750 *  0.303885 *  0.685345 *   0.87073    1.000000    
    106 O2    c    0.797370 *  0.094684 *  0.853220 *   0.87073    1.000000    
    107 O2    c    0.299114 *  0.206349 *  0.519641 *   0.87073    1.000000    
    108 O2    c    0.904023 *  0.697766 *  0.185557 *   0.87073    1.000000    
    109 O2    c    0.321120 *  0.642933 *  0.249062 *   0.87073    1.000000    
    110 O2    c    0.354107 *  0.678424 *  0.581407 *   0.87073    1.000000    
    111 O2    c    0.325504 *  0.678817 *  0.914514 *   0.87073    1.000000    
    112 O2    c    0.676593 *  0.353607 *  0.750676 *   0.87073    1.000000    
    113 O3    c    0.630007 *  0.310217 *  0.087359 *   1.33043    1.000000    
    114 O2    c    0.677968 *  0.324022 *  0.417165 *   0.87073    1.000000    
    115 O2    c    0.370533 *  0.333476 *  0.969315 *   0.87073    1.000000    
    116 O2    c    0.671448 *  0.040826 *  0.305673 *   0.87073    1.000000    
    117 O2    c    0.956130 *  0.627170 *  0.637048 *   0.87073    1.000000    
    118 O2    c    0.624127 *  0.670547 *  0.469156 *   0.87073    1.000000    
    119 O3    c    0.321490 *  0.940083 *  0.805646 *   1.33043    1.000000    
    120 O2    c    0.044890 *  0.375337 *  0.133783 *   0.87073    1.000000    
    121 O2    c    0.329284 *  0.371631 *  0.361457 *   0.87073    1.000000    
    122 O2    c    0.043529 *  0.670137 *  0.027927 *   0.87073    1.000000    
    123 O2    c    0.623882 *  0.958822 *  0.695318 *   0.87073    1.000000    
    124 O2    c    0.676346 *  0.627567 *  0.863620 *   0.87073    1.000000    
    125 O2    c    0.953213 *  0.330948 *  0.528792 *   0.87073    1.000000    
    126 O2    c    0.375669 *  0.042258 *  0.197914 *   0.87073    1.000000    
    127 O1    c    0.753103 *  0.287786 *  0.003597 *   1.73396    1.000000    
    128 O2    c    0.697832 *  0.465489 *  0.343776 *   0.87073    1.000000    
    129 O2    c    0.532492 *  0.232516 *  0.677170 *   0.87073    1.000000    
    130 O2    c    0.227569 *  0.697405 *  0.509432 *   0.87073    1.000000    
    131 O2    c    0.307664 *  0.528515 *  0.842403 *   0.87073    1.000000    
    132 O2    c    0.468101 *  0.771607 *  0.177411 *   0.87073    1.000000    
    133 O2    c    0.301438 *  0.766178 *  0.322429 *   0.87073    1.000000    
    134 O2    c    0.470854 *  0.701424 *  0.988065 *   0.87073    1.000000    
    135 O2    c    0.229215 *  0.534700 *  0.654283 *   0.87073    1.000000    
    136 O2    c    0.697990 *  0.227639 *  0.821653 *   0.87073    1.000000    
    137 O2    c    0.530534 *  0.305369 *  0.489022 *   0.87073    1.000000    
    138 O2    c    0.770760 *  0.465596 *  0.153461 *   0.87073    1.000000    
    139 O3    c    0.782894 *  0.545137 *  0.024432 *   1.33043    1.000000    
    140 O2    c    0.465536 *  0.248868 *  0.361250 *   0.87073    1.000000    
    141 O2    c    0.740533 *  0.211316 *  0.696890 *   0.87073    1.000000    
    142 O2    c    0.212835 *  0.466066 *  0.526314 *   0.87073    1.000000    
    143 O2    c    0.540214 *  0.750135 *  0.860346 *   0.87073    1.000000    
    144 O2    c    0.247980 *  0.782752 *  0.195367 *   0.87073    1.000000    
    145 O2    c    0.533891 *  0.781888 *  0.304849 *   0.87073    1.000000    
    146 O2    c    0.249311 *  0.469589 *  0.969904 *   0.87073    1.000000    
    147 O2    c    0.215132 *  0.752144 *  0.637152 *   0.87073    1.000000    
    148 O3    c    0.472848 *  0.230595 *  0.809363 *   1.33043    1.000000    
    149 O2    c    0.748762 *  0.536346 *  0.471852 *   0.87073    1.000000    
    150 O2    c    0.787541 *  0.252267 *  0.136878 *   0.87073    1.000000    
    151 O2    c    0.231281 *  0.323191 *  0.896455 *   0.87073    1.000000    
    152 O2    c    0.678432 *  0.908194 *  0.231991 *   0.87073    1.000000    
    153 O2    c    0.089386 *  0.768659 *  0.563778 *   0.87073    1.000000    
    154 O2    c    0.768758 *  0.675860 *  0.397274 *   0.87073    1.000000    
    155 O3    c    0.311050 *  0.093794 *  0.724133 *   1.33043    1.000000    
    156 O3    c    0.909460 *  0.222320 *  0.064931 *   1.33043    1.000000    
    157 O2    c    0.321108 *  0.232345 *  0.434613 *   0.87073    1.000000    
    158 O2    c    0.904602 *  0.668203 *  0.099586 *   0.87073    1.000000    
    159 O2    c    0.760125 *  0.088134 *  0.767710 *   0.87073    1.000000    
    160 O2    c    0.682496 *  0.771526 *  0.935029 *   0.87073    1.000000    
    161 O2    c    0.091239 *  0.324555 *  0.600487 *   0.87073    1.000000    
    162 O2    c    0.231831 *  0.906838 *  0.269841 *   0.87073    1.000000    
    163 O2    c    0.587930 *  0.561370 *  0.990621 *   0.87073    1.000000    
    164 O2    c    0.442392 *  0.024684 *  0.325945 *   0.87073    1.000000    
    165 O2    c    0.969434 *  0.411215 *  0.656248 *   0.87073    1.000000    
    166 O2    c    0.409382 *  0.442602 *  0.489273 *   0.87073    1.000000    
    167 O2    c    0.555653 *  0.971431 *  0.822378 *   0.87073    1.000000    
    168 O2    c    0.025211 *  0.581968 *  0.152593 *   0.87073    1.000000    
    169 O2    c    0.558810 *  0.585603 *  0.341631 *   0.87073    1.000000    
    170 O3    c    0.036826 *  0.449594 *  0.004816 *   1.33043    1.000000    
    171 O2    c    0.414347 *  0.975413 *  0.674964 *   0.87073    1.000000    
    172 O2    c    0.448137 *  0.412543 *  0.843548 *   0.87073    1.000000    
    173 O2    c    0.968310 *  0.559196 *  0.508903 *   0.87073    1.000000    
    174 O2    c    0.591537 *  0.030046 *  0.177767 *   0.87073    1.000000    
    175 O2    c    0.584867 *  0.163451 *  0.252921 *   0.87073    1.000000    
    176 O2    c    0.831913 *  0.418216 *  0.583274 *   0.87073    1.000000    
    177 O2    c    0.586302 *  0.419838 *  0.917958 *   0.87073    1.000000    
    178 O2    c    0.415719 *  0.836443 *  0.747844 *   0.87073    1.000000    
    179 O2    c    0.161231 *  0.579960 *  0.080590 *   0.87073    1.000000    
    180 O2    c    0.414935 *  0.581721 *  0.414964 *   0.87073    1.000000    
    181 F     c    0.451575 *  0.902593 *  0.250555 *   0.56000    1.000000    
    182 F     c    0.094114 *  0.548614 *  0.582551 *   0.56000    1.000000    
    183 F     c    0.454735 *  0.553230 *  0.916122 *   0.56000    1.000000    
    184 F     c    0.509279 *  0.093440 *  0.754016 *   0.56000    1.000000    
    185 F     c    0.877052 *  0.427074 *  0.069824 *   0.56000    1.000000    
    186 F     c    0.547524 *  0.452379 *  0.415683 *   0.56000    1.000000    
    187 O2    s    0.927768 *  0.001379 *  0.999133 *  -2.87073    1.000000    
    188 O2    s    0.001640 *  0.923469 *  0.331817 *  -2.87073    1.000000    
    189 O2    s    0.075564 *  0.077541 *  0.664179 *  -2.87073    1.000000    
    190 O2    s    0.072931 *  0.001966 *  0.497643 *  -2.87073    1.000000    
    191 O2    s    0.001050 *  0.073924 *  0.830215 *  -2.87073    1.000000    
    192 O2    s    0.927356 *  0.923609 *  0.165820 *  -2.87073    1.000000    
    193 O2    s    0.350995 *  0.583119 *  0.331625 *  -2.87073    1.000000    
    194 O2    s    0.412272 *  0.767078 *  0.664183 *  -2.87073    1.000000    
    195 O2    s    0.240821 *  0.655559 *  0.997991 *  -2.87073    1.000000    
    196 O2    s    0.660132 *  0.419648 *  0.835425 *  -2.87073    1.000000    
    197 O2    s    0.589703 *  0.233544 *  0.171037 *  -2.87073    1.000000    
    198 O2    s    0.762854 *  0.353783 *  0.500177 *  -2.87073    1.000000    
    199 O3    s    0.569896 *  0.349703 *  0.000749 *  -3.33043    1.000000    
    200 O2    s    0.766764 *  0.415287 *  0.667280 *  -2.87073    1.000000    
    201 O2    s    0.649612 *  0.232269 *  0.335474 *  -2.87073    1.000000    
    202 O2    s    0.410787 *  0.648404 *  0.498150 *  -2.87073    1.000000    
    203 O2    s    0.236050 *  0.588601 *  0.164985 *  -2.87073    1.000000    
    204 O2    s    0.353948 *  0.755225 *  0.831046 *  -2.87073    1.000000    
    205 O2    s    0.120940 *  0.222142 *  0.969178 *  -2.87073    1.000000    
    206 O2    s    0.783207 *  0.902076 *  0.303694 *  -2.87073    1.000000    
    207 O2    s    0.092495 *  0.878754 *  0.634994 *  -2.87073    1.000000    
    208 O2    s    0.875942 *  0.783527 *  0.469252 *  -2.87073    1.000000    
    209 O3    s    0.212864 *  0.088540 *  0.800641 *  -3.33043    1.000000    
    210 O2    s    0.906832 *  0.121196 *  0.138121 *  -2.87073    1.000000    
    211 O2    s    0.216606 *  0.120138 *  0.362801 *  -2.87073    1.000000    
    212 O2    s    0.913421 *  0.792110 *  0.030290 *  -2.87073    1.000000    
    213 O2    s    0.878218 *  0.097568 *  0.695677 *  -2.87073    1.000000    
    214 O2    s    0.787745 *  0.877140 *  0.861801 *  -2.87073    1.000000    
    215 O2    s    0.090860 *  0.217450 *  0.528372 *  -2.87073    1.000000    
    216 O2    s    0.123240 *  0.905278 *  0.197623 *  -2.87073    1.000000    
    217 O2    s    0.926536 *  0.855923 *  0.248960 *  -2.87073    1.000000    
    218 O2    s    0.132398 *  0.067648 *  0.580731 *  -2.87073    1.000000    
    219 O2    s    0.936441 *  0.066738 *  0.914135 *  -2.87073    1.000000    
    220 O2    s    0.072685 *  0.141897 *  0.747354 *  -2.87073    1.000000    
    221 O2    s    0.861268 *  0.933871 *  0.083140 *  -2.87073    1.000000    
    222 O2    s    0.067505 *  0.927542 *  0.415434 *  -2.87073    1.000000    
    223 O3    s    0.903594 *  0.194085 *  0.977353 *  -3.33043    1.000000    
    224 O2    s    0.795967 *  0.701747 *  0.315090 *  -2.87073    1.000000    
    225 O2    s    0.295747 *  0.090883 *  0.642714 *  -2.87073    1.000000    
    226 O2    s    0.089123 *  0.796008 *  0.481566 *  -2.87073    1.000000    
    227 O2    s    0.214037 *  0.292694 *  0.813697 *  -2.87073    1.000000    
    228 O2    s    0.705771 *  0.908701 *  0.149572 *  -2.87073    1.000000    
    229 O2    s    0.205293 *  0.906829 *  0.351541 *  -2.87073    1.000000    
    230 O2    s    0.707979 *  0.797132 *  0.017411 *  -2.87073    1.000000    
    231 O2    s    0.092240 *  0.297849 *  0.682713 *  -2.87073    1.000000    
    232 O2    s    0.795637 *  0.087803 *  0.850375 *  -2.87073    1.000000    
    233 O2    s    0.292788 *  0.207430 *  0.516882 *  -2.87073    1.000000    
    234 O2    s    0.910984 *  0.703622 *  0.182890 *  -2.87073    1.000000    
    235 O2    s    0.327031 *  0.654618 *  0.249100 *  -2.87073    1.000000    
    236 O2    s    0.342180 *  0.672494 *  0.581407 *  -2.87073    1.000000    
    237 O2    s    0.331535 *  0.672602 *  0.914693 *  -2.87073    1.000000    
    238 O2    s    0.671595 *  0.343260 *  0.750416 *  -2.87073    1.000000    
    239 O3    s    0.641831 *  0.315608 *  0.088367 *  -3.33043    1.000000    
    240 O2    s    0.671952 *  0.329777 *  0.417127 *  -2.87073    1.000000    
    241 O2    s    0.373562 *  0.343379 *  0.967143 *  -2.87073    1.000000    
    242 O2    s    0.661386 *  0.034222 *  0.303410 *  -2.87073    1.000000    
    243 O2    s    0.962752 *  0.623893 *  0.634735 *  -2.87073    1.000000    
    244 O2    s    0.620817 *  0.660345 *  0.466956 *  -2.87073    1.000000    
    245 O3    s    0.333427 *  0.944445 *  0.803358 *  -3.33043    1.000000    
    246 O2    s    0.038835 *  0.378588 *  0.131954 *  -2.87073    1.000000    
    247 O2    s    0.339260 *  0.375044 *  0.363725 *  -2.87073    1.000000    
    248 O2    s    0.037353 *  0.660706 *  0.029725 *  -2.87073    1.000000    
    249 O2    s    0.621056 *  0.965248 *  0.697432 *  -2.87073    1.000000    
    250 O2    s    0.666153 *  0.624415 *  0.865806 *  -2.87073    1.000000    
    251 O2    s    0.960163 *  0.341065 *  0.531011 *  -2.87073    1.000000    
    252 O2    s    0.378697 *  0.035330 *  0.200223 *  -2.87073    1.000000    
    253 O1    s    0.760486 *  0.295379 *  0.006887 *  -3.73396    1.000000    
    254 O2    s    0.690163 *  0.464973 *  0.346919 *  -2.87073    1.000000    
    255 O2    s    0.533360 *  0.226127 *  0.679949 *  -2.87073    1.000000    
    256 O2    s    0.220506 *  0.689817 *  0.512530 *  -2.87073    1.000000    
    257 O2    s    0.315332 *  0.529272 *  0.845594 *  -2.87073    1.000000    
    258 O2    s    0.467344 *  0.778313 *  0.180580 *  -2.87073    1.000000    
    259 O2    s    0.309286 *  0.773347 *  0.319373 *  -2.87073    1.000000    
    260 O2    s    0.470296 *  0.693572 *  0.984934 *  -2.87073    1.000000    
    261 O2    s    0.222088 *  0.535050 *  0.651163 *  -2.87073    1.000000    
    262 O2    s    0.690768 *  0.221099 *  0.819094 *  -2.87073    1.000000    
    263 O2    s    0.531207 *  0.312955 *  0.485893 *  -2.87073    1.000000    
    264 O2    s    0.777583 *  0.465439 *  0.150833 *  -2.87073    1.000000    
    265 O3    s    0.790903 *  0.545878 *  0.027237 *  -3.33043    1.000000    
    266 O2    s    0.468244 *  0.256883 *  0.363855 *  -2.87073    1.000000    
    267 O2    s    0.734539 *  0.207398 *  0.698998 *  -2.87073    1.000000    
    268 O2    s    0.207695 *  0.468779 *  0.528953 *  -2.87073    1.000000    
    269 O2    s    0.537421 *  0.741864 *  0.862989 *  -2.87073    1.000000    
    270 O2    s    0.256332 *  0.788030 *  0.197901 *  -2.87073    1.000000    
    271 O2    s    0.531217 *  0.787095 *  0.302318 *  -2.87073    1.000000    
    272 O2    s    0.257557 *  0.472389 *  0.967391 *  -2.87073    1.000000    
    273 O2    s    0.209654 *  0.744090 *  0.634562 *  -2.87073    1.000000    
    274 O3    s    0.479868 *  0.227241 *  0.806602 *  -3.33043    1.000000    
    275 O2    s    0.740782 *  0.533431 *  0.469201 *  -2.87073    1.000000    
    276 O2    s    0.791528 *  0.258527 *  0.134620 *  -2.87073    1.000000    
    277 O2    s    0.240883 *  0.332665 *  0.897350 *  -2.87073    1.000000    
    278 O2    s    0.668741 *  0.907854 *  0.232890 *  -2.87073    1.000000    
    279 O2    s    0.089688 *  0.759368 *  0.564607 *  -2.87073    1.000000    
    280 O2    s    0.759100 *  0.666179 *  0.398147 *  -2.87073    1.000000    
    281 O3    s    0.322864 *  0.093959 *  0.723644 *  -3.33043    1.000000    
    282 O3    s    0.908948 *  0.230869 *  0.066892 *  -3.33043    1.000000    
    283 O2    s    0.330836 *  0.241704 *  0.433713 *  -2.87073    1.000000    
    284 O2    s    0.904832 *  0.660214 *  0.099181 *  -2.87073    1.000000    
    285 O2    s    0.752378 *  0.088784 *  0.766832 *  -2.87073    1.000000    
    286 O2    s    0.672741 *  0.761973 *  0.934103 *  -2.87073    1.000000    
    287 O2    s    0.091274 *  0.334064 *  0.599616 *  -2.87073    1.000000    
    288 O2    s    0.241278 *  0.906507 *  0.268864 *  -2.87073    1.000000    
    289 O2    s    0.583504 *  0.562064 *  0.987291 *  -2.87073    1.000000    
    290 O2    s    0.442222 *  0.020104 *  0.322491 *  -2.87073    1.000000    
    291 O2    s    0.974526 *  0.416260 *  0.652954 *  -2.87073    1.000000    
    292 O2    s    0.414103 *  0.442265 *  0.485942 *  -2.87073    1.000000    
    293 O2    s    0.556975 *  0.975812 *  0.819498 *  -2.87073    1.000000    
    294 O2    s    0.021449 *  0.578489 *  0.149732 *  -2.87073    1.000000    
    295 O2    s    0.558925 *  0.580912 *  0.345007 *  -2.87073    1.000000    
    296 O3    s    0.033810 *  0.451951 *  0.008202 *  -3.33043    1.000000    
    297 O2    s    0.417876 *  0.978994 *  0.677948 *  -2.87073    1.000000    
    298 O2    s    0.447734 *  0.417070 *  0.846743 *  -2.87073    1.000000    
    299 O2    s    0.973384 *  0.559674 *  0.512242 *  -2.87073    1.000000    
    300 O2    s    0.586635 *  0.024764 *  0.181124 *  -2.87073    1.000000    
    301 O2    s    0.579319 *  0.152334 *  0.252891 *  -2.87073    1.000000    
    302 O2    s    0.843164 *  0.423776 *  0.583277 *  -2.87073    1.000000    
    303 O2    s    0.580768 *  0.425170 *  0.917713 *  -2.87073    1.000000    
    304 O2    s    0.420722 *  0.845978 *  0.747614 *  -2.87073    1.000000    
    305 O2    s    0.151999 *  0.575389 *  0.080925 *  -2.87073    1.000000    
    306 O2    s    0.420463 *  0.576258 *  0.414994 *  -2.87073    1.000000    
    307 F     s    0.451239 *  0.902226 *  0.250515 *  -1.56000    1.000000    
    308 F     s    0.094486 *  0.548800 *  0.582584 *  -1.56000    1.000000    
    309 F     s    0.454499 *  0.554029 *  0.916123 *  -1.56000    1.000000    
    310 F     s    0.501008 *  0.093474 *  0.755394 *  -1.56000    1.000000    
    311 F     s    0.872429 *  0.423213 *  0.067934 *  -1.56000    1.000000    
    312 F     s    0.547792 *  0.452234 *  0.415649 *  -1.56000    1.000000    
--------------------------------------------------------------------------------



********************************************************************************
*  General input information                                                   *
********************************************************************************

  Species output for all configurations : 

--------------------------------------------------------------------------------
  Species    Type    Atomic    Atomic    Charge       Radii (Angs)     Library
                     Number     Mass       (e)     Cova   Ionic  VDW   Symbol
--------------------------------------------------------------------------------
    Si       Core       14      28.09   4.000000   1.200  0.000  2.100          
    O1       Core        8      16.00   1.733957   0.730  0.000  1.360          
    O1       Shell       8       0.00  -3.733957   0.730  0.000  1.360          
    O2       Core        8      16.00   0.870733   0.730  0.000  1.360          
    O2       Shell       8       0.00  -2.870733   0.730  0.000  1.360          
    O3       Core        8      16.00   1.330431   0.730  0.000  1.360          
    O3       Shell       8       0.00  -3.330431   0.730  0.000  1.360          
    F        Core        9      19.00   0.560000   0.710  0.000  1.300          
    F        Shell       9       0.00  -1.560000   0.710  0.000  1.300          
    Ge       Core       32      72.61   4.000000   1.170  0.000  1.750          
--------------------------------------------------------------------------------


  Lattice summation method               =    Ewald          (3-D)
                                         =    Parry          (2-D)
                                         =    Saunders et al (1-D)
  Accuracy factor for lattice sums       =   12.000


  Time limit = Infinity

  Maximum range for interatomic potentials =        16.000000 Angstroms

  Taper potentials to zero over   1.0000 Angstroms using polynomial

  General interatomic potentials :

--------------------------------------------------------------------------------
Atom  Types   Potential         A         B         C         D     Cutoffs(Ang)
  1     2                                                            Min    Max 
--------------------------------------------------------------------------------
Si   c O1   s Buckingham    0.132E+04 0.318      10.1      0.00     0.000 16.000
Si   c O2   s Buckingham    0.132E+04 0.318      10.1      0.00     0.000 16.000
Si   c O3   s Buckingham    0.132E+04 0.318      10.1      0.00     0.000 16.000
Ge   c O1   s Buckingham    0.150E+04 0.326      16.8      0.00     0.000 16.000
Ge   c O2   s Buckingham    0.150E+04 0.326      16.8      0.00     0.000 16.000
Ge   c O3   s Buckingham    0.150E+04 0.326      16.8      0.00     0.000 16.000
O1   s O1   s Buckingham    0.228E+05 0.149      10.9      0.00     0.000 16.000
O1   s O2   s Buckingham    0.228E+05 0.149      10.9      0.00     0.000 16.000
O1   s O3   s Buckingham    0.228E+05 0.149      10.9      0.00     0.000 16.000
O2   s O2   s Buckingham    0.228E+05 0.149      10.9      0.00     0.000 16.000
O2   s O3   s Buckingham    0.228E+05 0.149      10.9      0.00     0.000 16.000
O3   s O3   s Buckingham    0.228E+05 0.149      10.9      0.00     0.000 16.000
Si   c F    s Buckingham     977.     0.282      0.00      0.00     0.000 16.000
Ge   c F    s Buckingham     681.     0.320      0.00      0.00     0.000 16.000
F    s F    s Buckingham     540.     0.262      0.00      0.00     0.000 16.000
O1   s F    s Buckingham    0.168E+04 0.268      0.00      0.00     0.000 16.000
O2   s F    s Buckingham    0.168E+04 0.268      0.00      0.00     0.000 16.000
O3   s F    s Buckingham    0.168E+04 0.268      0.00      0.00     0.000 16.000
O2   c O2   s Spring (c-s)   76.0      0.00      0.00      0.00     0.000  0.800
O3   c O3   s Spring (c-s)   128.      0.00      0.00      0.00     0.000  0.800
O1   c O1   s Spring (c-s)   180.      0.00      0.00      0.00     0.000  0.800
F    c F    s Spring (c-s)   33.5      0.00      0.00      0.00     0.000  0.800
--------------------------------------------------------------------------------

  General Three-body potentials :

  Harmonic form:

--------------------------------------------------------------------------------
Atom    Atom    Atom           Force Constants            Theta     Cutoffs  
  1       2       3     (eVrad**-2/eVrad**-3/eVrad**-4)   (deg)  1-2  1-3  2-3
--------------------------------------------------------------------------------
Si    c O1    s O1    s  1.261        0.0000    0.0000   109.470 0.00 0.00 0.00
                                                                 1.90 1.90 3.50
Si    c O1    s O2    s  1.261        0.0000    0.0000   109.470 0.00 0.00 0.00
                                                                 1.90 1.90 3.50
Si    c O2    s O2    s  1.261        0.0000    0.0000   109.470 0.00 0.00 0.00
                                                                 1.90 1.90 3.50
--------------------------------------------------------------------------------

********************************************************************************
*  Output for configuration   1                                                *
********************************************************************************


  Components of energy : 

--------------------------------------------------------------------------------
  Interatomic potentials     =        2063.48042165 eV
  Three-body potentials      =           0.46536857 eV
  Monopole - monopole (real) =       -6611.23731618 eV
  Monopole - monopole (recip)=       -3172.64270170 eV
  Monopole - monopole (total)=       -9783.88001789 eV
  Neutralising energy        =          -6.46198816 eV
--------------------------------------------------------------------------------
  Total lattice energy       =       -7726.39621583 eV
--------------------------------------------------------------------------------
  Total lattice energy       =         -745479.1260 kJ/(mole unit cells)
--------------------------------------------------------------------------------


  Number of variables =      939

  Maximum number of calculations  =          5000
  Maximum Hessian update interval =            10
  Maximum step size               =   0.100000000
  Maximum parameter tolerance     =   0.000010000
  Maximum function  tolerance     =   0.000010000
  Maximum gradient  tolerance     =   0.001000000
  Maximum gradient  component     =   0.010000000

  Symmetry not applied to optimisation

  Cell parameters to be optimised using strains

  Newton-Raphson optimiser to be used

  BFGS hessian update to be used

  Dumpfile to be written after every cycle

  Start of bulk optimisation :

  Cycle:      0 Energy:     -7726.396216  Gnorm:      0.007164  CPU:    2.032
  ** Hessian calculated **
  Cycle:      1 Energy:     -7726.396351  Gnorm:      0.002827  CPU:    5.225
  Cycle:      2 Energy:     -7726.396400  Gnorm:      0.001781  CPU:    8.045
  Cycle:      3 Energy:     -7726.396512  Gnorm:      0.001445  CPU:   12.894
  Cycle:      4 Energy:     -7726.396651  Gnorm:      0.002710  CPU:   17.065
  Cycle:      5 Energy:     -7726.396882  Gnorm:      0.004764  CPU:   21.914
  Cycle:      6 Energy:     -7726.397166  Gnorm:      0.006697  CPU:   26.085
  Cycle:      7 Energy:     -7726.397625  Gnorm:      0.009011  CPU:   30.934
  Cycle:      8 Energy:     -7726.398185  Gnorm:      0.011416  CPU:   35.103
  Cycle:      9 Energy:     -7726.398925  Gnorm:      0.013631  CPU:   39.274
  Cycle:     10 Energy:     -7726.399906  Gnorm:      0.015556  CPU:   43.445
  ** Hessian calculated **
  Cycle:     11 Energy:     -7726.400515  Gnorm:      0.007523  CPU:   47.954
  Cycle:     12 Energy:     -7726.400725  Gnorm:      0.005142  CPU:   50.773
  Cycle:     13 Energy:     -7726.401017  Gnorm:      0.003102  CPU:   54.941
  Cycle:     14 Energy:     -7726.401299  Gnorm:      0.003880  CPU:   59.113
  Cycle:     15 Energy:     -7726.401496  Gnorm:      0.004608  CPU:   62.608
  Cycle:     16 Energy:     -7726.401708  Gnorm:      0.005021  CPU:   66.782
  Cycle:     17 Energy:     -7726.401900  Gnorm:      0.004234  CPU:   70.280
  Cycle:     18 Energy:     -7726.402075  Gnorm:      0.003190  CPU:   73.776
  Cycle:     19 Energy:     -7726.402313  Gnorm:      0.002406  CPU:   77.956
  Cycle:     20 Energy:     -7726.402626  Gnorm:      0.003724  CPU:   82.129
  ** Hessian calculated **
  Cycle:     21 Energy:     -7726.402724  Gnorm:      0.002321  CPU:   86.636
  Cycle:     22 Energy:     -7726.402907  Gnorm:      0.002161  CPU:   91.481
  Cycle:     23 Energy:     -7726.403117  Gnorm:      0.002107  CPU:   95.650
  Cycle:     24 Energy:     -7726.403357  Gnorm:      0.002451  CPU:   99.819
  Cycle:     25 Energy:     -7726.403597  Gnorm:      0.002815  CPU:  103.988
  Cycle:     26 Energy:     -7726.403728  Gnorm:      0.002344  CPU:  107.479
  Cycle:     27 Energy:     -7726.403846  Gnorm:      0.002310  CPU:  110.972
  Cycle:     28 Energy:     -7726.404037  Gnorm:      0.002639  CPU:  115.140
  Cycle:     29 Energy:     -7726.404356  Gnorm:      0.003341  CPU:  119.309
  Cycle:     30 Energy:     -7726.404861  Gnorm:      0.004841  CPU:  123.477
  ** Hessian calculated **
  Cycle:     31 Energy:     -7726.405005  Gnorm:      0.003551  CPU:  127.983
  Cycle:     32 Energy:     -7726.405301  Gnorm:      0.003339  CPU:  132.828
  Cycle:     33 Energy:     -7726.405647  Gnorm:      0.002917  CPU:  136.996
  Cycle:     34 Energy:     -7726.406007  Gnorm:      0.002655  CPU:  141.165
  Cycle:     35 Energy:     -7726.406218  Gnorm:      0.002095  CPU:  144.658
  Cycle:     36 Energy:     -7726.406322  Gnorm:      0.001727  CPU:  148.826
  Cycle:     37 Energy:     -7726.406436  Gnorm:      0.001883  CPU:  152.994
  Cycle:     38 Energy:     -7726.406604  Gnorm:      0.002129  CPU:  157.162
  Cycle:     39 Energy:     -7726.406867  Gnorm:      0.002556  CPU:  161.331
  Cycle:     40 Energy:     -7726.407273  Gnorm:      0.003393  CPU:  165.499
  ** Hessian calculated **
  Cycle:     41 Energy:     -7726.407378  Gnorm:      0.002401  CPU:  170.005
  Cycle:     42 Energy:     -7726.407582  Gnorm:      0.002460  CPU:  174.851
  Cycle:     43 Energy:     -7726.407832  Gnorm:      0.002214  CPU:  179.020
  Cycle:     44 Energy:     -7726.408120  Gnorm:      0.001981  CPU:  183.188
  Cycle:     45 Energy:     -7726.408375  Gnorm:      0.002381  CPU:  187.357
  Cycle:     46 Energy:     -7726.408517  Gnorm:      0.002187  CPU:  190.850
  Cycle:     47 Energy:     -7726.408598  Gnorm:      0.002085  CPU:  195.019
  Cycle:     48 Energy:     -7726.408720  Gnorm:      0.002327  CPU:  199.187
  Cycle:     49 Energy:     -7726.408928  Gnorm:      0.002601  CPU:  203.355
  Cycle:     50 Energy:     -7726.409342  Gnorm:      0.003537  CPU:  208.200
  ** Hessian calculated **
  Cycle:     51 Energy:     -7726.409425  Gnorm:      0.002794  CPU:  212.706
  Cycle:     52 Energy:     -7726.409504  Gnorm:      0.002655  CPU:  215.521
  Cycle:     53 Energy:     -7726.409749  Gnorm:      0.002494  CPU:  220.367
  Cycle:     54 Energy:     -7726.410045  Gnorm:      0.002146  CPU:  224.536
  Cycle:     55 Energy:     -7726.410325  Gnorm:      0.002394  CPU:  228.704
  Cycle:     56 Energy:     -7726.410455  Gnorm:      0.001654  CPU:  232.195
  Cycle:     57 Energy:     -7726.410535  Gnorm:      0.001694  CPU:  235.687
  Cycle:     58 Energy:     -7726.410658  Gnorm:      0.001797  CPU:  239.856
  Cycle:     59 Energy:     -7726.410859  Gnorm:      0.002276  CPU:  244.025
  Cycle:     60 Energy:     -7726.411182  Gnorm:      0.002649  CPU:  248.193
  ** Hessian calculated **
  Cycle:     61 Energy:     -7726.411262  Gnorm:      0.002204  CPU:  252.718
  Cycle:     62 Energy:     -7726.411443  Gnorm:      0.002104  CPU:  257.561
  Cycle:     63 Energy:     -7726.411661  Gnorm:      0.002050  CPU:  261.729
  Cycle:     64 Energy:     -7726.411925  Gnorm:      0.001673  CPU:  265.896
  Cycle:     65 Energy:     -7726.412180  Gnorm:      0.001795  CPU:  270.064
  Cycle:     66 Energy:     -7726.412295  Gnorm:      0.001950  CPU:  273.555
  Cycle:     67 Energy:     -7726.412383  Gnorm:      0.002064  CPU:  277.046
  Cycle:     68 Energy:     -7726.412501  Gnorm:      0.002246  CPU:  281.214
  Cycle:     69 Energy:     -7726.412699  Gnorm:      0.002750  CPU:  285.381
  Cycle:     70 Energy:     -7726.413026  Gnorm:      0.003083  CPU:  289.548
  ** Hessian calculated **
  Cycle:     71 Energy:     -7726.413103  Gnorm:      0.002858  CPU:  294.058
  Cycle:     72 Energy:     -7726.413180  Gnorm:      0.002763  CPU:  296.873
  Cycle:     73 Energy:     -7726.413423  Gnorm:      0.002494  CPU:  301.716
  Cycle:     74 Energy:     -7726.413716  Gnorm:      0.002224  CPU:  305.882
  Cycle:     75 Energy:     -7726.414028  Gnorm:      0.001742  CPU:  310.049
  Cycle:     76 Energy:     -7726.414157  Gnorm:      0.001824  CPU:  313.541
  Cycle:     77 Energy:     -7726.414256  Gnorm:      0.001536  CPU:  317.032
  Cycle:     78 Energy:     -7726.414313  Gnorm:      0.001514  CPU:  319.846
  Cycle:     79 Energy:     -7726.414457  Gnorm:      0.001791  CPU:  324.688
  Cycle:     80 Energy:     -7726.414676  Gnorm:      0.002018  CPU:  328.856
  ** Hessian calculated **
  Cycle:     81 Energy:     -7726.414727  Gnorm:      0.001860  CPU:  333.363
  Cycle:     82 Energy:     -7726.414776  Gnorm:      0.001797  CPU:  336.178
  Cycle:     83 Energy:     -7726.414963  Gnorm:      0.001668  CPU:  341.697
  Cycle:     84 Energy:     -7726.415167  Gnorm:      0.001567  CPU:  345.867
  Cycle:     85 Energy:     -7726.415396  Gnorm:      0.001402  CPU:  350.036
  Cycle:     86 Energy:     -7726.415560  Gnorm:      0.001916  CPU:  353.529
  Cycle:     87 Energy:     -7726.415690  Gnorm:      0.002063  CPU:  357.022
  Cycle:     88 Energy:     -7726.415786  Gnorm:      0.002323  CPU:  361.192
  Cycle:     89 Energy:     -7726.415928  Gnorm:      0.002620  CPU:  365.363
  Cycle:     90 Energy:     -7726.416174  Gnorm:      0.002940  CPU:  369.533
  ** Hessian calculated **
  Cycle:     91 Energy:     -7726.416246  Gnorm:      0.002746  CPU:  374.044
  Cycle:     92 Energy:     -7726.416317  Gnorm:      0.002651  CPU:  376.860
  Cycle:     93 Energy:     -7726.416541  Gnorm:      0.002411  CPU:  381.707
  Cycle:     94 Energy:     -7726.416816  Gnorm:      0.001991  CPU:  385.877
  Cycle:     95 Energy:     -7726.417086  Gnorm:      0.002183  CPU:  390.048
  Cycle:     96 Energy:     -7726.417232  Gnorm:      0.001725  CPU:  393.541
  Cycle:     97 Energy:     -7726.417282  Gnorm:      0.001518  CPU:  396.357
  Cycle:     98 Energy:     -7726.417391  Gnorm:      0.001680  CPU:  401.203
  Cycle:     99 Energy:     -7726.417554  Gnorm:      0.001975  CPU:  405.373
  Cycle:    100 Energy:     -7726.417803  Gnorm:      0.002472  CPU:  409.542
  ** Hessian calculated **
  Cycle:    101 Energy:     -7726.417870  Gnorm:      0.001971  CPU:  414.053
  Cycle:    102 Energy:     -7726.418013  Gnorm:      0.001927  CPU:  418.900
  Cycle:    103 Energy:     -7726.418188  Gnorm:      0.001839  CPU:  423.070
  Cycle:    104 Energy:     -7726.418399  Gnorm:      0.001684  CPU:  427.241
  Cycle:    105 Energy:     -7726.418597  Gnorm:      0.002248  CPU:  431.410
  Cycle:    106 Energy:     -7726.418718  Gnorm:      0.001814  CPU:  434.902
  Cycle:    107 Energy:     -7726.418782  Gnorm:      0.001951  CPU:  438.396
  Cycle:    108 Energy:     -7726.418894  Gnorm:      0.002134  CPU:  442.565
  Cycle:    109 Energy:     -7726.419138  Gnorm:      0.002632  CPU:  447.412
  Cycle:    110 Energy:     -7726.419485  Gnorm:      0.003185  CPU:  451.583
  ** Hessian calculated **
  Cycle:    111 Energy:     -7726.419564  Gnorm:      0.002753  CPU:  456.093
  Cycle:    112 Energy:     -7726.419640  Gnorm:      0.002635  CPU:  458.911
  Cycle:    113 Energy:     -7726.419874  Gnorm:      0.002527  CPU:  463.757
  Cycle:    114 Energy:     -7726.420164  Gnorm:      0.001953  CPU:  467.926
  Cycle:    115 Energy:     -7726.420414  Gnorm:      0.002271  CPU:  472.104
  Cycle:    116 Energy:     -7726.420530  Gnorm:      0.001581  CPU:  475.597
  Cycle:    117 Energy:     -7726.420572  Gnorm:      0.001443  CPU:  478.414
  Cycle:    118 Energy:     -7726.420617  Gnorm:      0.001452  CPU:  481.232
  Cycle:    119 Energy:     -7726.420788  Gnorm:      0.001727  CPU:  486.084
  Cycle:    120 Energy:     -7726.421032  Gnorm:      0.002270  CPU:  490.253
  ** Hessian calculated **
  Cycle:    121 Energy:     -7726.421083  Gnorm:      0.001773  CPU:  494.766
  Cycle:    122 Energy:     -7726.421130  Gnorm:      0.001723  CPU:  497.584
  Cycle:    123 Energy:     -7726.421275  Gnorm:      0.001780  CPU:  502.431
  Cycle:    124 Energy:     -7726.421464  Gnorm:      0.001503  CPU:  506.602
  Cycle:    125 Energy:     -7726.421666  Gnorm:      0.001868  CPU:  510.773
  Cycle:    126 Energy:     -7726.421819  Gnorm:      0.001984  CPU:  514.266
  Cycle:    127 Energy:     -7726.421915  Gnorm:      0.001969  CPU:  518.436
  Cycle:    128 Energy:     -7726.422024  Gnorm:      0.002400  CPU:  522.605
  Cycle:    129 Energy:     -7726.422196  Gnorm:      0.002774  CPU:  526.776
  Cycle:    130 Energy:     -7726.422482  Gnorm:      0.003281  CPU:  530.946
  ** Hessian calculated **
  Cycle:    131 Energy:     -7726.422566  Gnorm:      0.002844  CPU:  535.456
  Cycle:    132 Energy:     -7726.422647  Gnorm:      0.002733  CPU:  538.273
  Cycle:    133 Energy:     -7726.422898  Gnorm:      0.002527  CPU:  543.120
  Cycle:    134 Energy:     -7726.423198  Gnorm:      0.002053  CPU:  547.289
  Cycle:    135 Energy:     -7726.423474  Gnorm:      0.001872  CPU:  551.458
  Cycle:    136 Energy:     -7726.423568  Gnorm:      0.001908  CPU:  554.951
  Cycle:    137 Energy:     -7726.423614  Gnorm:      0.001572  CPU:  557.766
  Cycle:    138 Energy:     -7726.423661  Gnorm:      0.001480  CPU:  560.583
  Cycle:    139 Energy:     -7726.423814  Gnorm:      0.001828  CPU:  565.430
  Cycle:    140 Energy:     -7726.424032  Gnorm:      0.002509  CPU:  569.599
  ** Hessian calculated **
  Cycle:    141 Energy:     -7726.424090  Gnorm:      0.001784  CPU:  574.110
  Cycle:    142 Energy:     -7726.424140  Gnorm:      0.001738  CPU:  576.926
  Cycle:    143 Energy:     -7726.424295  Gnorm:      0.001825  CPU:  581.774
  Cycle:    144 Energy:     -7726.424490  Gnorm:      0.001580  CPU:  585.944
  Cycle:    145 Energy:     -7726.424684  Gnorm:      0.002080  CPU:  590.112
  Cycle:    146 Energy:     -7726.424813  Gnorm:      0.001891  CPU:  593.605
  Cycle:    147 Energy:     -7726.424888  Gnorm:      0.002005  CPU:  597.774
  Cycle:    148 Energy:     -7726.425000  Gnorm:      0.002234  CPU:  601.946
  Cycle:    149 Energy:     -7726.425187  Gnorm:      0.002632  CPU:  606.119
  Cycle:    150 Energy:     -7726.425497  Gnorm:      0.003021  CPU:  610.289
  ** Hessian calculated **
  Cycle:    151 Energy:     -7726.425571  Gnorm:      0.002758  CPU:  614.799
  Cycle:    152 Energy:     -7726.425644  Gnorm:      0.002649  CPU:  617.615
  Cycle:    153 Energy:     -7726.425731  Gnorm:      0.002549  CPU:  620.433
  Cycle:    154 Energy:     -7726.426035  Gnorm:      0.002314  CPU:  625.278
  Cycle:    155 Energy:     -7726.426359  Gnorm:      0.001912  CPU:  629.447
  Cycle:    156 Energy:     -7726.426503  Gnorm:      0.001837  CPU:  632.940
  Cycle:    157 Energy:     -7726.426562  Gnorm:      0.001450  CPU:  635.756
  Cycle:    158 Energy:     -7726.426608  Gnorm:      0.001414  CPU:  638.574
  Cycle:    159 Energy:     -7726.426728  Gnorm:      0.001755  CPU:  643.420
  Cycle:    160 Energy:     -7726.426890  Gnorm:      0.002357  CPU:  647.591
  ** Hessian calculated **
  Cycle:    161 Energy:     -7726.426944  Gnorm:      0.001789  CPU:  652.101
  Cycle:    162 Energy:     -7726.426991  Gnorm:      0.001738  CPU:  654.918
  Cycle:    163 Energy:     -7726.427138  Gnorm:      0.001833  CPU:  659.766
  Cycle:    164 Energy:     -7726.427326  Gnorm:      0.001522  CPU:  663.935
  Cycle:    165 Energy:     -7726.427516  Gnorm:      0.001933  CPU:  668.105
  Cycle:    166 Energy:     -7726.427642  Gnorm:      0.001945  CPU:  671.598
  Cycle:    167 Energy:     -7726.427714  Gnorm:      0.001923  CPU:  675.767
  Cycle:    168 Energy:     -7726.427816  Gnorm:      0.002172  CPU:  679.937
  Cycle:    169 Energy:     -7726.427986  Gnorm:      0.002646  CPU:  684.106
  Cycle:    170 Energy:     -7726.428264  Gnorm:      0.003160  CPU:  688.276
  ** Hessian calculated **
  Cycle:    171 Energy:     -7726.428341  Gnorm:      0.002664  CPU:  692.786
  Cycle:    172 Energy:     -7726.428414  Gnorm:      0.002569  CPU:  695.603
  Cycle:    173 Energy:     -7726.428645  Gnorm:      0.002368  CPU:  700.450
  Cycle:    174 Energy:     -7726.428911  Gnorm:      0.002024  CPU:  704.618
  Cycle:    175 Energy:     -7726.429152  Gnorm:      0.001862  CPU:  708.788
  Cycle:    176 Energy:     -7726.429229  Gnorm:      0.001803  CPU:  712.281
  Cycle:    177 Energy:     -7726.429269  Gnorm:      0.001540  CPU:  715.098
  Cycle:    178 Energy:     -7726.429313  Gnorm:      0.001479  CPU:  717.913
  Cycle:    179 Energy:     -7726.429462  Gnorm:      0.001726  CPU:  722.763
  Cycle:    180 Energy:     -7726.429682  Gnorm:      0.002308  CPU:  726.933
  ** Hessian calculated **
  Cycle:    181 Energy:     -7726.429733  Gnorm:      0.001779  CPU:  731.445
  Cycle:    182 Energy:     -7726.429778  Gnorm:      0.001730  CPU:  734.262
  Cycle:    183 Energy:     -7726.429919  Gnorm:      0.001825  CPU:  739.108
  Cycle:    184 Energy:     -7726.430098  Gnorm:      0.001511  CPU:  743.278
  Cycle:    185 Energy:     -7726.430281  Gnorm:      0.001864  CPU:  747.449
  Cycle:    186 Energy:     -7726.430403  Gnorm:      0.001996  CPU:  750.944
  Cycle:    187 Energy:     -7726.430474  Gnorm:      0.001917  CPU:  755.115
  Cycle:    188 Energy:     -7726.430573  Gnorm:      0.002180  CPU:  759.284
  Cycle:    189 Energy:     -7726.430736  Gnorm:      0.002604  CPU:  763.455
  Cycle:    190 Energy:     -7726.431006  Gnorm:      0.003224  CPU:  767.625
  ** Hessian calculated **
  Cycle:    191 Energy:     -7726.431084  Gnorm:      0.002626  CPU:  772.139
  Cycle:    192 Energy:     -7726.431160  Gnorm:      0.002537  CPU:  774.956
  Cycle:    193 Energy:     -7726.431393  Gnorm:      0.002387  CPU:  779.799
  Cycle:    194 Energy:     -7726.431663  Gnorm:      0.001888  CPU:  783.967
  Cycle:    195 Energy:     -7726.431850  Gnorm:      0.001528  CPU:  787.458
  Cycle:    196 Energy:     -7726.431935  Gnorm:      0.001671  CPU:  790.949
  Cycle:    197 Energy:     -7726.431988  Gnorm:      0.001403  CPU:  793.763
  Cycle:    198 Energy:     -7726.432033  Gnorm:      0.001413  CPU:  796.577
  Cycle:    199 Energy:     -7726.432155  Gnorm:      0.001763  CPU:  801.420
  Cycle:    200 Energy:     -7726.432332  Gnorm:      0.002187  CPU:  805.588
  ** Hessian calculated **
  Cycle:    201 Energy:     -7726.432378  Gnorm:      0.001804  CPU:  810.092
  Cycle:    202 Energy:     -7726.432421  Gnorm:      0.001759  CPU:  812.907
  Cycle:    203 Energy:     -7726.432556  Gnorm:      0.001697  CPU:  817.750
  Cycle:    204 Energy:     -7726.432727  Gnorm:      0.001484  CPU:  821.916
  Cycle:    205 Energy:     -7726.432910  Gnorm:      0.001608  CPU:  826.083
  Cycle:    206 Energy:     -7726.433033  Gnorm:      0.001884  CPU:  829.574
  Cycle:    207 Energy:     -7726.433104  Gnorm:      0.001783  CPU:  833.065
  Cycle:    208 Energy:     -7726.433185  Gnorm:      0.002017  CPU:  837.233
  Cycle:    209 Energy:     -7726.433309  Gnorm:      0.002342  CPU:  841.401
  Cycle:    210 Energy:     -7726.433506  Gnorm:      0.002759  CPU:  845.568
  ** Hessian calculated **
  Cycle:    211 Energy:     -7726.433945  Gnorm:      0.002759  CPU:  851.422
  Cycle:    212 Energy:     -7726.434690  Gnorm:      0.002758  CPU:  856.266
  Cycle:    213 Energy:     -7726.435847  Gnorm:      0.002757  CPU:  861.110
  Cycle:    214 Energy:     -7726.437596  Gnorm:      0.002754  CPU:  865.953
  Cycle:    215 Energy:     -7726.440208  Gnorm:      0.002747  CPU:  870.796
  Cycle:    216 Energy:     -7726.443429  Gnorm:      0.002736  CPU:  874.964
  Cycle:    217 Energy:     -7726.448789  Gnorm:      0.002711  CPU:  879.807
  Cycle:    218 Energy:     -7726.456821  Gnorm:      0.002666  CPU:  884.651
  Cycle:    219 Energy:     -7726.466344  Gnorm:      0.002589  CPU:  888.818
  Cycle:    220 Energy:     -7726.481027  Gnorm:      0.002445  CPU:  893.662
  ** Hessian calculated **
  Cycle:    221 Energy:     -7726.497367  Gnorm:      0.002187  CPU:  899.517
  Cycle:    222 Energy:     -7726.514423  Gnorm:      0.002153  CPU:  903.686
  Cycle:    223 Energy:     -7726.523511  Gnorm:      0.001592  CPU:  907.178
  Cycle:    224 Energy:     -7726.526843  Gnorm:      0.000988  CPU:  911.345
  Cycle:    225 Energy:     -7726.527637  Gnorm:      0.000537  CPU:  915.513
  Cycle:    226 Energy:     -7726.527832  Gnorm:      0.000295  CPU:  919.682
  Cycle:    227 Energy:     -7726.527866  Gnorm:      0.000203  CPU:  922.497
  Cycle:    228 Energy:     -7726.527882  Gnorm:      0.000148  CPU:  925.313
  Cycle:    229 Energy:     -7726.527890  Gnorm:      0.000099  CPU:  928.128
  Cycle:    230 Energy:     -7726.527894  Gnorm:      0.000073  CPU:  930.944
  ** Hessian calculated **
  Cycle:    231 Energy:     -7726.527894  Gnorm:      0.000040  CPU:  935.448


  **** Optimisation achieved ****


  Final energy =   -7726.52789379 eV
  Final Gnorm  =       0.00002905

  Components of energy : 

--------------------------------------------------------------------------------
  Interatomic potentials     =        2063.86138531 eV
  Three-body potentials      =           0.48972790 eV
  Monopole - monopole (real) =       -6611.48674905 eV
  Monopole - monopole (recip)=       -3172.92968220 eV
  Monopole - monopole (total)=       -9784.41643125 eV
  Neutralising energy        =          -6.46257575 eV
--------------------------------------------------------------------------------
  Total lattice energy       =       -7726.52789379 eV
--------------------------------------------------------------------------------
  Total lattice energy       =         -745491.8310 kJ/(mole unit cells)
--------------------------------------------------------------------------------

  Final fractional coordinates of atoms :

--------------------------------------------------------------------------------
   No.  Atomic        x           y          z          Radius
        Label       (Frac)      (Frac)     (Frac)       (Angs) 
--------------------------------------------------------------------------------
     1  Ge    c     0.699600    0.375700    0.033890    0.000000
     2  Si    c     0.602021    0.307785    0.364007    0.000000
     3  Si    c     0.660677    0.290967    0.697723    0.000000
     4  Si    c     0.272151    0.608117    0.526368    0.000000
     5  Si    c     0.372207    0.658582    0.860371    0.000000
     6  Si    c     0.307177    0.693865    0.194576    0.000000
     7  Si    c     0.356205    0.682833    0.295056    0.000000
     8  Si    c     0.314428    0.616560    0.960433    0.000000
     9  Si    c     0.280684    0.667844    0.626894    0.000000
    10  Si    c     0.611733    0.289609    0.801072    0.000000
    11  Si    c     0.652663    0.368373    0.464529    0.000000
    12  Si    c     0.677704    0.308473    0.132676    0.000000
    13  Si    c     0.523945    0.414883    0.967886    0.000000
    14  Si    c     0.565639    0.094063    0.301667    0.000000
    15  Si    c     0.871132    0.462514    0.631973    0.000000
    16  Si    c     0.441550    0.567198    0.460418    0.000000
    17  Si    c     0.397108    0.863755    0.796084    0.000000
    18  Si    c     0.099747    0.523240    0.126922    0.000000
    19  Si    c     0.392765    0.509112    0.358749    0.000000
    20  Si    c     0.100020    0.578336    0.023658    0.000000
    21  Si    c     0.453511    0.877507    0.692157    0.000000
    22  Si    c     0.582186    0.462826    0.865771    0.000000
    23  Si    c     0.862502    0.407004    0.530364    0.000000
    24  Si    c     0.516466    0.100933    0.200244    0.000000
    25  Si    c     0.297791    0.382870    0.846932    0.000000
    26  Si    c     0.588747    0.895275    0.182271    0.000000
    27  Si    c     0.070579    0.686339    0.514110    0.000000
    28  Si    c     0.676484    0.582027    0.346330    0.000000
    29  Si    c     0.378872    0.088011    0.677378    0.000000
    30  Ge    c     0.884415    0.286893    0.009181    0.000000
    31  Si    c     0.371234    0.289535    0.476446    0.000000
    32  Si    c     0.884354    0.593253    0.142144    0.000000
    33  Si    c     0.683696    0.079837    0.812670    0.000000
    34  Si    c     0.593392    0.696051    0.977312    0.000000
    35  Si    c     0.081422    0.390626    0.643739    0.000000
    36  Si    c     0.282098    0.883782    0.312871    0.000000
    37  Si    c     0.243709    0.337010    0.947834    0.000000
    38  Si    c     0.640275    0.893171    0.283193    0.000000
    39  Si    c     0.070568    0.740465    0.614987    0.000000
    40  Si    c     0.722972    0.645582    0.446900    0.000000
    41  Ge    c     0.344745    0.074579    0.777457    0.000000
    42  Si    c     0.895135    0.240139    0.113400    0.000000
    43  Si    c     0.317557    0.233519    0.375731    0.000000
    44  Si    c     0.896451    0.659070    0.039842    0.000000
    45  Si    c     0.735803    0.079575    0.710208    0.000000
    46  Si    c     0.655365    0.739631    0.876851    0.000000
    47  Si    c     0.063978    0.328082    0.542990    0.000000
    48  Si    c     0.234775    0.899562    0.212490    0.000000
    49  Si    c     0.964174    0.111943    0.959749    0.000000
    50  Si    c     0.856728    0.828708    0.296191    0.000000
    51  Si    c     0.132929    0.019620    0.627192    0.000000
    52  Si    c     0.002938    0.865115    0.462575    0.000000
    53  Si    c     0.118785    0.135229    0.793880    0.000000
    54  Si    c     0.837811    0.966310    0.130358    0.000000
    55  Si    c     0.101090    0.952271    0.361772    0.000000
    56  Si    c     0.842318    0.879670    0.028387    0.000000
    57  Si    c     0.020327    0.146400    0.694320    0.000000
    58  Si    c     0.873133    0.015881    0.859512    0.000000
    59  Si    c     0.122329    0.108937    0.527179    0.000000
    60  Si    c     0.954761    0.840070    0.194951    0.000000
    61  O2    c     0.924096    0.998609    0.995693    0.000000
    62  O2    c     0.980828    0.908058    0.328024    0.000000
    63  O2    c     0.057728    0.066402    0.660062    0.000000
    64  O2    c     0.042779    0.988539    0.493874    0.000000
    65  O2    c     0.988512    0.061660    0.824212    0.000000
    66  O2    c     0.918241    0.923255    0.162317    0.000000
    67  O2    c     0.316425    0.556602    0.325561    0.000000
    68  O2    c     0.407349    0.755341    0.658402    0.000000
    69  O2    c     0.228910    0.656748    0.992659    0.000000
    70  O2    c     0.662298    0.413597    0.834597    0.000000
    71  O2    c     0.568657    0.230436    0.170938    0.000000
    72  O2    c     0.734205    0.330445    0.498757    0.000000
    73  O3    c     0.559963    0.337918    0.001591    0.000000
    74  O2    c     0.748288    0.414293    0.666093    0.000000
    75  O2    c     0.642177    0.219061    0.334303    0.000000
    76  O2    c     0.392351    0.644934    0.491993    0.000000
    77  O2    c     0.225158    0.574899    0.159643    0.000000
    78  O2    c     0.329583    0.733854    0.825271    0.000000
    79  O2    c     0.116433    0.212719    0.968602    0.000000
    80  O2    c     0.765042    0.890267    0.303626    0.000000
    81  O2    c     0.070336    0.866417    0.634619    0.000000
    82  O2    c     0.847602    0.773965    0.467117    0.000000
    83  O3    c     0.199201    0.066720    0.798559    0.000000
    84  O2    c     0.898357    0.119365    0.136758    0.000000
    85  O2    c     0.192572    0.105487    0.355454    0.000000
    86  O2    c     0.912103    0.795069    0.024631    0.000000
    87  O2    c     0.863937    0.084828    0.689769    0.000000
    88  O2    c     0.781919    0.862165    0.855055    0.000000
    89  O2    c     0.058963    0.199783    0.522904    0.000000
    90  O2    c     0.110369    0.903735    0.192283    0.000000
    91  O2    c     0.906054    0.844793    0.244968    0.000000
    92  O2    c     0.109166    0.052057    0.576840    0.000000
    93  O2    c     0.934903    0.053968    0.909336    0.000000
    94  O2    c     0.063954    0.134905    0.743795    0.000000
    95  O2    c     0.851061    0.931532    0.079199    0.000000
    96  O2    c     0.045503    0.915742    0.412043    0.000000
    97  O3    c     0.885913    0.184405    0.968068    0.000000
    98  O2    c     0.775760    0.677239    0.307748    0.000000
    99  O2    c     0.288055    0.088072    0.635564    0.000000
   100  O2    c     0.071784    0.783911    0.476067    0.000000
   101  O2    c     0.205550    0.286155    0.807767    0.000000
   102  O2    c     0.685503    0.895023    0.143520    0.000000
   103  O2    c     0.183371    0.881771    0.351430    0.000000
   104  O2    c     0.690191    0.796420    0.015772    0.000000
   105  O2    c     0.087617    0.296965    0.681681    0.000000
   106  O2    c     0.783013    0.079627    0.850104    0.000000
   107  O2    c     0.274594    0.193143    0.515003    0.000000
   108  O2    c     0.887277    0.690704    0.180746    0.000000
   109  O2    c     0.302375    0.630724    0.243877    0.000000
   110  O2    c     0.334894    0.666431    0.576134    0.000000
   111  O2    c     0.312252    0.667556    0.909449    0.000000
   112  O2    c     0.660353    0.340586    0.748999    0.000000
   113  O3    c     0.611761    0.302484    0.085539    0.000000
   114  O2    c     0.657508    0.311275    0.414766    0.000000
   115  O2    c     0.365408    0.330199    0.967521    0.000000
   116  O2    c     0.652104    0.024184    0.303415    0.000000
   117  O2    c     0.939964    0.618014    0.634879    0.000000
   118  O2    c     0.598744    0.655395    0.463712    0.000000
   119  O3    c     0.306324    0.924464    0.801288    0.000000
   120  O2    c     0.027065    0.368510    0.129662    0.000000
   121  O2    c     0.306212    0.353137    0.356007    0.000000
   122  O2    c     0.031199    0.665134    0.024593    0.000000
   123  O2    c     0.611337    0.950476    0.690880    0.000000
   124  O2    c     0.668406    0.617897    0.860967    0.000000
   125  O2    c     0.929561    0.318548    0.526455    0.000000
   126  O2    c     0.359358    0.031929    0.195500    0.000000
   127  O1    c     0.740194    0.278256    0.001120    0.000000
   128  O2    c     0.677280    0.448495    0.340186    0.000000
   129  O2    c     0.517578    0.222450    0.674549    0.000000
   130  O2    c     0.203408    0.683552    0.505253    0.000000
   131  O2    c     0.298215    0.515746    0.838215    0.000000
   132  O2    c     0.452185    0.764075    0.172981    0.000000
   133  O2    c     0.279777    0.748821    0.318271    0.000000
   134  O2    c     0.457925    0.696027    0.983613    0.000000
   135  O2    c     0.215142    0.526626    0.649970    0.000000
   136  O2    c     0.683315    0.212863    0.819239    0.000000
   137  O2    c     0.506928    0.293133    0.485502    0.000000
   138  O2    c     0.754623    0.457466    0.151078    0.000000
   139  O3    c     0.772026    0.543235    0.018292    0.000000
   140  O2    c     0.445067    0.232519    0.357669    0.000000
   141  O2    c     0.726500    0.202114    0.694446    0.000000
   142  O2    c     0.188938    0.452438    0.522020    0.000000
   143  O2    c     0.529964    0.738806    0.855572    0.000000
   144  O2    c     0.230725    0.773504    0.191294    0.000000
   145  O2    c     0.512945    0.765531    0.301036    0.000000
   146  O2    c     0.238200    0.461227    0.966155    0.000000
   147  O2    c     0.199759    0.742746    0.632922    0.000000
   148  O3    c     0.458012    0.214926    0.807233    0.000000
   149  O2    c     0.725373    0.523848    0.468289    0.000000
   150  O2    c     0.770449    0.244542    0.132239    0.000000
   151  O2    c     0.224462    0.314022    0.893620    0.000000
   152  O2    c     0.660606    0.895472    0.228882    0.000000
   153  O2    c     0.068286    0.756681    0.560671    0.000000
   154  O2    c     0.745526    0.659378    0.392623    0.000000
   155  O3    c     0.296015    0.080913    0.720533    0.000000
   156  O3    c     0.895066    0.218501    0.060225    0.000000
   157  O2    c     0.297667    0.216999    0.430020    0.000000
   158  O2    c     0.882687    0.658493    0.095066    0.000000
   159  O2    c     0.745883    0.075819    0.764363    0.000000
   160  O2    c     0.671463    0.764855    0.931118    0.000000
   161  O2    c     0.072981    0.314879    0.597152    0.000000
   162  O2    c     0.213363    0.893379    0.266779    0.000000
   163  O2    c     0.577348    0.558855    0.988415    0.000000
   164  O2    c     0.422831    0.006590    0.323800    0.000000
   165  O2    c     0.955038    0.403605    0.653752    0.000000
   166  O2    c     0.383438    0.427764    0.484117    0.000000
   167  O2    c     0.540912    0.957288    0.818428    0.000000
   168  O2    c     0.009666    0.576610    0.146814    0.000000
   169  O2    c     0.535821    0.566007    0.336322    0.000000
   170  O3    c     0.013796    0.441299    0.000333    0.000000
   171  O2    c     0.401054    0.966360    0.670605    0.000000
   172  O2    c     0.441237    0.402299    0.841594    0.000000
   173  O2    c     0.944041    0.546572    0.506397    0.000000
   174  O2    c     0.576993    0.021872    0.175542    0.000000
   175  O2    c     0.566696    0.149414    0.251535    0.000000
   176  O2    c     0.812208    0.408259    0.581640    0.000000
   177  O2    c     0.581392    0.416445    0.917174    0.000000
   178  O2    c     0.402510    0.825197    0.742802    0.000000
   179  O2    c     0.143789    0.567871    0.075274    0.000000
   180  O2    c     0.389546    0.563579    0.409107    0.000000
   181  F     c     0.433113    0.888881    0.247210    0.000000
   182  F     c     0.074566    0.537942    0.579126    0.000000
   183  F     c     0.444460    0.547364    0.912462    0.000000
   184  F     c     0.494725    0.080657    0.750577    0.000000
   185  F     c     0.853668    0.426897    0.067727    0.000000
   186  F     c     0.523857    0.436288    0.411230    0.000000
   187  O2    s     0.919162    0.997530    0.995461    0.000000
   188  O2    s     0.980336    0.904034    0.328226    0.000000
   189  O2    s     0.061997    0.070043    0.660176    0.000000
   190  O2    s     0.047174    0.988145    0.494083    0.000000
   191  O2    s     0.988814    0.064131    0.825130    0.000000
   192  O2    s     0.913456    0.918739    0.162435    0.000000
   193  O2    s     0.328279    0.564715    0.325800    0.000000
   194  O2    s     0.399185    0.759027    0.658653    0.000000
   195  O2    s     0.224121    0.644666    0.992647    0.000000
   196  O2    s     0.649360    0.405988    0.834283    0.000000
   197  O2    s     0.574497    0.224859    0.170047    0.000000
   198  O2    s     0.739024    0.342323    0.498463    0.000000
   199  O3    s     0.566025    0.349138    0.000210    0.000000
   200  O2    s     0.751747    0.406352    0.665907    0.000000
   201  O2    s     0.630186    0.215196    0.333967    0.000000
   202  O2    s     0.385062    0.633093    0.492273    0.000000
   203  O2    s     0.220233    0.581538    0.159747    0.000000
   204  O2    s     0.341330    0.740133    0.825752    0.000000
   205  O2    s     0.113410    0.214861    0.965564    0.000000
   206  O2    s     0.761792    0.883998    0.300726    0.000000
   207  O2    s     0.076856    0.869274    0.631843    0.000000
   208  O2    s     0.851290    0.770392    0.464558    0.000000
   209  O3    s     0.199660    0.075043    0.796659    0.000000
   210  O2    s     0.891694    0.115436    0.133783    0.000000
   211  O2    s     0.195831    0.102509    0.358202    0.000000
   212  O2    s     0.902990    0.789936    0.026615    0.000000
   213  O2    s     0.866167    0.090582    0.692409    0.000000
   214  O2    s     0.778538    0.865902    0.857765    0.000000
   215  O2    s     0.066138    0.203395    0.525389    0.000000
   216  O2    s     0.106589    0.896454    0.194652    0.000000
   217  O2    s     0.906029    0.842445    0.245076    0.000000
   218  O2    s     0.113324    0.054897    0.576833    0.000000
   219  O2    s     0.931300    0.056174    0.909424    0.000000
   220  O2    s     0.064563    0.136290    0.743219    0.000000
   221  O2    s     0.848581    0.929780    0.079447    0.000000
   222  O2    s     0.047017    0.914167    0.412040    0.000000
   223  O3    s     0.893977    0.184991    0.970446    0.000000
   224  O2    s     0.774253    0.683549    0.310430    0.000000
   225  O2    s     0.280788    0.080955    0.638719    0.000000
   226  O2    s     0.064319    0.782540    0.478540    0.000000
   227  O2    s     0.206558    0.281123    0.810524    0.000000
   228  O2    s     0.691588    0.902566    0.146136    0.000000
   229  O2    s     0.184773    0.889401    0.348583    0.000000
   230  O2    s     0.696791    0.795305    0.013273    0.000000
   231  O2    s     0.079902    0.290881    0.679061    0.000000
   232  O2    s     0.781767    0.073202    0.847169    0.000000
   233  O2    s     0.268269    0.194107    0.512319    0.000000
   234  O2    s     0.894201    0.696483    0.178219    0.000000
   235  O2    s     0.308314    0.642453    0.244039    0.000000
   236  O2    s     0.322992    0.660638    0.576250    0.000000
   237  O2    s     0.318467    0.661462    0.909769    0.000000
   238  O2    s     0.655664    0.330481    0.748664    0.000000
   239  O3    s     0.624491    0.307883    0.087166    0.000000
   240  O2    s     0.651299    0.316804    0.414631    0.000000
   241  O2    s     0.367757    0.339508    0.965336    0.000000
   242  O2    s     0.641982    0.017735    0.301124    0.000000
   243  O2    s     0.946463    0.614718    0.632499    0.000000
   244  O2    s     0.595577    0.645212    0.461579    0.000000
   245  O3    s     0.318440    0.928897    0.799034    0.000000
   246  O2    s     0.021169    0.371644    0.127702    0.000000
   247  O2    s     0.316249    0.356714    0.358339    0.000000
   248  O2    s     0.024767    0.655510    0.026053    0.000000
   249  O2    s     0.608348    0.956649    0.693049    0.000000
   250  O2    s     0.658096    0.614721    0.863156    0.000000
   251  O2    s     0.936747    0.328673    0.528605    0.000000
   252  O2    s     0.362385    0.025019    0.197796    0.000000
   253  O1    s     0.749437    0.285460    0.004030    0.000000
   254  O2    s     0.669519    0.448041    0.343283    0.000000
   255  O2    s     0.518434    0.216012    0.677268    0.000000
   256  O2    s     0.196503    0.676054    0.508400    0.000000
   257  O2    s     0.305918    0.516724    0.841490    0.000000
   258  O2    s     0.451447    0.770567    0.176239    0.000000
   259  O2    s     0.287829    0.756192    0.315296    0.000000
   260  O2    s     0.457387    0.687939    0.980557    0.000000
   261  O2    s     0.207818    0.526883    0.646896    0.000000
   262  O2    s     0.676180    0.206438    0.816696    0.000000
   263  O2    s     0.507647    0.300581    0.482322    0.000000
   264  O2    s     0.761113    0.457559    0.148299    0.000000
   265  O3    s     0.781189    0.545152    0.021600    0.000000
   266  O2    s     0.447638    0.240542    0.360239    0.000000
   267  O2    s     0.720478    0.198046    0.696502    0.000000
   268  O2    s     0.183969    0.455156    0.524710    0.000000
   269  O2    s     0.527230    0.730585    0.858337    0.000000
   270  O2    s     0.239176    0.778714    0.193880    0.000000
   271  O2    s     0.510293    0.770789    0.298501    0.000000
   272  O2    s     0.246653    0.464147    0.963673    0.000000
   273  O2    s     0.194108    0.734684    0.630402    0.000000
   274  O3    s     0.465528    0.212180    0.804444    0.000000
   275  O2    s     0.717404    0.520757    0.465602    0.000000
   276  O2    s     0.774713    0.250600    0.130224    0.000000
   277  O2    s     0.234100    0.323624    0.894462    0.000000
   278  O2    s     0.650891    0.895209    0.229726    0.000000
   279  O2    s     0.068763    0.747503    0.561510    0.000000
   280  O2    s     0.735924    0.649823    0.393505    0.000000
   281  O3    s     0.307981    0.081240    0.719904    0.000000
   282  O3    s     0.894260    0.225872    0.061890    0.000000
   283  O2    s     0.307486    0.226367    0.429125    0.000000
   284  O2    s     0.884191    0.651339    0.094754    0.000000
   285  O2    s     0.738215    0.076640    0.763510    0.000000
   286  O2    s     0.661751    0.755170    0.930201    0.000000
   287  O2    s     0.072914    0.324230    0.596251    0.000000
   288  O2    s     0.222792    0.893037    0.265826    0.000000
   289  O2    s     0.573489    0.559550    0.985081    0.000000
   290  O2    s     0.422686    0.002379    0.320298    0.000000
   291  O2    s     0.959900    0.408479    0.650409    0.000000
   292  O2    s     0.388367    0.427440    0.480804    0.000000
   293  O2    s     0.542420    0.961729    0.815580    0.000000
   294  O2    s     0.005662    0.572592    0.144170    0.000000
   295  O2    s     0.535998    0.561614    0.339742    0.000000
   296  O3    s     0.012194    0.443114    0.003428    0.000000
   297  O2    s     0.404435    0.969697    0.673590    0.000000
   298  O2    s     0.440603    0.406810    0.844727    0.000000
   299  O2    s     0.949381    0.547142    0.509720    0.000000
   300  O2    s     0.571831    0.016355    0.178820    0.000000
   301  O2    s     0.561239    0.138416    0.251386    0.000000
   302  O2    s     0.823497    0.413735    0.581538    0.000000
   303  O2    s     0.575840    0.421266    0.916712    0.000000
   304  O2    s     0.407401    0.834560    0.742611    0.000000
   305  O2    s     0.134713    0.564147    0.075634    0.000000
   306  O2    s     0.395264    0.558324    0.409225    0.000000
   307  F     s     0.432763    0.888449    0.247150    0.000000
   308  F     s     0.074918    0.538132    0.579143    0.000000
   309  F     s     0.444029    0.548399    0.912384    0.000000
   310  F     s     0.485751    0.080527    0.752075    0.000000
   311  F     s     0.843866    0.422865    0.065317    0.000000
   312  F     s     0.524057    0.436093    0.411193    0.000000
--------------------------------------------------------------------------------

  Final Cartesian lattice vectors (Angstroms) :

       11.905755   -0.020651   -0.012740
       -6.049138   10.422479    0.003774
        0.068637   -0.157575   29.464417


  Final cell parameters and derivatives :

--------------------------------------------------------------------------------
       a           11.905780 Angstrom     dE/de1(xx)     0.001743 eV/strain
       b           12.050733 Angstrom     dE/de2(yy)     0.001942 eV/strain
       c           29.464918 Angstrom     dE/de3(zz)     0.003007 eV/strain
       alpha       90.314067 Degrees      dE/de4(yz)     0.000354 eV/strain
       beta        89.927312 Degrees      dE/de5(xz)    -0.000334 eV/strain
       gamma      120.229977 Degrees      dE/de6(xy)    -0.000433 eV/strain
--------------------------------------------------------------------------------

  Primitive cell volume =          3652.488817 Angs**3

  Density of cell =      1.751708 g/cm**3

  Non-primitive cell volume =          3652.488817 Angs**3


  Final internal derivatives :

--------------------------------------------------------------------------------
   No.  Atomic          a             b             c           Radius
        Label          (eV)          (eV)          (eV)        (eV/Angs)
--------------------------------------------------------------------------------
      1 Ge    c       0.000000      0.000000      0.000000      0.000000
      2 Si    c       0.000422     -0.000072      0.000085      0.000000
      3 Si    c       0.000025     -0.000151      0.000356      0.000000
      4 Si    c      -0.000004     -0.000260     -0.000536      0.000000
      5 Si    c       0.000124     -0.000052      0.001523      0.000000
      6 Si    c       0.000020      0.000023     -0.001020      0.000000
      7 Si    c       0.000272      0.000509      0.000500      0.000000
      8 Si    c      -0.000470      0.000485      0.001706      0.000000
      9 Si    c      -0.000097     -0.000210      0.001155      0.000000
     10 Si    c      -0.000671     -0.000350     -0.001017      0.000000
     11 Si    c       0.000404     -0.000235     -0.000236      0.000000
     12 Si    c       0.000945      0.000544      0.003987      0.000000
     13 Si    c       0.000331     -0.001863     -0.000247      0.000000
     14 Si    c       0.000315      0.000010      0.000419      0.000000
     15 Si    c       0.000008     -0.000019      0.000402      0.000000
     16 Si    c      -0.000248      0.000172      0.001001      0.000000
     17 Si    c       0.000404     -0.000064      0.000188      0.000000
     18 Si    c       0.000372      0.000097      0.000093      0.000000
     19 Si    c       0.000031      0.000107      0.000375      0.000000
     20 Si    c      -0.000377     -0.002536      0.001579      0.000000
     21 Si    c       0.000099     -0.000259      0.000095      0.000000
     22 Si    c      -0.000062     -0.000029      0.000006      0.000000
     23 Si    c       0.000474      0.000031     -0.000495      0.000000
     24 Si    c      -0.000041     -0.000603     -0.000096      0.000000
     25 Si    c      -0.000144      0.000619     -0.000191      0.000000
     26 Si    c       0.000107     -0.000169     -0.000318      0.000000
     27 Si    c       0.000164      0.000146     -0.000352      0.000000
     28 Si    c       0.000150      0.000376     -0.000033      0.000000
     29 Si    c      -0.000082     -0.000150     -0.000693      0.000000
     30 Ge    c       0.002439     -0.005295      0.001504      0.000000
     31 Si    c      -0.000126     -0.000010      0.000626      0.000000
     32 Si    c       0.000194     -0.000194     -0.001851      0.000000
     33 Si    c       0.000344      0.000113     -0.000068      0.000000
     34 Si    c      -0.000632      0.000383     -0.000362      0.000000
     35 Si    c      -0.000096     -0.000118      0.000693      0.000000
     36 Si    c       0.000194      0.000076      0.000958      0.000000
     37 Si    c       0.000508      0.001227     -0.001270      0.000000
     38 Si    c       0.000072      0.000262      0.000865      0.000000
     39 Si    c      -0.000066      0.000090      0.000515      0.000000
     40 Si    c      -0.000085      0.000003      0.000220      0.000000
     41 Ge    c      -0.000243     -0.000601     -0.000954      0.000000
     42 Si    c       0.000686      0.000605      0.003401      0.000000
     43 Si    c       0.000068      0.000099      0.000440      0.000000
     44 Si    c       0.001888      0.000236      0.002991      0.000000
     45 Si    c       0.000337     -0.000051      0.000395      0.000000
     46 Si    c      -0.000464      0.000635     -0.000016      0.000000
     47 Si    c       0.000189     -0.000257     -0.000735      0.000000
     48 Si    c       0.000262     -0.000062     -0.000193      0.000000
     49 Si    c       0.000376      0.000772     -0.001437      0.000000
     50 Si    c      -0.000163      0.000189      0.001404      0.000000
     51 Si    c       0.000058     -0.000142      0.000868      0.000000
     52 Si    c       0.000263      0.000056      0.001205      0.000000
     53 Si    c      -0.000349      0.000496      0.000614      0.000000
[...]
     59 Si    c       0.000156      0.000140     -0.001188      0.000000
     60 Si    c       0.000117     -0.000299     -0.000311      0.000000
     61 O2    c      -0.000567      0.000004      0.000304      0.000000
     62 O2    c       0.000170      0.000395      0.000232      0.000000
     63 O2    c      -0.000191      0.000109      0.000552      0.000000
     64 O2    c       0.000008     -0.000006      0.000325      0.000000
     65 O2    c      -0.000315      0.000291      0.000609      0.000000
     66 O2    c       0.000042     -0.000423     -0.000002      0.000000
     67 O2    c       0.000287     -0.000104      0.001776      0.000000
     68 O2    c       0.000199     -0.000114      0.000645      0.000000
     69 O2    c       0.000456      0.000045      0.000391      0.000000
     70 O2    c       0.000008      0.000070      0.000266      0.000000
     71 O2    c      -0.000238      0.000427      0.000693      0.000000
     72 O2    c       0.000355     -0.000115      0.000230      0.000000
     73 O3    c       0.000928     -0.001150      0.002668      0.000000
     74 O2    c       0.000006      0.000041     -0.000193      0.000000
     75 O2    c       0.000286     -0.000377     -0.000443      0.000000
     76 O2    c       0.000781     -0.000079     -0.000076      0.000000
     77 O2    c      -0.000048     -0.000179      0.000323      0.000000
     78 O2    c       0.000150     -0.000296      0.000732      0.000000
     79 O2    c      -0.000677      0.000373      0.001218      0.000000
     80 O2    c       0.000194      0.000321     -0.000344      0.000000
     81 O2    c       0.000040      0.000000     -0.000298      0.000000
     82 O2    c       0.000133     -0.000032      0.000161      0.000000
     83 O3    c       0.001400     -0.000912     -0.000121      0.000000
     84 O2    c      -0.000293      0.000511     -0.000623      0.000000
     85 O2    c      -0.000172      0.000546      0.000131      0.000000
     86 O2    c       0.000659     -0.001036      0.000478      0.000000
     87 O2    c      -0.000066     -0.000079     -0.000143      0.000000
     88 O2    c      -0.000337      0.000110      0.000112      0.000000
     89 O2    c       0.000172      0.000163     -0.000096      0.000000
     90 O2    c       0.000529      0.000040     -0.000293      0.000000
     91 O2    c      -0.000114      0.000309      0.001524      0.000000
     92 O2    c       0.000170     -0.000218      0.001123      0.000000
     93 O2    c      -0.000456      0.000124      0.000857      0.000000
     94 O2    c      -0.000548      0.000204      0.000133      0.000000
     95 O2    c      -0.000375      0.000247      0.001348      0.000000
     96 O2    c      -0.000060      0.000055      0.000225      0.000000
     97 O3    c       0.000248      0.000050      0.000957      0.000000
     98 O2    c       0.000170     -0.000139     -0.000142      0.000000
     99 O2    c       0.000237     -0.000134     -0.000106      0.000000
    100 O2    c       0.000257     -0.000052     -0.000340      0.000000
    101 O2    c      -0.000338      0.000848      0.000375      0.000000
    102 O2    c       0.000018      0.000085      0.000127      0.000000
    103 O2    c       0.000221     -0.000039      0.000216      0.000000
    104 O2    c      -0.000882      0.000459      0.000887      0.000000
    105 O2    c      -0.000083     -0.000267      0.000287      0.000000
    106 O2    c      -0.000121      0.000063     -0.000771      0.000000
    107 O2    c       0.000340      0.000067      0.000193      0.000000
    108 O2    c       0.000132     -0.000331     -0.000041      0.000000
    109 O2    c       0.000031      0.000149     -0.000176      0.000000
    110 O2    c       0.000443     -0.000109      0.000476      0.000000
    111 O2    c       0.000128     -0.000099      0.001029      0.000000
    112 O2    c       0.000237      0.000008     -0.001165      0.000000
    113 O3    c      -0.000175     -0.000046      0.003483      0.000000
    114 O2    c       0.000191     -0.000103      0.000203      0.000000
    115 O2    c       0.000362     -0.000334      0.000932      0.000000
    116 O2    c      -0.000187      0.000346      0.000467      0.000000
    117 O2    c       0.000023     -0.000368     -0.000086      0.000000
    118 O2    c       0.000008      0.000296      0.000385      0.000000
    119 O3    c       0.000236      0.000346      0.000112      0.000000
    120 O2    c       0.000779     -0.000391      0.000582      0.000000
    121 O2    c       0.000207      0.000198      0.000682      0.000000
    122 O2    c       0.000672      0.001417     -0.001940      0.000000
    123 O2    c      -0.000122     -0.000160      0.000019      0.000000
    124 O2    c      -0.000060     -0.000114      0.000131      0.000000
    125 O2    c       0.000190      0.000166     -0.000275      0.000000
    126 O2    c       0.000415      0.000079      0.000101      0.000000
    127 O1    c       0.000760     -0.000814     -0.004916      0.000000
    128 O2    c      -0.000021      0.000281      0.000362      0.000000
    129 O2    c       0.000034      0.000127     -0.000122      0.000000
    130 O2    c       0.000296      0.000025     -0.000054      0.000000
    131 O2    c      -0.000209      0.000021     -0.000341      0.000000
    132 O2    c       0.000017     -0.000107      0.000661      0.000000
    133 O2    c       0.000524      0.000033     -0.000096      0.000000
    134 O2    c       0.000358     -0.000346     -0.000131      0.000000
    135 O2    c       0.000113      0.000108      0.000241      0.000000
    136 O2    c       0.000151      0.000095      0.000232      0.000000
    137 O2    c       0.000476     -0.000149      0.000473      0.000000
    138 O2    c      -0.000069     -0.000605     -0.000041      0.000000
    139 O3    c       0.000033      0.002731     -0.000628      0.000000
    140 O2    c       0.000233      0.000092     -0.000112      0.000000
    141 O2    c       0.000041     -0.000064     -0.000171      0.000000
    142 O2    c       0.000227      0.000180      0.000235      0.000000
    143 O2    c      -0.000136      0.000099      0.000086      0.000000
    144 O2    c       0.000385     -0.000018      0.000785      0.000000
    145 O2    c      -0.000012      0.000200      0.000306      0.000000
    146 O2    c      -0.000043      0.000108      0.000315      0.000000
    147 O2    c       0.000183     -0.000142      0.000458      0.000000
    148 O3    c      -0.000008      0.000085      0.000717      0.000000
    149 O2    c       0.000311     -0.000037      0.000256      0.000000
    150 O2    c       0.001100     -0.000810      0.001264      0.000000
    151 O2    c      -0.000495      0.000048     -0.001031      0.000000
    152 O2    c       0.000450     -0.000106      0.000812      0.000000
    153 O2    c       0.000039      0.000059     -0.000120      0.000000
    154 O2    c       0.000146      0.000076      0.000771      0.000000
    155 O3    c       0.000414      0.000178      0.000657      0.000000
    156 O3    c       0.001265     -0.001432      0.002179      0.000000
    157 O2    c       0.000019      0.000262      0.000534      0.000000
    158 O2    c      -0.000855      0.000613      0.005729      0.000000
    159 O2    c       0.000049     -0.000213      0.001258      0.000000
    160 O2    c      -0.000438      0.000253      0.000586      0.000000
    161 O2    c       0.000208     -0.000197      0.000284      0.000000
    162 O2    c       0.000166     -0.000000     -0.000475      0.000000
    163 O2    c      -0.000003     -0.000020      0.000525      0.000000
    164 O2    c       0.000477      0.000023     -0.000061      0.000000
    165 O2    c      -0.000123      0.000042      0.000355      0.000000
    166 O2    c       0.000109      0.000132      0.000042      0.000000
    167 O2    c       0.000101     -0.000235      0.000078      0.000000
    168 O2    c       0.000897     -0.000404      0.001884      0.000000
    169 O2    c      -0.000018      0.000224      0.000525      0.000000
    170 O3    c       0.002755      0.000192     -0.004919      0.000000
    171 O2    c       0.000035      0.000018      0.000545      0.000000
    172 O2    c      -0.000056     -0.000232     -0.000260      0.000000
    173 O2    c       0.000236     -0.000224      0.000141      0.000000
    174 O2    c       0.000052      0.000062     -0.000252      0.000000
    175 O2    c       0.000080      0.000292     -0.000272      0.000000
    176 O2    c      -0.000036      0.000023     -0.000655      0.000000
    177 O2    c      -0.000140     -0.000272     -0.000690      0.000000
    178 O2    c       0.000108      0.000081      0.000472      0.000000
    179 O2    c       0.001340      0.000209      0.003298      0.000000
    180 O2    c       0.000205      0.000218      0.000519      0.000000
    181 F     c      -0.000061     -0.000069      0.000339      0.000000
    182 F     c      -0.000035      0.000047     -0.000105      0.000000
    183 F     c      -0.000105      0.000259      0.000586      0.000000
    184 F     c      -0.000201     -0.000123      0.000060      0.000000
    185 F     c      -0.004069      0.001263     -0.005213      0.000000
    186 F     c       0.000010      0.000082     -0.000081      0.000000
    187 O2    s       0.001614     -0.000488     -0.001971      0.000000
    188 O2    s       0.000364      0.000368      0.000459      0.000000
    189 O2    s      -0.000033     -0.000088      0.001095      0.000000
    190 O2    s       0.000182      0.000287      0.000660      0.000000
    191 O2    s       0.000340     -0.000811      0.001937      0.000000
    192 O2    s       0.000075     -0.000243     -0.000802      0.000000
    193 O2    s       0.000349     -0.000093      0.001622      0.000000
    194 O2    s      -0.000013     -0.000139      0.000796      0.000000
    195 O2    s       0.000929      0.000680     -0.000867      0.000000
    196 O2    s      -0.000253      0.000106      0.000186      0.000000
    197 O2    s      -0.000235      0.000351      0.000980      0.000000
    198 O2    s       0.000288     -0.000005      0.000262      0.000000
    199 O3    s       0.001162      0.000331      0.000331      0.000000
    200 O2    s       0.000032      0.000056     -0.000204      0.000000
    201 O2    s       0.000151      0.000114     -0.000690      0.000000
    202 O2    s       0.000521     -0.000004      0.000483      0.000000
    203 O2    s       0.000198      0.000192      0.000526      0.000000
    204 O2    s      -0.000048      0.000204      0.000508      0.000000
    205 O2    s      -0.000668     -0.002151      0.000715      0.000000
    206 O2    s       0.000063      0.000438      0.000518      0.000000
    207 O2    s      -0.000121      0.000166      0.000597      0.000000
    208 O2    s       0.000396      0.000067      0.001042      0.000000
    209 O3    s      -0.000132     -0.000322      0.000265      0.000000
    210 O2    s      -0.000151      0.000792      0.000430      0.000000
    211 O2    s       0.000085      0.000465     -0.000117      0.000000
    212 O2    s       0.000655      0.000320      0.000341      0.000000
    213 O2    s       0.000023     -0.000309     -0.000725      0.000000
    214 O2    s       0.000766     -0.000763      0.000543      0.000000
    215 O2    s       0.000248      0.000015     -0.000589      0.000000
    216 O2    s       0.000676      0.000005     -0.000543      0.000000
    217 O2    s       0.000230      0.000174      0.001424      0.000000
    218 O2    s       0.000116      0.000044      0.000998      0.000000
    219 O2    s       0.001308     -0.001198      0.001239      0.000000
    220 O2    s      -0.000005     -0.000618     -0.000027      0.000000
    221 O2    s       0.000418     -0.000448      0.001600      0.000000
    222 O2    s       0.000284     -0.000028      0.000408      0.000000
    223 O3    s      -0.001106      0.002697      0.006488      0.000000
    224 O2    s       0.000586     -0.000099      0.000341      0.000000
    225 O2    s       0.000066     -0.000029      0.000732      0.000000
    226 O2    s       0.000313      0.000070      0.000213      0.000000
    227 O2    s       0.000181     -0.000243      0.000641      0.000000
    228 O2    s       0.000153      0.000056      0.000334      0.000000
    229 O2    s       0.000091      0.000083      0.000308      0.000000
    230 O2    s       0.000141     -0.000842      0.001071      0.000000
    231 O2    s       0.000072     -0.000338      0.000110      0.000000
    232 O2    s      -0.000407      0.000411     -0.001266      0.000000
    233 O2    s       0.000380      0.000138     -0.000046      0.000000
    234 O2    s       0.000366      0.000326      0.000511      0.000000
    235 O2    s       0.000056      0.000618     -0.000599      0.000000
    236 O2    s       0.000282     -0.000174      0.000443      0.000000
    237 O2    s       0.000003      0.000194      0.000969      0.000000
    238 O2    s       0.000223     -0.000270     -0.001093      0.000000
    239 O3    s       0.002295      0.001317     -0.001142      0.000000
    240 O2    s      -0.000109      0.000324     -0.000224      0.000000
    241 O2    s       0.000009     -0.000705      0.000057      0.000000
    242 O2    s       0.000093      0.000288      0.000802      0.000000
    243 O2    s      -0.000082     -0.000010      0.000108      0.000000
    244 O2    s       0.000387     -0.000184      0.000744      0.000000
    245 O3    s       0.000054      0.000555     -0.000926      0.000000
    246 O2    s       0.000218     -0.000809      0.001021      0.000000
    247 O2    s       0.000700     -0.000078      0.001392      0.000000
    248 O2    s       0.000342      0.000512     -0.001081      0.000000
    249 O2    s      -0.000309     -0.000199      0.000122      0.000000
    250 O2    s      -0.000218     -0.000028      0.000967      0.000000
    251 O2    s       0.000301     -0.000036     -0.000244      0.000000
    252 O2    s       0.000478      0.000180     -0.000135      0.000000
    253 O1    s       0.002550      0.001362      0.005257      0.000000
    254 O2    s      -0.000140      0.000431      0.000705      0.000000
    255 O2    s      -0.000161     -0.000099      0.000092      0.000000
    256 O2    s       0.000178      0.000044      0.000001      0.000000
    257 O2    s       0.000073     -0.000297     -0.000484      0.000000
    258 O2    s       0.000199      0.000039      0.000519      0.000000
    259 O2    s       0.000272      0.000340      0.000009      0.000000
    260 O2    s       0.000431     -0.000359      0.000217      0.000000
    261 O2    s       0.000122      0.000111      0.000568      0.000000
    262 O2    s      -0.000356      0.000198     -0.000742      0.000000
    263 O2    s      -0.000016      0.000280      0.000392      0.000000
    264 O2    s      -0.000304     -0.000756      0.000003      0.000000
    265 O3    s      -0.001183     -0.002094      0.000663      0.000000
    266 O2    s       0.000203      0.000386      0.000125      0.000000
    267 O2    s      -0.000087     -0.000009     -0.000039      0.000000
    268 O2    s       0.000187      0.000060      0.000400      0.000000
    269 O2    s       0.000307     -0.000277      0.000014      0.000000
    270 O2    s       0.000402      0.000032      0.000629      0.000000
    271 O2    s       0.000121      0.000532      0.000582      0.000000
    272 O2    s       0.000253     -0.000793      0.000627      0.000000
    273 O2    s       0.000168     -0.000183      0.001196      0.000000
    274 O3    s       0.001209      0.000146     -0.000874      0.000000
    275 O2    s      -0.000043      0.000279      0.000012      0.000000
    276 O2    s       0.000361     -0.000323      0.002357      0.000000
    277 O2    s       0.000456     -0.000860     -0.000225      0.000000
    278 O2    s       0.000384     -0.000046      0.000268      0.000000
    279 O2    s      -0.000027      0.000123     -0.000152      0.000000
    280 O2    s       0.000367     -0.000057      0.000581      0.000000
    281 O3    s       0.000535     -0.000501      0.001159      0.000000
    282 O3    s      -0.000319      0.000280     -0.005120      0.000000
    283 O2    s       0.000127      0.000445      0.000639      0.000000
    284 O2    s       0.001067      0.002056      0.002322      0.000000
    285 O2    s      -0.000155      0.000051      0.000566      0.000000
    286 O2    s       0.000842     -0.000940      0.000026      0.000000
    287 O2    s       0.000178     -0.000131      0.000087      0.000000
    288 O2    s       0.000455      0.000100     -0.000013      0.000000
    289 O2    s       0.000409     -0.000483      0.000221      0.000000
    290 O2    s       0.000261      0.000411      0.000070      0.000000
    291 O2    s      -0.000141     -0.000044      0.000503      0.000000
    292 O2    s       0.000756     -0.000178     -0.000014      0.000000
    293 O2    s      -0.000475      0.000202     -0.001008      0.000000
    294 O2    s       0.000751     -0.000124      0.001296      0.000000
    295 O2    s       0.000260      0.000015      0.001147      0.000000
    296 O3    s       0.002533      0.001843     -0.001704      0.000000
    297 O2    s      -0.000033     -0.000097      0.001214      0.000000
    298 O2    s      -0.000302      0.000107      0.000896      0.000000
    299 O2    s      -0.000006     -0.000142      0.000113      0.000000
    300 O2    s       0.000192      0.000030     -0.000822      0.000000
    301 O2    s      -0.000183      0.000453     -0.000048      0.000000
    302 O2    s      -0.000013      0.000159     -0.000283      0.000000
    303 O2    s      -0.000493      0.000194     -0.000091      0.000000
    304 O2    s      -0.000200      0.000415      0.000218      0.000000
    305 O2    s       0.001249      0.000261      0.003538      0.000000
    306 O2    s       0.000897     -0.000375      0.000701      0.000000
    307 F     s      -0.000072      0.000032      0.000360      0.000000
    308 F     s       0.000111     -0.000054     -0.000130      0.000000
    309 F     s       0.000253      0.000062     -0.000049      0.000000
    310 F     s      -0.000326     -0.000053      0.000170      0.000000
    311 F     s      -0.006364      0.003068     -0.004708      0.000000
    312 F     s       0.000019      0.000115      0.000100      0.000000
--------------------------------------------------------------------------------
  Maximum abs         0.006364      0.005295      0.006488      0.000000
--------------------------------------------------------------------------------


  Time to end of optimisation =     938.2664 seconds


  Peak dynamic memory used =      19.13 MB 


  Timing analysis for GULP :

--------------------------------------------------------------------------------
  Task / Subroutine                                          Time (Seconds)
--------------------------------------------------------------------------------
  Calculation of reciprocal space energy and derivatives         22.2042
  Calculation of real space energy and derivatives              819.8935
  Calculation of three-body energy and derivatives               86.1024
  Calculation of matrix inversion                                 8.9389
  Global summation overhead                                       0.0015
--------------------------------------------------------------------------------
  Total CPU time                                                938.2664
--------------------------------------------------------------------------------


  Dump file written as out.res                                                 
  CIF file written as out.cif                                                 


  Job Finished at 00:39.42  7th November   2016                               

