********************************************************************************
*                       GENERAL UTILITY LATTICE PROGRAM                        *
*                                 Julian Gale                                  *
*                      Nanochemistry Research Institute                        *
*                           Department of Chemistry                            *
*                    Curtin University, Western Australia                      *
********************************************************************************
* Version = 4.2.0 * Last modified =  20th January 2014                         *
********************************************************************************
*  optimise     - perform optimisation run                                     *
*  conp         - constant pressure calculation                                *
*  qok          - running with non charge neutral cell is OK                   *
********************************************************************************

  Job Started  at 02:05.56  7th November   2016                               

  Number of CPUs =     1


  Total number of configurations input =   1

********************************************************************************
*  Input for Configuration =   1                                               *
********************************************************************************

  Formula = Ge3Si57O120F6                                               

  Number of irreducible atoms/shells =     312


  Total number atoms/shells =     312

  Dimensionality = 3               :  Bulk   


  Charge on solid   =  -6.000000 =>neutralising background added


  Cartesian lattice vectors (Angstroms) :

       11.970522    0.000000    0.000000
       -6.052552   10.362211    0.000000
       -0.135809   -0.122114   29.448650

  Cell parameters (Angstroms/Degrees):

  a =      11.9705    alpha =  90.0719
  b =      12.0004    beta  =  90.2642
  c =      29.4492    gamma = 120.2891

  Initial cell volume =        3652.842148 Angs**3

  Temperature of configuration =  0.000     K 

  Pressure of configuration =         0.000 GPa 

  Fractional coordinates of asymmetric unit :

--------------------------------------------------------------------------------
   No.  Atomic       x           y          z         Charge      Occupancy
        Label      (Frac)      (Frac)     (Frac)        (e)         (Frac)  
--------------------------------------------------------------------------------
      1 Ge    c    0.699600    0.375700    0.033890     4.00000    1.000000    
      2 Si    c    0.621241 *  0.323812 *  0.367334 *   4.00000    1.000000    
      3 Si    c    0.677867 *  0.296609 *  0.699647 *   4.00000    1.000000    
      4 Si    c    0.296025 *  0.620813 *  0.532092 *   4.00000    1.000000    
      5 Si    c    0.381031 *  0.675558 *  0.864305 *   4.00000    1.000000    
      6 Si    c    0.322330 *  0.703716 *  0.199907 *   4.00000    1.000000    
      7 Si    c    0.376613 *  0.699841 *  0.300517 *   4.00000    1.000000    
      8 Si    c    0.329396 *  0.624154 *  0.964716 *   4.00000    1.000000    
      9 Si    c    0.297858 *  0.676156 *  0.632773 *   4.00000    1.000000    
     10 Si    c    0.623747 *  0.295313 *  0.800275 *   4.00000    1.000000    
     11 Si    c    0.675809 *  0.380595 *  0.467990 *   4.00000    1.000000    
     12 Si    c    0.693852 *  0.318011 *  0.134733 *   4.00000    1.000000    
     13 Si    c    0.526889 *  0.412520 *  0.966758 *   4.00000    1.000000    
     14 Si    c    0.583680 *  0.110887 *  0.303983 *   4.00000    1.000000    
     15 Si    c    0.887295 *  0.469163 *  0.634554 *   4.00000    1.000000    
     16 Si    c    0.467994 *  0.583577 *  0.466912 *   4.00000    1.000000    
     17 Si    c    0.418153 *  0.885591 *  0.799690 *   4.00000    1.000000    
     18 Si    c    0.113940 *  0.531416 *  0.132523 *   4.00000    1.000000    
     19 Si    c    0.416042 *  0.528377 *  0.365106 *   4.00000    1.000000    
     20 Si    c    0.119770 *  0.589518 *  0.028652 *   4.00000    1.000000    
     21 Si    c    0.470240 *  0.886997 *  0.697987 *   4.00000    1.000000    
     22 Si    c    0.581970 *  0.465781 *  0.864823 *   4.00000    1.000000    
     23 Si    c    0.886436 *  0.417016 *  0.532815 *   4.00000    1.000000    
     24 Si    c    0.530747 *  0.110948 *  0.202473 *   4.00000    1.000000    
     25 Si    c    0.301633 *  0.397633 *  0.849550 *   4.00000    1.000000    
     26 Si    c    0.602517 *  0.904134 *  0.186349 *   4.00000    1.000000    
     27 Si    c    0.094811 *  0.697620 *  0.517918 *   4.00000    1.000000    
     28 Si    c    0.697116 *  0.600518 *  0.351524 *   4.00000    1.000000    
     29 Si    c    0.398811 *  0.095401 *  0.684233 *   4.00000    1.000000    
     30 Ge    c    0.900324 *  0.301158 *  0.014042 *   4.00000    1.000000    
     31 Si    c    0.396983 *  0.303466 *  0.481705 *   4.00000    1.000000    
     32 Si    c    0.899245 *  0.602639 *  0.147809 *   4.00000    1.000000    
     33 Si    c    0.700748 *  0.094610 *  0.814607 *   4.00000    1.000000    
     34 Si    c    0.606285 *  0.696935 *  0.979938 *   4.00000    1.000000    
     35 Si    c    0.096860 *  0.397863 *  0.647973 *   4.00000    1.000000    
     36 Si    c    0.301312 *  0.901059 *  0.316642 *   4.00000    1.000000    
     37 Si    c    0.249517 *  0.341911 *  0.949880 *   4.00000    1.000000    
     38 Si    c    0.659582 *  0.909702 *  0.287280 *   4.00000    1.000000    
     39 Si    c    0.088732 *  0.748214 *  0.618710 *   4.00000    1.000000    
     40 Si    c    0.747125 *  0.660616 *  0.452253 *   4.00000    1.000000    
     41 Si    c    0.341252 *  0.086650 *  0.784895 *   4.00000    1.000000    
     42 Si    c    0.910216 *  0.248256 *  0.117422 *   4.00000    1.000000    
     43 Si    c    0.339649 *  0.250661 *  0.380909 *   4.00000    1.000000    
     44 Ge    c    0.908881 *  0.661408 *  0.044445 *   4.00000    1.000000    
     45 Si    c    0.749949 *  0.088507 *  0.713722 *   4.00000    1.000000    
     46 Si    c    0.661409 *  0.745256 *  0.879058 *   4.00000    1.000000    
     47 Si    c    0.087276 *  0.339435 *  0.547161 *   4.00000    1.000000    
     48 Si    c    0.250241 *  0.910960 *  0.215964 *   4.00000    1.000000    
     49 Si    c    0.970291 *  0.121153 *  0.963560 *   4.00000    1.000000    
     50 Si    c    0.877189 *  0.847708 *  0.300909 *   4.00000    1.000000    
     51 Si    c    0.150512 *  0.028007 *  0.633079 *   4.00000    1.000000    
     52 Si    c    0.027919 *  0.878254 *  0.467210 *   4.00000    1.000000    
     53 Si    c    0.123536 *  0.148464 *  0.798604 *   4.00000    1.000000    
     54 Si    c    0.848352 *  0.970621 *  0.134336 *   4.00000    1.000000    
     55 Si    c    0.121758 *  0.969552 *  0.366311 *   4.00000    1.000000    
     56 Si    c    0.853955 *  0.885381 *  0.032001 *   4.00000    1.000000    
     57 Si    c    0.029485 *  0.149608 *  0.697833 *   4.00000    1.000000    
     58 Si    c    0.880517 *  0.023181 *  0.863508 *   4.00000    1.000000    
     59 Si    c    0.149568 *  0.122288 *  0.532342 *   4.00000    1.000000    
     60 Si    c    0.970222 *  0.849336 *  0.199886 *   4.00000    1.000000    
     61 O2    c    0.925823 *  0.010207 *  0.000789 *   0.87073    1.000000    
     62 O2    c    0.001025 *  0.927414 *  0.332901 *   0.87073    1.000000    
     63 O2    c    0.069021 *  0.069718 *  0.664525 *   0.87073    1.000000    
     64 O2    c    0.070501 *  0.001067 *  0.499244 *   0.87073    1.000000    
     65 O2    c    0.000005 *  0.066413 *  0.829975 *   0.87073    1.000000    
     66 O2    c    0.929541 *  0.927676 *  0.166043 *   0.87073    1.000000    
     67 O2    c    0.338441 *  0.575709 *  0.332356 *   0.87073    1.000000    
     68 O2    c    0.421932 *  0.761775 *  0.665323 *   0.87073    1.000000    
     69 O2    c    0.250448 *  0.666119 *  0.998779 *   0.87073    1.000000    
     70 O2    c    0.660451 *  0.417593 *  0.833168 *   0.87073    1.000000    
     71 O2    c    0.582112 *  0.238543 *  0.171673 *   0.87073    1.000000    
     72 O2    c    0.759168 *  0.340931 *  0.500678 *   0.87073    1.000000    
     73 O3    c    0.562603 *  0.331840 *  0.999638 *   1.33043    1.000000    
     74 O2    c    0.762572 *  0.420249 *  0.667160 *   0.87073    1.000000    
     75 O2    c    0.660514 *  0.237182 *  0.336150 *   0.87073    1.000000    
     76 O2    c    0.418608 *  0.659733 *  0.499049 *   0.87073    1.000000    
     77 O2    c    0.238091 *  0.582355 *  0.165815 *   0.87073    1.000000    
     78 O2    c    0.341964 *  0.759850 *  0.831701 *   0.87073    1.000000    
     79 O2    c    0.124090 *  0.217228 *  0.970861 *   0.87073    1.000000    
     80 O2    c    0.785935 *  0.909882 *  0.307481 *   0.87073    1.000000    
     81 O2    c    0.087994 *  0.873974 *  0.638660 *   0.87073    1.000000    
     82 O2    c    0.873311 *  0.787857 *  0.472464 *   0.87073    1.000000    
     83 O2    c    0.215120 *  0.086527 *  0.804863 *   0.87073    1.000000    
     84 O2    c    0.910167 *  0.124990 *  0.140381 *   0.87073    1.000000    
     85 O2    c    0.213300 *  0.123560 *  0.360622 *   0.87073    1.000000    
     86 O3    c    0.929550 *  0.809862 *  0.027002 *   1.33043    1.000000    
     87 O2    c    0.874931 *  0.087332 *  0.693167 *   0.87073    1.000000    
     88 O2    c    0.787658 *  0.869303 *  0.857686 *   0.87073    1.000000    
     89 O2    c    0.085587 *  0.212288 *  0.527246 *   0.87073    1.000000    
     90 O2    c    0.125299 *  0.913822 *  0.195836 *   0.87073    1.000000    
     91 O2    c    0.927153 *  0.862568 *  0.249862 *   0.87073    1.000000    
     92 O2    c    0.137755 *  0.067350 *  0.582390 *   0.87073    1.000000    
     93 O2    c    0.937631 *  0.057125 *  0.913957 *   0.87073    1.000000    
     94 O2    c    0.072220 *  0.134960 *  0.747695 *   0.87073    1.000000    
     95 O2    c    0.856899 *  0.932825 *  0.083311 *   0.87073    1.000000    
     96 O2    c    0.067557 *  0.930283 *  0.416583 *   0.87073    1.000000    
     97 O3    c    0.900056 *  0.201000 *  0.971191 *   1.33043    1.000000    
     98 O2    c    0.795405 *  0.696060 *  0.312885 *   0.87073    1.000000    
     99 O2    c    0.302280 *  0.098196 *  0.645780 *   0.87073    1.000000    
    100 O2    c    0.096544 *  0.795922 *  0.479600 *   0.87073    1.000000    
    101 O2    c    0.203901 *  0.300113 *  0.810785 *   0.87073    1.000000    
    102 O2    c    0.697361 *  0.900870 *  0.147901 *   0.87073    1.000000    
    103 O2    c    0.203522 *  0.899468 *  0.354991 *   0.87073    1.000000    
    104 O2    c    0.702652 *  0.792269 *  0.019159 *   0.87073    1.000000    
    105 O2    c    0.099353 *  0.301488 *  0.686107 *   0.87073    1.000000    
    106 O2    c    0.798762 *  0.094229 *  0.852996 *   0.87073    1.000000    
    107 O2    c    0.301254 *  0.206343 *  0.520292 *   0.87073    1.000000    
    108 O2    c    0.903589 *  0.697396 *  0.188342 *   0.87073    1.000000    
    109 O2    c    0.320463 *  0.643743 *  0.249745 *   0.87073    1.000000    
    110 O2    c    0.354865 *  0.677633 *  0.582382 *   0.87073    1.000000    
    111 O2    c    0.324097 *  0.678332 *  0.914363 *   0.87073    1.000000    
    112 O2    c    0.680244 *  0.353859 *  0.750119 *   0.87073    1.000000    
    113 O3    c    0.626656 *  0.311833 *  0.087256 *   1.33043    1.000000    
    114 O2    c    0.677636 *  0.324513 *  0.417754 *   0.87073    1.000000    
    115 O2    c    0.369628 *  0.328989 *  0.967274 *   0.87073    1.000000    
    116 O2    c    0.670717 *  0.041898 *  0.306259 *   0.87073    1.000000    
    117 O2    c    0.956516 *  0.625546 *  0.637192 *   0.87073    1.000000    
    118 O2    c    0.624790 *  0.671297 *  0.469940 *   0.87073    1.000000    
    119 O2    c    0.330644 *  0.953974 *  0.802826 *   0.87073    1.000000    
    120 O2    c    0.040676 *  0.375638 *  0.135306 *   0.87073    1.000000    
    121 O2    c    0.328886 *  0.371885 *  0.362011 *   0.87073    1.000000    
    122 O3    c    0.055648 *  0.678160 *  0.027825 *   1.33043    1.000000    
    123 O2    c    0.626794 *  0.956163 *  0.695097 *   0.87073    1.000000    
    124 O2    c    0.669025 *  0.621962 *  0.860825 *   0.87073    1.000000    
    125 O2    c    0.954270 *  0.329197 *  0.528944 *   0.87073    1.000000    
    126 O2    c    0.374281 *  0.042518 *  0.197916 *   0.87073    1.000000    
    127 O1    c    0.752968 *  0.285143 *  0.005089 *   1.73396    1.000000    
    128 O2    c    0.696254 *  0.466136 *  0.344242 *   0.87073    1.000000    
    129 O2    c    0.534050 *  0.229090 *  0.677018 *   0.87073    1.000000    
    130 O2    c    0.227933 *  0.696148 *  0.509972 *   0.87073    1.000000    
    131 O2    c    0.305435 *  0.532888 *  0.840922 *   0.87073    1.000000    
    132 O2    c    0.465799 *  0.772218 *  0.177809 *   0.87073    1.000000    
    133 O2    c    0.300678 *  0.766642 *  0.322954 *   0.87073    1.000000    
    134 O2    c    0.473793 *  0.700401 *  0.986562 *   0.87073    1.000000    
    135 O2    c    0.230942 *  0.533014 *  0.655078 *   0.87073    1.000000    
    136 O2    c    0.700139 *  0.228110 *  0.822441 *   0.87073    1.000000    
    137 O2    c    0.531743 *  0.305385 *  0.489674 *   0.87073    1.000000    
    138 O2    c    0.769143 *  0.465035 *  0.154737 *   0.87073    1.000000    
    139 O1    c    0.772864 *  0.542271 *  0.020725 *   1.73396    1.000000    
    140 O2    c    0.464791 *  0.248818 *  0.361692 *   0.87073    1.000000    
    141 O2    c    0.752149 *  0.215342 *  0.694367 *   0.87073    1.000000    
    142 O2    c    0.213784 *  0.464489 *  0.527258 *   0.87073    1.000000    
    143 O2    c    0.537591 *  0.750262 *  0.859780 *   0.87073    1.000000    
    144 O2    c    0.246049 *  0.783394 *  0.195832 *   0.87073    1.000000    
    145 O2    c    0.532939 *  0.783045 *  0.305990 *   0.87073    1.000000    
    146 O2    c    0.250809 *  0.468007 *  0.970094 *   0.87073    1.000000    
    147 O2    c    0.215664 *  0.749550 *  0.637963 *   0.87073    1.000000    
    148 O2    c    0.467373 *  0.212502 *  0.804866 *   0.87073    1.000000    
    149 O2    c    0.748729 *  0.536676 *  0.472552 *   0.87073    1.000000    
    150 O2    c    0.784733 *  0.253068 *  0.134069 *   0.87073    1.000000    
    151 O2    c    0.226819 *  0.324849 *  0.895482 *   0.87073    1.000000    
    152 O2    c    0.676440 *  0.907632 *  0.232928 *   0.87073    1.000000    
    153 O2    c    0.090639 *  0.767520 *  0.564360 *   0.87073    1.000000    
    154 O2    c    0.767609 *  0.676677 *  0.397895 *   0.87073    1.000000    
    155 O2    c    0.323791 *  0.089504 *  0.730523 *   0.87073    1.000000    
    156 O3    c    0.913442 *  0.230680 *  0.064119 *   1.33043    1.000000    
    157 O2    c    0.322025 *  0.232182 *  0.435217 *   0.87073    1.000000    
    158 O3    c    0.898722 *  0.675521 *  0.103146 *   1.33043    1.000000    
    159 O2    c    0.770459 *  0.090865 *  0.768064 *   0.87073    1.000000    
    160 O2    c    0.682088 *  0.765426 *  0.933445 *   0.87073    1.000000    
    161 O2    c    0.090516 *  0.322778 *  0.601449 *   0.87073    1.000000    
    162 O2    c    0.231709 *  0.908173 *  0.270306 *   0.87073    1.000000    
    163 O2    c    0.585186 *  0.555822 *  0.989062 *   0.87073    1.000000    
    164 O2    c    0.442044 *  0.024785 *  0.326540 *   0.87073    1.000000    
    165 O2    c    0.972306 *  0.412656 *  0.657184 *   0.87073    1.000000    
    166 O2    c    0.411063 *  0.442765 *  0.490001 *   0.87073    1.000000    
    167 O2    c    0.560150 *  0.969945 *  0.822858 *   0.87073    1.000000    
    168 O2    c    0.023689 *  0.584695 *  0.151467 *   0.87073    1.000000    
    169 O2    c    0.557599 *  0.586395 *  0.342104 *   0.87073    1.000000    
    170 O3    c    0.031440 *  0.452992 *  0.004246 *   1.33043    1.000000    
    171 O2    c    0.412285 *  0.970211 *  0.674876 *   0.87073    1.000000    
    172 O2    c    0.439788 *  0.407606 *  0.841771 *   0.87073    1.000000    
    173 O2    c    0.968747 *  0.557780 *  0.509211 *   0.87073    1.000000    
    174 O2    c    0.590943 *  0.031012 *  0.178396 *   0.87073    1.000000    
    175 O2    c    0.583048 *  0.163839 *  0.253359 *   0.87073    1.000000    
    176 O2    c    0.833473 *  0.415864 *  0.583632 *   0.87073    1.000000    
    177 O2    c    0.582580 *  0.415873 *  0.915832 *   0.87073    1.000000    
    178 O2    c    0.417160 *  0.833250 *  0.748622 *   0.87073    1.000000    
    179 O2    c    0.158941 *  0.576522 *  0.080949 *   0.87073    1.000000    
    180 O2    c    0.415320 *  0.582283 *  0.415745 *   0.87073    1.000000    
    181 F     c    0.450632 *  0.902964 *  0.250636 *   0.56000    1.000000    
    182 F     c    0.095310 *  0.547089 *  0.582439 *   0.56000    1.000000    
    183 F     c    0.449924 *  0.549131 *  0.913899 *   0.56000    1.000000    
    184 F     c    0.549719 *  0.095304 *  0.748933 *   0.56000    1.000000    
    185 F     c    0.871981 *  0.444386 *  0.069907 *   0.56000    1.000000    
    186 F     c    0.546928 *  0.452536 *  0.415989 *   0.56000    1.000000    
    187 O2    s    0.922618 *  0.008471 *  0.000159 *  -2.87073    1.000000    
    188 O2    s    0.000585 *  0.923133 *  0.333043 *  -2.87073    1.000000    
    189 O2    s    0.073756 *  0.073955 *  0.664711 *  -2.87073    1.000000    
    190 O2    s    0.074569 *  0.000823 *  0.499346 *  -2.87073    1.000000    
    191 O2    s    0.000456 *  0.070786 *  0.830217 *  -2.87073    1.000000    
    192 O2    s    0.925120 *  0.923745 *  0.166309 *  -2.87073    1.000000    
    193 O2    s    0.350295 *  0.583705 *  0.332397 *  -2.87073    1.000000    
    194 O2    s    0.414045 *  0.765791 *  0.665297 *  -2.87073    1.000000    
    195 O2    s    0.245019 *  0.653991 *  0.998389 *  -2.87073    1.000000    
    196 O2    s    0.648652 *  0.409844 *  0.832989 *  -2.87073    1.000000    
    197 O2    s    0.588393 *  0.233365 *  0.171052 *  -2.87073    1.000000    
    198 O2    s    0.763592 *  0.352898 *  0.500570 *  -2.87073    1.000000    
    199 O3    s    0.568712 *  0.343587 *  0.998639 *  -3.33043    1.000000    
    200 O2    s    0.766849 *  0.412692 *  0.667110 *  -2.87073    1.000000    
    201 O2    s    0.648518 *  0.232897 *  0.335999 *  -2.87073    1.000000    
    202 O2    s    0.411202 *  0.647883 *  0.499107 *  -2.87073    1.000000    
    203 O2    s    0.233530 *  0.589254 *  0.165768 *  -2.87073    1.000000    
    204 O2    s    0.353883 *  0.764328 *  0.831709 *  -2.87073    1.000000    
    205 O2    s    0.121088 *  0.220199 *  0.967934 *  -2.87073    1.000000    
    206 O2    s    0.782458 *  0.903276 *  0.304715 *  -2.87073    1.000000    
    207 O2    s    0.094698 *  0.877279 *  0.636030 *  -2.87073    1.000000    
    208 O2    s    0.876682 *  0.784275 *  0.469833 *  -2.87073    1.000000    
    209 O2    s    0.218492 *  0.093100 *  0.802154 *  -2.87073    1.000000    
    210 O2    s    0.903758 *  0.121520 *  0.137455 *  -2.87073    1.000000    
    211 O2    s    0.216630 *  0.120307 *  0.363302 *  -2.87073    1.000000    
    212 O3    s    0.920012 *  0.806624 *  0.028825 *  -3.33043    1.000000    
    213 O2    s    0.878508 *  0.094110 *  0.695764 *  -2.87073    1.000000    
    214 O2    s    0.784570 *  0.872954 *  0.860484 *  -2.87073    1.000000    
    215 O2    s    0.092533 *  0.215833 *  0.529809 *  -2.87073    1.000000    
    216 O2    s    0.121842 *  0.906710 *  0.198328 *  -2.87073    1.000000    
    217 O2    s    0.926402 *  0.859401 *  0.249959 *  -2.87073    1.000000    
    218 O2    s    0.140533 *  0.069168 *  0.582407 *  -2.87073    1.000000    
    219 O2    s    0.934837 *  0.060389 *  0.913779 *  -2.87073    1.000000    
    220 O2    s    0.073149 *  0.138169 *  0.747765 *  -2.87073    1.000000    
    221 O2    s    0.855599 *  0.932065 *  0.083664 *  -2.87073    1.000000    
    222 O2    s    0.069262 *  0.928886 *  0.416564 *  -2.87073    1.000000    
    223 O3    s    0.907559 *  0.200289 *  0.973664 *  -3.33043    1.000000    
    224 O2    s    0.794124 *  0.702477 *  0.315526 *  -2.87073    1.000000    
    225 O2    s    0.295924 *  0.090431 *  0.648337 *  -2.87073    1.000000    
    226 O2    s    0.089059 *  0.794663 *  0.482184 *  -2.87073    1.000000    
    227 O2    s    0.205254 *  0.293819 *  0.813429 *  -2.87073    1.000000    
    228 O2    s    0.703500 *  0.908572 *  0.150453 *  -2.87073    1.000000    
    229 O2    s    0.204936 *  0.907013 *  0.352242 *  -2.87073    1.000000    
    230 O2    s    0.708411 *  0.792091 *  0.016446 *  -2.87073    1.000000    
    231 O2    s    0.091714 *  0.295321 *  0.683433 *  -2.87073    1.000000    
    232 O2    s    0.797356 *  0.086876 *  0.850204 *  -2.87073    1.000000    
    233 O2    s    0.294966 *  0.207421 *  0.517591 *  -2.87073    1.000000    
    234 O2    s    0.910193 *  0.703884 *  0.185499 *  -2.87073    1.000000    
    235 O2    s    0.326299 *  0.655517 *  0.249769 *  -2.87073    1.000000    
    236 O2    s    0.343046 *  0.671660 *  0.582351 *  -2.87073    1.000000    
    237 O2    s    0.330356 *  0.672535 *  0.914409 *  -2.87073    1.000000    
    238 O2    s    0.674267 *  0.342053 *  0.750057 *  -2.87073    1.000000    
    239 O3    s    0.638668 *  0.317005 *  0.088318 *  -3.33043    1.000000    
    240 O2    s    0.671606 *  0.330215 *  0.417682 *  -2.87073    1.000000    
    241 O2    s    0.372430 *  0.339016 *  0.965262 *  -2.87073    1.000000    
    242 O2    s    0.660602 *  0.035182 *  0.304034 *  -2.87073    1.000000    
    243 O2    s    0.963258 *  0.622321 *  0.634972 *  -2.87073    1.000000    
    244 O2    s    0.621454 *  0.661143 *  0.467761 *  -2.87073    1.000000    
    245 O2    s    0.340727 *  0.960848 *  0.800618 *  -2.87073    1.000000    
    246 O2    s    0.034892 *  0.378807 *  0.133183 *  -2.87073    1.000000    
    247 O2    s    0.338968 *  0.375322 *  0.364310 *  -2.87073    1.000000    
    248 O3    s    0.050560 *  0.667882 *  0.029214 *  -3.33043    1.000000    
    249 O2    s    0.623572 *  0.962946 *  0.697366 *  -2.87073    1.000000    
    250 O2    s    0.659256 *  0.618903 *  0.863166 *  -2.87073    1.000000    
    251 O2    s    0.961190 *  0.339284 *  0.531254 *  -2.87073    1.000000    
    252 O2    s    0.377297 *  0.035673 *  0.200286 *  -2.87073    1.000000    
    253 O1    s    0.761025 *  0.292961 *  0.007939 *  -3.73396    1.000000    
    254 O2    s    0.688643 *  0.465602 *  0.347399 *  -2.87073    1.000000    
    255 O2    s    0.534594 *  0.221953 *  0.680136 *  -2.87073    1.000000    
    256 O2    s    0.220938 *  0.688560 *  0.513109 *  -2.87073    1.000000    
    257 O2    s    0.312763 *  0.533252 *  0.844249 *  -2.87073    1.000000    
    258 O2    s    0.465222 *  0.778930 *  0.181030 *  -2.87073    1.000000    
    259 O2    s    0.308531 *  0.773892 *  0.319946 *  -2.87073    1.000000    
    260 O2    s    0.472706 *  0.692132 *  0.983551 *  -2.87073    1.000000    
    261 O2    s    0.223667 *  0.533467 *  0.651995 *  -2.87073    1.000000    
    262 O2    s    0.692431 *  0.221023 *  0.819334 *  -2.87073    1.000000    
    263 O2    s    0.532368 *  0.312970 *  0.486550 *  -2.87073    1.000000    
    264 O2    s    0.775458 *  0.464934 *  0.151965 *  -2.87073    1.000000    
    265 O1    s    0.779755 *  0.541433 *  0.023538 *  -3.73396    1.000000    
    266 O2    s    0.467586 *  0.256905 *  0.364315 *  -2.87073    1.000000    
    267 O2    s    0.744090 *  0.210013 *  0.696980 *  -2.87073    1.000000    
    268 O2    s    0.208595 *  0.467248 *  0.529874 *  -2.87073    1.000000    
    269 O2    s    0.534632 *  0.741834 *  0.862312 *  -2.87073    1.000000    
    270 O2    s    0.254464 *  0.788757 *  0.198377 *  -2.87073    1.000000    
    271 O2    s    0.530352 *  0.788208 *  0.303411 *  -2.87073    1.000000    
    272 O2    s    0.258828 *  0.470745 *  0.967424 *  -2.87073    1.000000    
    273 O2    s    0.210315 *  0.741673 *  0.635360 *  -2.87073    1.000000    
    274 O2    s    0.470001 *  0.207353 *  0.802235 *  -2.87073    1.000000    
    275 O2    s    0.740822 *  0.533785 *  0.469899 *  -2.87073    1.000000    
    276 O2    s    0.789024 *  0.259310 *  0.132312 *  -2.87073    1.000000    
    277 O2    s    0.236985 *  0.334257 *  0.896366 *  -2.87073    1.000000    
    278 O2    s    0.666858 *  0.907474 *  0.233787 *  -2.87073    1.000000    
    279 O2    s    0.090871 *  0.758115 *  0.565219 *  -2.87073    1.000000    
    280 O2    s    0.758050 *  0.666990 *  0.398754 *  -2.87073    1.000000    
    281 O2    s    0.333528 *  0.089816 *  0.731400 *  -2.87073    1.000000    
    282 O3    s    0.912109 *  0.237917 *  0.065786 *  -3.33043    1.000000    
    283 O2    s    0.331739 *  0.241609 *  0.434314 *  -2.87073    1.000000    
    284 O3    s    0.899468 *  0.666728 *  0.103345 *  -3.33043    1.000000    
    285 O2    s    0.761022 *  0.091010 *  0.767169 *  -2.87073    1.000000    
    286 O2    s    0.672123 *  0.756269 *  0.932541 *  -2.87073    1.000000    
    287 O2    s    0.090831 *  0.332418 *  0.600540 *  -2.87073    1.000000    
    288 O2    s    0.240946 *  0.907726 *  0.269366 *  -2.87073    1.000000    
    289 O2    s    0.581373 *  0.556854 *  0.985781 *  -2.87073    1.000000    
    290 O2    s    0.441716 *  0.020285 *  0.323108 *  -2.87073    1.000000    
    291 O2    s    0.977034 *  0.417152 *  0.653818 *  -2.87073    1.000000    
    292 O2    s    0.415682 *  0.442478 *  0.486676 *  -2.87073    1.000000    
    293 O2    s    0.560540 *  0.974818 *  0.819534 *  -2.87073    1.000000    
    294 O2    s    0.020021 *  0.580752 *  0.149016 *  -2.87073    1.000000    
    295 O2    s    0.557831 *  0.581695 *  0.345511 *  -2.87073    1.000000    
    296 O3    s    0.029394 *  0.454326 *  0.007478 *  -3.33043    1.000000    
    297 O2    s    0.417035 *  0.975200 *  0.678288 *  -2.87073    1.000000    
    298 O2    s    0.439807 *  0.412760 *  0.845012 *  -2.87073    1.000000    
    299 O2    s    0.973954 *  0.558229 *  0.512602 *  -2.87073    1.000000    
    300 O2    s    0.585819 *  0.025536 *  0.181735 *  -2.87073    1.000000    
    301 O2    s    0.577574 *  0.152671 *  0.253314 *  -2.87073    1.000000    
    302 O2    s    0.844570 *  0.421507 *  0.583620 *  -2.87073    1.000000    
    303 O2    s    0.577008 *  0.420833 *  0.915541 *  -2.87073    1.000000    
    304 O2    s    0.422788 *  0.844273 *  0.748636 *  -2.87073    1.000000    
    305 O2    s    0.150268 *  0.572958 *  0.081282 *  -2.87073    1.000000    
    306 O2    s    0.420830 *  0.576832 *  0.415784 *  -2.87073    1.000000    
    307 F     s    0.450339 *  0.902587 *  0.250528 *  -1.56000    1.000000    
    308 F     s    0.095695 *  0.547244 *  0.582379 *  -1.56000    1.000000    
    309 F     s    0.449343 *  0.549611 *  0.913793 *  -1.56000    1.000000    
    310 F     s    0.549961 *  0.095781 *  0.748880 *  -1.56000    1.000000    
    311 F     s    0.866107 *  0.442409 *  0.068109 *  -1.56000    1.000000    
    312 F     s    0.547121 *  0.452354 *  0.415909 *  -1.56000    1.000000    
--------------------------------------------------------------------------------



********************************************************************************
*  General input information                                                   *
********************************************************************************

  Species output for all configurations : 

--------------------------------------------------------------------------------
  Species    Type    Atomic    Atomic    Charge       Radii (Angs)     Library
                     Number     Mass       (e)     Cova   Ionic  VDW   Symbol
--------------------------------------------------------------------------------
    Si       Core       14      28.09   4.000000   1.200  0.000  2.100          
    O1       Core        8      16.00   1.733957   0.730  0.000  1.360          
    O1       Shell       8       0.00  -3.733957   0.730  0.000  1.360          
    O2       Core        8      16.00   0.870733   0.730  0.000  1.360          
    O2       Shell       8       0.00  -2.870733   0.730  0.000  1.360          
    O3       Core        8      16.00   1.330431   0.730  0.000  1.360          
    O3       Shell       8       0.00  -3.330431   0.730  0.000  1.360          
    F        Core        9      19.00   0.560000   0.710  0.000  1.300          
    F        Shell       9       0.00  -1.560000   0.710  0.000  1.300          
    Ge       Core       32      72.61   4.000000   1.170  0.000  1.750          
--------------------------------------------------------------------------------


  Lattice summation method               =    Ewald          (3-D)
                                         =    Parry          (2-D)
                                         =    Saunders et al (1-D)
  Accuracy factor for lattice sums       =   12.000


  Time limit = Infinity

  Maximum range for interatomic potentials =        16.000000 Angstroms

  Taper potentials to zero over   1.0000 Angstroms using polynomial

  General interatomic potentials :

--------------------------------------------------------------------------------
Atom  Types   Potential         A         B         C         D     Cutoffs(Ang)
  1     2                                                            Min    Max 
--------------------------------------------------------------------------------
Si   c O1   s Buckingham    0.132E+04 0.318      10.1      0.00     0.000 16.000
Si   c O2   s Buckingham    0.132E+04 0.318      10.1      0.00     0.000 16.000
Si   c O3   s Buckingham    0.132E+04 0.318      10.1      0.00     0.000 16.000
Ge   c O1   s Buckingham    0.150E+04 0.326      16.8      0.00     0.000 16.000
Ge   c O2   s Buckingham    0.150E+04 0.326      16.8      0.00     0.000 16.000
Ge   c O3   s Buckingham    0.150E+04 0.326      16.8      0.00     0.000 16.000
O1   s O1   s Buckingham    0.228E+05 0.149      10.9      0.00     0.000 16.000
O1   s O2   s Buckingham    0.228E+05 0.149      10.9      0.00     0.000 16.000
O1   s O3   s Buckingham    0.228E+05 0.149      10.9      0.00     0.000 16.000
O2   s O2   s Buckingham    0.228E+05 0.149      10.9      0.00     0.000 16.000
O2   s O3   s Buckingham    0.228E+05 0.149      10.9      0.00     0.000 16.000
O3   s O3   s Buckingham    0.228E+05 0.149      10.9      0.00     0.000 16.000
Si   c F    s Buckingham     977.     0.282      0.00      0.00     0.000 16.000
Ge   c F    s Buckingham     681.     0.320      0.00      0.00     0.000 16.000
F    s F    s Buckingham     540.     0.262      0.00      0.00     0.000 16.000
O1   s F    s Buckingham    0.168E+04 0.268      0.00      0.00     0.000 16.000
O2   s F    s Buckingham    0.168E+04 0.268      0.00      0.00     0.000 16.000
O3   s F    s Buckingham    0.168E+04 0.268      0.00      0.00     0.000 16.000
O2   c O2   s Spring (c-s)   76.0      0.00      0.00      0.00     0.000  0.800
O3   c O3   s Spring (c-s)   128.      0.00      0.00      0.00     0.000  0.800
O1   c O1   s Spring (c-s)   180.      0.00      0.00      0.00     0.000  0.800
F    c F    s Spring (c-s)   33.5      0.00      0.00      0.00     0.000  0.800
--------------------------------------------------------------------------------

  General Three-body potentials :

  Harmonic form:

--------------------------------------------------------------------------------
Atom    Atom    Atom           Force Constants            Theta     Cutoffs  
  1       2       3     (eVrad**-2/eVrad**-3/eVrad**-4)   (deg)  1-2  1-3  2-3
--------------------------------------------------------------------------------
Si    c O1    s O1    s  1.261        0.0000    0.0000   109.470 0.00 0.00 0.00
                                                                 1.90 1.90 3.50
Si    c O1    s O2    s  1.261        0.0000    0.0000   109.470 0.00 0.00 0.00
                                                                 1.90 1.90 3.50
Si    c O2    s O2    s  1.261        0.0000    0.0000   109.470 0.00 0.00 0.00
                                                                 1.90 1.90 3.50
--------------------------------------------------------------------------------

********************************************************************************
*  Output for configuration   1                                                *
********************************************************************************


  Components of energy : 

--------------------------------------------------------------------------------
  Interatomic potentials     =        2061.55819967 eV
  Three-body potentials      =           0.46597258 eV
  Monopole - monopole (real) =       -6608.26908756 eV
  Monopole - monopole (recip)=       -3173.16787578 eV
  Monopole - monopole (total)=       -9781.43696334 eV
  Neutralising energy        =          -6.46236737 eV
--------------------------------------------------------------------------------
  Total lattice energy       =       -7725.87515846 eV
--------------------------------------------------------------------------------
  Total lattice energy       =         -745428.8520 kJ/(mole unit cells)
--------------------------------------------------------------------------------


  Number of variables =      939

  Maximum number of calculations  =          5000
  Maximum Hessian update interval =            10
  Maximum step size               =   0.100000000
  Maximum parameter tolerance     =   0.000010000
  Maximum function  tolerance     =   0.000010000
  Maximum gradient  tolerance     =   0.001000000
  Maximum gradient  component     =   0.010000000

  Symmetry not applied to optimisation

  Cell parameters to be optimised using strains

  Newton-Raphson optimiser to be used

  BFGS hessian update to be used

  Dumpfile to be written after every cycle

  Start of bulk optimisation :

  Cycle:      0 Energy:     -7725.875158  Gnorm:      0.004608  CPU:    2.022
  ** Hessian calculated **
  Cycle:      1 Energy:     -7725.887528  Gnorm:      0.003906  CPU:    6.579
  Cycle:      2 Energy:     -7725.901231  Gnorm:      0.003036  CPU:   10.760
  Cycle:      3 Energy:     -7725.913139  Gnorm:      0.002578  CPU:   14.941
  Cycle:      4 Energy:     -7725.915344  Gnorm:      0.001764  CPU:   18.443
  Cycle:      5 Energy:     -7725.916168  Gnorm:      0.001084  CPU:   22.625
  Cycle:      6 Energy:     -7725.916350  Gnorm:      0.000605  CPU:   26.128
  Cycle:      7 Energy:     -7725.916412  Gnorm:      0.000382  CPU:   29.631
  Cycle:      8 Energy:     -7725.916426  Gnorm:      0.000254  CPU:   32.455
  Cycle:      9 Energy:     -7725.916433  Gnorm:      0.000179  CPU:   35.280
  Cycle:     10 Energy:     -7725.916436  Gnorm:      0.000126  CPU:   38.104
  ** Hessian calculated **
  Cycle:     11 Energy:     -7725.916436  Gnorm:      0.000069  CPU:   42.640
  Cycle:     12 Energy:     -7725.916436  Gnorm:      0.000051  CPU:   45.468
  Cycle:     13 Energy:     -7725.916436  Gnorm:      0.000040  CPU:   48.295
  Cycle:     14 Energy:     -7725.916436  Gnorm:      0.000033  CPU:   51.124


  **** Optimisation achieved ****


  Final energy =   -7725.91643623 eV
  Final Gnorm  =       0.00002976

  Components of energy : 

--------------------------------------------------------------------------------
  Interatomic potentials     =        2061.82817225 eV
  Three-body potentials      =           0.46854053 eV
  Monopole - monopole (real) =       -6608.60136940 eV
  Monopole - monopole (recip)=       -3173.14944845 eV
  Monopole - monopole (total)=       -9781.75081785 eV
  Neutralising energy        =          -6.46233116 eV
--------------------------------------------------------------------------------
  Total lattice energy       =       -7725.91643623 eV
--------------------------------------------------------------------------------
  Total lattice energy       =         -745432.8346 kJ/(mole unit cells)
--------------------------------------------------------------------------------

  Final fractional coordinates of atoms :

--------------------------------------------------------------------------------
   No.  Atomic        x           y          z          Radius
        Label       (Frac)      (Frac)     (Frac)       (Angs) 
--------------------------------------------------------------------------------
     1  Ge    c     0.699600    0.375700    0.033890    0.000000
     2  Si    c     0.606565    0.310049    0.366237    0.000000
     3  Si    c     0.667689    0.285469    0.698752    0.000000
     4  Si    c     0.281566    0.607604    0.530187    0.000000
     5  Si    c     0.370844    0.662703    0.862433    0.000000
     6  Si    c     0.308573    0.693658    0.198281    0.000000
     7  Si    c     0.361134    0.686214    0.298846    0.000000
     8  Si    c     0.318670    0.613348    0.962931    0.000000
     9  Si    c     0.287470    0.664957    0.630858    0.000000
    10  Si    c     0.613392    0.282868    0.799459    0.000000
    11  Si    c     0.661136    0.367629    0.466890    0.000000
    12  Si    c     0.680526    0.309044    0.133616    0.000000
    13  Si    c     0.520223    0.403932    0.966657    0.000000
    14  Si    c     0.568831    0.097247    0.303113    0.000000
    15  Si    c     0.876703    0.458243    0.633728    0.000000
    16  Si    c     0.452287    0.569488    0.464794    0.000000
    17  Si    c     0.408190    0.872682    0.797661    0.000000
    18  Si    c     0.101208    0.522499    0.130533    0.000000
    19  Si    c     0.400340    0.513602    0.362989    0.000000
    20  Si    c     0.109772    0.582377    0.026852    0.000000
    21  Si    c     0.460779    0.876033    0.695874    0.000000
    22  Si    c     0.573021    0.454036    0.864207    0.000000
    23  Si    c     0.872234    0.404511    0.531961    0.000000
    24  Si    c     0.517496    0.100843    0.201464    0.000000
    25  Si    c     0.292469    0.385251    0.848428    0.000000
    26  Si    c     0.588814    0.893886    0.185135    0.000000
    27  Si    c     0.080362    0.684777    0.516618    0.000000
    28  Si    c     0.681791    0.586051    0.349734    0.000000
    29  Si    c     0.388990    0.084335    0.682564    0.000000
    30  Ge    c     0.891043    0.292292    0.011065    0.000000
    31  Si    c     0.381779    0.289939    0.479921    0.000000
    32  Si    c     0.886372    0.594099    0.145828    0.000000
    33  Si    c     0.690483    0.081890    0.813078    0.000000
    34  Si    c     0.596048    0.687673    0.978495    0.000000
    35  Si    c     0.086656    0.387043    0.646630    0.000000
    36  Si    c     0.286286    0.887352    0.315388    0.000000
    37  Si    c     0.242187    0.332110    0.948935    0.000000
    38  Si    c     0.644257    0.896056    0.286124    0.000000
    39  Si    c     0.077819    0.736918    0.617439    0.000000
    40  Si    c     0.731849    0.647070    0.450475    0.000000
    41  Si    c     0.331299    0.073864    0.783281    0.000000
    42  Si    c     0.897051    0.239529    0.115303    0.000000
    43  Si    c     0.324504    0.236386    0.379139    0.000000
    44  Ge    c     0.902900    0.660851    0.042492    0.000000
    45  Si    c     0.740294    0.077664    0.712186    0.000000
    46  Si    c     0.651504    0.733327    0.877552    0.000000
    47  Si    c     0.073292    0.326611    0.545847    0.000000
    48  Si    c     0.236663    0.900526    0.214683    0.000000
    49  Si    c     0.962318    0.113432    0.961367    0.000000
    50  Si    c     0.861714    0.833601    0.299495    0.000000
    51  Si    c     0.140017    0.016665    0.631683    0.000000
    52  Si    c     0.012513    0.865064    0.465870    0.000000
    53  Si    c     0.114084    0.136176    0.797220    0.000000
    54  Si    c     0.835395    0.962338    0.133171    0.000000
    55  Si    c     0.106656    0.955432    0.364921    0.000000
    56  Si    c     0.842719    0.879933    0.030703    0.000000
    57  Si    c     0.020169    0.139134    0.696437    0.000000
    58  Si    c     0.870912    0.010796    0.861968    0.000000
    59  Si    c     0.134727    0.108967    0.530898    0.000000
    60  Si    c     0.956808    0.839800    0.198470    0.000000
    61  O2    c     0.911476    0.005840    0.000039    0.000000
    62  O2    c     0.985328    0.912479    0.331681    0.000000
    63  O2    c     0.059475    0.058980    0.663284    0.000000
    64  O2    c     0.054429    0.987359    0.498070    0.000000
    65  O2    c     0.990290    0.053863    0.828465    0.000000
    66  O2    c     0.917056    0.919910    0.164985    0.000000
    67  O2    c     0.322671    0.561052    0.330190    0.000000
    68  O2    c     0.412604    0.751393    0.662970    0.000000
    69  O2    c     0.239850    0.656328    0.996605    0.000000
    70  O2    c     0.650470    0.404388    0.832685    0.000000
    71  O2    c     0.569858    0.229096    0.170917    0.000000
    72  O2    c     0.744279    0.328486    0.500044    0.000000
    73  O3    c     0.559528    0.327863    0.999875    0.000000
    74  O2    c     0.752717    0.409881    0.666635    0.000000
    75  O2    c     0.645864    0.222889    0.335471    0.000000
    76  O2    c     0.403087    0.645966    0.496708    0.000000
    77  O2    c     0.224803    0.572779    0.164065    0.000000
    78  O2    c     0.331808    0.746422    0.829403    0.000000
    79  O2    c     0.116191    0.206473    0.969538    0.000000
    80  O2    c     0.770164    0.895259    0.306409    0.000000
    81  O2    c     0.078000    0.862862    0.637504    0.000000
    82  O2    c     0.857730    0.774592    0.470668    0.000000
    83  O2    c     0.204900    0.073290    0.803228    0.000000
    84  O2    c     0.897077    0.116584    0.138556    0.000000
    85  O2    c     0.198394    0.109177    0.358816    0.000000
    86  O3    c     0.923424    0.809142    0.025637    0.000000
    87  O2    c     0.865618    0.077223    0.691638    0.000000
    88  O2    c     0.778377    0.857072    0.856309    0.000000
    89  O2    c     0.070543    0.198909    0.526103    0.000000
    90  O2    c     0.112027    0.904561    0.194699    0.000000
    91  O2    c     0.912144    0.850361    0.248464    0.000000
    92  O2    c     0.125073    0.054671    0.580981    0.000000
    93  O2    c     0.929003    0.045673    0.912453    0.000000
    94  O2    c     0.062837    0.124317    0.746342    0.000000
    95  O2    c     0.843661    0.924229    0.082190    0.000000
    96  O2    c     0.053209    0.917726    0.415347    0.000000
    97  O3    c     0.895514    0.197416    0.967529    0.000000
    98  O2    c     0.780024    0.681683    0.311059    0.000000
    99  O2    c     0.292220    0.087219    0.644071    0.000000
   100  O2    c     0.081001    0.782650    0.478325    0.000000
   101  O2    c     0.194762    0.287253    0.809800    0.000000
   102  O2    c     0.684424    0.892133    0.146725    0.000000
   103  O2    c     0.188150    0.885002    0.353741    0.000000
   104  O2    c     0.692431    0.783966    0.017581    0.000000
   105  O2    c     0.090320    0.290973    0.684718    0.000000
   106  O2    c     0.788584    0.081248    0.851521    0.000000
   107  O2    c     0.286073    0.192825    0.518475    0.000000
   108  O2    c     0.890708    0.688621    0.186328    0.000000
   109  O2    c     0.305841    0.631835    0.247870    0.000000
   110  O2    c     0.342505    0.665273    0.580234    0.000000
   111  O2    c     0.312881    0.665923    0.912265    0.000000
   112  O2    c     0.669742    0.341862    0.749320    0.000000
   113  O3    c     0.616353    0.307745    0.086234    0.000000
   114  O2    c     0.663215    0.311349    0.416743    0.000000
   115  O2    c     0.362409    0.320012    0.966814    0.000000
   116  O2    c     0.655709    0.028072    0.305230    0.000000
   117  O2    c     0.945998    0.614492    0.636236    0.000000
   118  O2    c     0.609105    0.657316    0.467888    0.000000
   119  O2    c     0.320619    0.940988    0.800939    0.000000
   120  O2    c     0.025849    0.367033    0.134038    0.000000
   121  O2    c     0.313397    0.357219    0.359976    0.000000
   122  O3    c     0.049777    0.674928    0.027600    0.000000
   123  O2    c     0.617491    0.945641    0.693181    0.000000
   124  O2    c     0.659521    0.610084    0.859705    0.000000
   125  O2    c     0.939874    0.316558    0.527999    0.000000
   126  O2    c     0.360935    0.032153    0.196761    0.000000
   127  O1    c     0.745110    0.279122    0.003902    0.000000
   128  O2    c     0.681435    0.451927    0.342815    0.000000
   129  O2    c     0.524130    0.218326    0.675769    0.000000
   130  O2    c     0.213110    0.682872    0.508203    0.000000
   131  O2    c     0.295780    0.519998    0.839209    0.000000
   132  O2    c     0.452033    0.762559    0.176112    0.000000
   133  O2    c     0.284905    0.752512    0.321369    0.000000
   134  O2    c     0.463288    0.691028    0.984682    0.000000
   135  O2    c     0.221083    0.522094    0.653349    0.000000
   136  O2    c     0.689572    0.214918    0.821311    0.000000
   137  O2    c     0.516746    0.292336    0.488297    0.000000
   138  O2    c     0.758741    0.455685    0.154181    0.000000
   139  O1    c     0.769826    0.540584    0.017867    0.000000
   140  O2    c     0.450048    0.234704    0.360280    0.000000
   141  O2    c     0.742494    0.204800    0.693184    0.000000
   142  O2    c     0.199245    0.451343    0.525539    0.000000
   143  O2    c     0.527609    0.737879    0.857929    0.000000
   144  O2    c     0.232037    0.773178    0.194303    0.000000
   145  O2    c     0.517443    0.769313    0.304665    0.000000
   146  O2    c     0.240994    0.457269    0.968901    0.000000
   147  O2    c     0.205325    0.738292    0.636264    0.000000
   148  O2    c     0.456942    0.199416    0.803656    0.000000
   149  O2    c     0.733728    0.523580    0.471094    0.000000
   150  O2    c     0.770222    0.242482    0.131340    0.000000
   151  O2    c     0.218308    0.313576    0.894581    0.000000
   152  O2    c     0.661739    0.895192    0.231764    0.000000
   153  O2    c     0.077874    0.755408    0.563060    0.000000
   154  O2    c     0.752177    0.662517    0.396090    0.000000
   155  O2    c     0.313858    0.077578    0.728905    0.000000
   156  O3    c     0.904514    0.224596    0.061959    0.000000
   157  O2    c     0.306775    0.218270    0.433474    0.000000
   158  O3    c     0.883133    0.666145    0.101169    0.000000
   159  O2    c     0.760607    0.078991    0.766558    0.000000
   160  O2    c     0.672025    0.754996    0.931906    0.000000
   161  O2    c     0.078511    0.311163    0.600157    0.000000
   162  O2    c     0.217563    0.896361    0.269034    0.000000
   163  O2    c     0.575538    0.547546    0.988272    0.000000
   164  O2    c     0.427171    0.010484    0.325590    0.000000
   165  O2    c     0.962443    0.402163    0.656213    0.000000
   166  O2    c     0.395319    0.428913    0.488046    0.000000
   167  O2    c     0.550069    0.956784    0.821050    0.000000
   168  O2    c     0.012958    0.579305    0.148267    0.000000
   169  O2    c     0.541982    0.571336    0.340077    0.000000
   170  O3    c     0.017786    0.447729    0.002232    0.000000
   171  O2    c     0.402947    0.959663    0.672936    0.000000
   172  O2    c     0.430761    0.395249    0.841025    0.000000
   173  O2    c     0.953931    0.545081    0.508236    0.000000
   174  O2    c     0.577885    0.021172    0.177536    0.000000
   175  O2    c     0.568481    0.151526    0.252633    0.000000
   176  O2    c     0.821085    0.404167    0.582989    0.000000
   177  O2    c     0.574471    0.406469    0.915453    0.000000
   178  O2    c     0.407590    0.821501    0.746454    0.000000
   179  O2    c     0.147612    0.565256    0.078890    0.000000
   180  O2    c     0.399465    0.567583    0.413560    0.000000
   181  F     c     0.435838    0.890219    0.249353    0.000000
   182  F     c     0.083064    0.535291    0.581047    0.000000
   183  F     c     0.439526    0.538418    0.912571    0.000000
   184  F     c     0.539874    0.083397    0.747345    0.000000
   185  F     c     0.859311    0.437929    0.069246    0.000000
   186  F     c     0.531555    0.438253    0.414254    0.000000
   187  O2    s     0.909289    0.003497    0.999198    0.000000
   188  O2    s     0.984998    0.908385    0.331780    0.000000
   189  O2    s     0.064135    0.063179    0.663436    0.000000
   190  O2    s     0.058693    0.987223    0.498124    0.000000
   191  O2    s     0.990730    0.058267    0.828735    0.000000
   192  O2    s     0.912468    0.915757    0.165182    0.000000
   193  O2    s     0.334551    0.569138    0.330285    0.000000
   194  O2    s     0.404610    0.755244    0.663015    0.000000
   195  O2    s     0.234410    0.644350    0.996306    0.000000
   196  O2    s     0.638764    0.396861    0.832445    0.000000
   197  O2    s     0.575884    0.223893    0.170234    0.000000
   198  O2    s     0.748799    0.340383    0.499869    0.000000
   199  O3    s     0.564890    0.339575    0.998594    0.000000
   200  O2    s     0.756885    0.402184    0.666516    0.000000
   201  O2    s     0.633847    0.218722    0.335254    0.000000
   202  O2    s     0.395768    0.634118    0.496830    0.000000
   203  O2    s     0.220216    0.579713    0.163997    0.000000
   204  O2    s     0.343745    0.751046    0.829472    0.000000
   205  O2    s     0.112989    0.209625    0.966590    0.000000
   206  O2    s     0.766759    0.888811    0.303593    0.000000
   207  O2    s     0.084546    0.866112    0.634840    0.000000
   208  O2    s     0.861163    0.771000    0.468085    0.000000
   209  O2    s     0.208349    0.080022    0.800550    0.000000
   210  O2    s     0.890652    0.113003    0.135668    0.000000
   211  O2    s     0.201688    0.105982    0.361542    0.000000
   212  O3    s     0.913514    0.805125    0.027434    0.000000
   213  O2    s     0.869157    0.083891    0.694251    0.000000
   214  O2    s     0.775249    0.860817    0.859069    0.000000
   215  O2    s     0.077608    0.202510    0.528612    0.000000
   216  O2    s     0.108515    0.897301    0.197140    0.000000
   217  O2    s     0.911527    0.847290    0.248559    0.000000
   218  O2    s     0.127852    0.056565    0.581001    0.000000
   219  O2    s     0.926262    0.049323    0.912285    0.000000
   220  O2    s     0.063770    0.127363    0.746410    0.000000
   221  O2    s     0.842613    0.923799    0.082457    0.000000
   222  O2    s     0.054708    0.916078    0.415299    0.000000
   223  O3    s     0.902174    0.196119    0.970278    0.000000
   224  O2    s     0.778742    0.688096    0.313742    0.000000
   225  O2    s     0.285864    0.079432    0.646655    0.000000
   226  O2    s     0.073632    0.781442    0.480907    0.000000
   227  O2    s     0.196077    0.281034    0.812393    0.000000
   228  O2    s     0.690520    0.899749    0.149273    0.000000
   229  O2    s     0.189623    0.892656    0.350985    0.000000
   230  O2    s     0.698302    0.784127    0.014939    0.000000
   231  O2    s     0.082540    0.284782    0.682054    0.000000
   232  O2    s     0.787281    0.073959    0.848734    0.000000
   233  O2    s     0.279785    0.193918    0.515809    0.000000
   234  O2    s     0.897312    0.695140    0.183551    0.000000
   235  O2    s     0.311710    0.643663    0.247955    0.000000
   236  O2    s     0.330681    0.659345    0.580270    0.000000
   237  O2    s     0.319275    0.660246    0.912374    0.000000
   238  O2    s     0.663806    0.330097    0.749248    0.000000
   239  O3    s     0.628660    0.312493    0.087678    0.000000
   240  O2    s     0.657146    0.317011    0.416661    0.000000
   241  O2    s     0.364942    0.329842    0.964779    0.000000
   242  O2    s     0.645575    0.021397    0.303007    0.000000
   243  O2    s     0.952698    0.611264    0.633995    0.000000
   244  O2    s     0.605829    0.647188    0.465728    0.000000
   245  O2    s     0.330711    0.947915    0.798742    0.000000
   246  O2    s     0.020484    0.370218    0.131744    0.000000
   247  O2    s     0.323489    0.360701    0.362289    0.000000
   248  O3    s     0.044237    0.664622    0.028699    0.000000
   249  O2    s     0.614194    0.952314    0.695464    0.000000
   250  O2    s     0.649800    0.607073    0.862053    0.000000
   251  O2    s     0.946853    0.326632    0.530274    0.000000
   252  O2    s     0.363973    0.025371    0.199132    0.000000
   253  O1    s     0.754126    0.286850    0.006624    0.000000
   254  O2    s     0.673801    0.451429    0.345966    0.000000
   255  O2    s     0.524625    0.211102    0.678875    0.000000
   256  O2    s     0.206188    0.675338    0.511377    0.000000
   257  O2    s     0.303107    0.520442    0.842579    0.000000
   258  O2    s     0.451511    0.769205    0.179387    0.000000
   259  O2    s     0.292863    0.759847    0.318394    0.000000
   260  O2    s     0.462214    0.682635    0.981733    0.000000
   261  O2    s     0.213735    0.522539    0.650294    0.000000
   262  O2    s     0.681914    0.207942    0.818194    0.000000
   263  O2    s     0.517403    0.299887    0.485157    0.000000
   264  O2    s     0.764659    0.455959    0.151229    0.000000
   265  O1    s     0.776796    0.540211    0.020920    0.000000
   266  O2    s     0.452780    0.242798    0.362893    0.000000
   267  O2    s     0.734385    0.199356    0.695787    0.000000
   268  O2    s     0.194104    0.454096    0.528181    0.000000
   269  O2    s     0.524713    0.729484    0.860498    0.000000
   270  O2    s     0.240524    0.778559    0.196866    0.000000
   271  O2    s     0.514874    0.774495    0.302071    0.000000
   272  O2    s     0.249082    0.460080    0.966230    0.000000
   273  O2    s     0.199917    0.730416    0.633684    0.000000
   274  O2    s     0.459677    0.194400    0.801023    0.000000
   275  O2    s     0.725823    0.520636    0.468443    0.000000
   276  O2    s     0.774962    0.249001    0.129804    0.000000
   277  O2    s     0.228533    0.323037    0.895423    0.000000
   278  O2    s     0.652191    0.895140    0.232610    0.000000
   279  O2    s     0.078126    0.746013    0.563929    0.000000
   280  O2    s     0.742661    0.652878    0.396961    0.000000
   281  O2    s     0.323600    0.077889    0.729775    0.000000
   282  O3    s     0.902743    0.231289    0.063560    0.000000
   283  O2    s     0.316511    0.227705    0.432562    0.000000
   284  O3    s     0.884886    0.658173    0.101375    0.000000
   285  O2    s     0.751143    0.079154    0.765666    0.000000
   286  O2    s     0.662060    0.745808    0.931021    0.000000
   287  O2    s     0.078802    0.320755    0.599233    0.000000
   288  O2    s     0.226773    0.895866    0.268098    0.000000
   289  O2    s     0.572018    0.548746    0.984986    0.000000
   290  O2    s     0.426829    0.006120    0.322132    0.000000
   291  O2    s     0.967070    0.406574    0.652821    0.000000
   292  O2    s     0.400002    0.428633    0.484721    0.000000
   293  O2    s     0.550475    0.961750    0.817735    0.000000
   294  O2    s     0.008877    0.574627    0.146071    0.000000
   295  O2    s     0.542229    0.566733    0.343499    0.000000
   296  O3    s     0.016729    0.448914    0.005432    0.000000
   297  O2    s     0.407630    0.964537    0.676356    0.000000
   298  O2    s     0.430735    0.400459    0.844237    0.000000
   299  O2    s     0.959231    0.545519    0.511606    0.000000
   300  O2    s     0.572651    0.015655    0.180835    0.000000
   301  O2    s     0.563105    0.140458    0.252516    0.000000
   302  O2    s     0.832174    0.409791    0.582917    0.000000
   303  O2    s     0.568989    0.411316    0.915056    0.000000
   304  O2    s     0.413182    0.832478    0.746490    0.000000
   305  O2    s     0.138931    0.562372    0.079223    0.000000
   306  O2    s     0.405020    0.562186    0.413614    0.000000
   307  F     s     0.435504    0.889748    0.249242    0.000000
   308  F     s     0.083472    0.535470    0.580980    0.000000
   309  F     s     0.438828    0.538932    0.912446    0.000000
   310  F     s     0.540124    0.083866    0.747284    0.000000
   311  F     s     0.851139    0.435243    0.067041    0.000000
   312  F     s     0.531734    0.438036    0.414170    0.000000
--------------------------------------------------------------------------------

  Final Cartesian lattice vectors (Angstroms) :

       11.963655   -0.003584   -0.010790
       -6.052183   10.373919    0.011047
       -0.162240   -0.106300   29.438025


  Final cell parameters and derivatives :

--------------------------------------------------------------------------------
       a           11.963661 Angstrom     dE/de1(xx)    -0.000518 eV/strain
       b           12.010298 Angstrom     dE/de2(yy)    -0.000203 eV/strain
       c           29.438664 Angstrom     dE/de3(zz)    -0.000403 eV/strain
       alpha       89.966883 Degrees      dE/de4(yz)     0.000021 eV/strain
       beta        90.367379 Degrees      dE/de5(xz)     0.000011 eV/strain
       gamma      120.276639 Degrees      dE/de6(xy)    -0.000120 eV/strain
--------------------------------------------------------------------------------

  Primitive cell volume =          3652.903564 Angs**3

  Density of cell =      1.751509 g/cm**3

  Non-primitive cell volume =          3652.903564 Angs**3


  Final internal derivatives :

--------------------------------------------------------------------------------
   No.  Atomic          a             b             c           Radius
        Label          (eV)          (eV)          (eV)        (eV/Angs)
--------------------------------------------------------------------------------
      1 Ge    c       0.000000      0.000000      0.000000      0.000000
      2 Si    c      -0.000018      0.000191      0.000057      0.000000
      3 Si    c       0.000065     -0.000198      0.000293      0.000000
      4 Si    c       0.000020      0.000118     -0.000008      0.000000
      5 Si    c      -0.000092      0.000276     -0.000308      0.000000
      6 Si    c       0.000144      0.000221      0.000425      0.000000
      7 Si    c       0.000261      0.000086      0.000415      0.000000
      8 Si    c       0.000209     -0.000198     -0.000208      0.000000
      9 Si    c      -0.000320      0.000041      0.000024      0.000000
     10 Si    c       0.000045     -0.000020     -0.000018      0.000000
     11 Si    c       0.000053      0.000113     -0.000149      0.000000
     12 Si    c       0.000234      0.000862      0.001008      0.000000
     13 Si    c      -0.000007      0.000051     -0.000643      0.000000
     14 Si    c       0.000037      0.000238     -0.000015      0.000000
     15 Si    c       0.000014     -0.000065      0.000104      0.000000
     16 Si    c       0.000129     -0.000059     -0.000060      0.000000
     17 Si    c      -0.000290      0.000315     -0.000010      0.000000
     18 Si    c       0.000488      0.000010      0.002275      0.000000
     19 Si    c       0.000170      0.000082      0.000162      0.000000
     20 Si    c       0.000972      0.000338     -0.000177      0.000000
     21 Si    c      -0.000409      0.000221      0.000280      0.000000
     22 Si    c      -0.000039      0.000206      0.000249      0.000000
     23 Si    c       0.000218      0.000100      0.000169      0.000000
     24 Si    c       0.000030     -0.000010      0.000177      0.000000
     25 Si    c       0.000222     -0.000071      0.000293      0.000000
     26 Si    c       0.000143      0.000109      0.000168      0.000000
     27 Si    c       0.000148      0.000022      0.000130      0.000000
     28 Si    c       0.000099      0.000174      0.000203      0.000000
     29 Si    c       0.000047     -0.000315      0.000536      0.000000
     30 Ge    c      -0.000036      0.000450     -0.000070      0.000000
     31 Si    c       0.000053      0.000056     -0.000144      0.000000
     32 Si    c       0.000088      0.000179      0.000133      0.000000
     33 Si    c      -0.000326      0.000449     -0.000267      0.000000
     34 Si    c       0.000087     -0.000357     -0.000305      0.000000
     35 Si    c      -0.000226      0.000025      0.000086      0.000000
     36 Si    c      -0.000006      0.000214      0.000163      0.000000
     37 Si    c       0.000624     -0.000029     -0.000830      0.000000
     38 Si    c       0.000221      0.000143      0.000109      0.000000
     39 Si    c       0.000020     -0.000078      0.000118      0.000000
     40 Si    c       0.000048     -0.000079     -0.000209      0.000000
     41 Si    c       0.000068     -0.000138     -0.000020      0.000000
     42 Si    c       0.000487     -0.000506      0.001782      0.000000
     43 Si    c       0.000149      0.000230      0.000286      0.000000
     44 Ge    c      -0.000540     -0.000058     -0.000869      0.000000
     45 Si    c      -0.000310      0.000225      0.000268      0.000000
     46 Si    c       0.000258     -0.000083      0.000421      0.000000
     47 Si    c       0.000010      0.000140      0.000014      0.000000
     48 Si    c       0.000114     -0.000025     -0.000031      0.000000
     49 Si    c       0.000415      0.000122     -0.000469      0.000000
     50 Si    c       0.000001      0.000170     -0.000004      0.000000
     51 Si    c      -0.000090     -0.000135      0.000146      0.000000
     52 Si    c       0.000144      0.000109     -0.000090      0.000000
     53 Si    c       0.000145      0.000011      0.000178      0.000000
     54 Si    c       0.000098     -0.000301      0.000847      0.000000
     55 Si    c       0.000102      0.000189      0.000234      0.000000
     56 Si    c      -0.000064     -0.001209      0.001609      0.000000
     57 Si    c      -0.000082      0.000011      0.000069      0.000000
     58 Si    c      -0.000032     -0.000147     -0.001608      0.000000
     59 Si    c       0.000097      0.000028     -0.000061      0.000000
     60 Si    c       0.000083     -0.000180     -0.000164      0.000000
     61 O2    c       0.001879     -0.001598      0.001472      0.000000
     62 O2    c       0.000156      0.000146      0.000356      0.000000
     63 O2    c      -0.000098      0.000044      0.000314      0.000000
     64 O2    c       0.000070     -0.000031      0.000036      0.000000
     65 O2    c       0.000177      0.000180     -0.000021      0.000000
     66 O2    c       0.000050     -0.000246      0.000164      0.000000
     67 O2    c       0.000365      0.000254      0.000281      0.000000
     68 O2    c      -0.000368      0.000219      0.000241      0.000000
     69 O2    c       0.001029     -0.000142     -0.000420      0.000000
     70 O2    c      -0.000148      0.000123     -0.000101      0.000000
     71 O2    c       0.000181     -0.000150      0.000968      0.000000
     72 O2    c       0.000107      0.000166     -0.000216      0.000000
     73 O3    c      -0.000071     -0.000265     -0.000305      0.000000
     74 O2    c       0.000052     -0.000298     -0.000018      0.000000
     75 O2    c      -0.000141      0.000244     -0.000087      0.000000
     76 O2    c       0.000153     -0.000099      0.000080      0.000000
     77 O2    c       0.000397      0.000245      0.000743      0.000000
     78 O2    c       0.000057      0.000266      0.000153      0.000000
     79 O2    c       0.001401      0.000180     -0.001207      0.000000
     80 O2    c       0.000136      0.000186     -0.000183      0.000000
     81 O2    c       0.000004     -0.000036     -0.000161      0.000000
     82 O2    c       0.000208     -0.000110     -0.000157      0.000000
     83 O2    c       0.000001      0.000216     -0.000191      0.000000
     84 O2    c      -0.000035     -0.000353      0.000307      0.000000
     85 O2    c       0.000173      0.000080      0.000355      0.000000
     86 O3    c       0.002146     -0.001088     -0.001198      0.000000
     87 O2    c      -0.000185      0.000039      0.000406      0.000000
     88 O2    c      -0.000019      0.000141      0.000477      0.000000
     89 O2    c       0.000176      0.000209      0.000182      0.000000
     90 O2    c       0.000421     -0.000085      0.000329      0.000000
     91 O2    c       0.000191      0.000180      0.000313      0.000000
     92 O2    c       0.000056      0.000032      0.000110      0.000000
     93 O2    c       0.000111     -0.000189     -0.004076      0.000000
     94 O2    c      -0.000080      0.000059     -0.000079      0.000000
     95 O2    c      -0.000034      0.000332      0.002153      0.000000
     96 O2    c       0.000111     -0.000005      0.000193      0.000000
     97 O3    c      -0.002890      0.002294     -0.002935      0.000000
     98 O2    c      -0.000036      0.000306      0.000542      0.000000
     99 O2    c      -0.000050     -0.000215      0.000511      0.000000
    100 O2    c       0.000063      0.000092      0.000337      0.000000
    101 O2    c       0.000151     -0.000020      0.000392      0.000000
    102 O2    c       0.000170      0.000050      0.000352      0.000000
    103 O2    c       0.000102      0.000320     -0.000401      0.000000
    104 O2    c      -0.001015     -0.000105      0.000393      0.000000
    105 O2    c      -0.000245     -0.000157     -0.000145      0.000000
    106 O2    c      -0.000182      0.000187     -0.000539      0.000000
    107 O2    c       0.000034      0.000079     -0.000405      0.000000
    108 O2    c       0.000355     -0.000259     -0.000243      0.000000
    109 O2    c       0.000172      0.000211      0.000144      0.000000
    110 O2    c      -0.000155      0.000116      0.000186      0.000000
    111 O2    c       0.000071      0.000121     -0.000041      0.000000
    112 O2    c      -0.000033     -0.000232      0.000084      0.000000
    113 O3    c      -0.001120      0.000467     -0.000389      0.000000
    114 O2    c      -0.000166      0.000207     -0.000025      0.000000
    115 O2    c      -0.000319      0.000150     -0.000484      0.000000
    116 O2    c      -0.000001      0.000114     -0.000151      0.000000
    117 O2    c       0.000088     -0.000225     -0.000150      0.000000
    118 O2    c       0.000207     -0.000120     -0.000227      0.000000
    119 O2    c       0.000182      0.000151     -0.000226      0.000000
    120 O2    c       0.001179     -0.000720      0.001725      0.000000
    121 O2    c       0.000260      0.000243      0.000368      0.000000
    122 O3    c       0.000619      0.002429     -0.002198      0.000000
    123 O2    c      -0.000405      0.000202      0.000341      0.000000
    124 O2    c      -0.000062      0.000157      0.000459      0.000000
    125 O2    c       0.000159      0.000236      0.000216      0.000000
    126 O2    c       0.000261     -0.000109      0.000040      0.000000
    127 O1    c       0.001191     -0.000887     -0.000816      0.000000
    128 O2    c      -0.000105      0.000251      0.000401      0.000000
    129 O2    c       0.000000     -0.000282      0.000400      0.000000
    130 O2    c       0.000083      0.000003      0.000397      0.000000
    131 O2    c      -0.000003      0.000177      0.000331      0.000000
    132 O2    c      -0.000001      0.000138      0.000302      0.000000
    133 O2    c       0.000240      0.000399     -0.000117      0.000000
    134 O2    c       0.000329     -0.000228      0.000079      0.000000
    135 O2    c      -0.000295      0.000158     -0.000158      0.000000
    136 O2    c      -0.000174      0.000027     -0.000499      0.000000
    137 O2    c       0.000011      0.000138     -0.000358      0.000000
    138 O2    c      -0.001166      0.000377      0.003377      0.000000
    139 O1    c      -0.003269      0.001109     -0.007309      0.000000
    140 O2    c       0.000012      0.000246      0.000379      0.000000
    141 O2    c      -0.000322     -0.000164      0.000504      0.000000
    142 O2    c      -0.000024      0.000230      0.000197      0.000000
    143 O2    c       0.000006     -0.000008      0.000131      0.000000
    144 O2    c       0.000312      0.000213      0.000109      0.000000
    145 O2    c       0.000249      0.000217     -0.000100      0.000000
    146 O2    c       0.000198     -0.000286      0.000162      0.000000
    147 O2    c      -0.000154     -0.000081      0.000070      0.000000
    148 O2    c       0.000095     -0.000086     -0.000326      0.000000
    149 O2    c      -0.000051      0.000009     -0.000328      0.000000
    150 O2    c       0.000604     -0.001096      0.002231      0.000000
    151 O2    c       0.000350     -0.000166     -0.000196      0.000000
    152 O2    c       0.000094      0.000148      0.000639      0.000000
    153 O2    c       0.000121     -0.000135      0.000226      0.000000
    154 O2    c      -0.000006     -0.000002      0.000362      0.000000
    155 O2    c       0.000164     -0.000142      0.000291      0.000000
    156 O3    c       0.000089     -0.000861     -0.000767      0.000000
    157 O2    c       0.000142      0.000164     -0.000141      0.000000
    158 O3    c       0.000011      0.003481      0.005214      0.000000
    159 O2    c      -0.000414      0.000247      0.000013      0.000000
    160 O2    c       0.000089     -0.000221     -0.000262      0.000000
    161 O2    c      -0.000136      0.000198     -0.000072      0.000000
    162 O2    c       0.000197      0.000052     -0.000199      0.000000
    163 O2    c      -0.000008      0.000396     -0.000397      0.000000
    164 O2    c       0.000093      0.000213     -0.000123      0.000000
    165 O2    c      -0.000151      0.000046     -0.000131      0.000000
    166 O2    c       0.000197     -0.000005     -0.000331      0.000000
    167 O2    c      -0.000244      0.000341     -0.000292      0.000000
    168 O2    c       0.001003     -0.000208      0.003111      0.000000
    169 O2    c       0.000180      0.000081      0.000489      0.000000
    170 O3    c       0.002263     -0.001430     -0.005459      0.000000
    171 O2    c      -0.000107      0.000016      0.000696      0.000000
    172 O2    c      -0.000051      0.000178      0.000355      0.000000
    173 O2    c       0.000186     -0.000035      0.000266      0.000000
    174 O2    c      -0.000075      0.000178      0.000359      0.000000
    175 O2    c       0.000149     -0.000009      0.000002      0.000000
    176 O2    c       0.000121      0.000005     -0.000152      0.000000
    177 O2    c      -0.000312      0.000429     -0.000758      0.000000
    178 O2    c      -0.000233      0.000345      0.000107      0.000000
    179 O2    c       0.001537      0.000303      0.001801      0.000000
    180 O2    c       0.000302     -0.000074      0.000215      0.000000
    181 F     c       0.000118      0.000155      0.000184      0.000000
    182 F     c       0.000008      0.000068      0.000064      0.000000
    183 F     c       0.000303     -0.000200      0.000098      0.000000
    184 F     c      -0.000130     -0.000000      0.000043      0.000000
    185 F     c      -0.002769     -0.000129     -0.002208      0.000000
    186 F     c       0.000061      0.000068      0.000035      0.000000
    187 O2    s       0.002003     -0.002115      0.005028      0.000000
    188 O2    s       0.000212      0.000223      0.000019      0.000000
    189 O2    s      -0.000159      0.000036      0.000208      0.000000
    190 O2    s       0.000135     -0.000032      0.000030      0.000000
    191 O2    s      -0.000255      0.000580     -0.000799      0.000000
    192 O2    s      -0.000058     -0.000062      0.000100      0.000000
    193 O2    s       0.000323      0.000309      0.000370      0.000000
    194 O2    s      -0.000226     -0.000028      0.000601      0.000000
    195 O2    s       0.000546      0.000141      0.000707      0.000000
    196 O2    s      -0.000146      0.000226     -0.000454      0.000000
    197 O2    s       0.000640     -0.000146      0.000346      0.000000
    198 O2    s      -0.000018      0.000380     -0.000017      0.000000
    199 O3    s      -0.000653      0.000088     -0.000333      0.000000
    200 O2    s      -0.000083     -0.000196     -0.000016      0.000000
    201 O2    s      -0.000083      0.000267     -0.000040      0.000000
    202 O2    s       0.000337     -0.000249      0.000049      0.000000
    203 O2    s       0.000616     -0.000338      0.000164      0.000000
    204 O2    s       0.000341     -0.000027     -0.000134      0.000000
    205 O2    s       0.000954      0.001151     -0.001725      0.000000
    206 O2    s       0.000138      0.000287     -0.000314      0.000000
    207 O2    s      -0.000249      0.000061     -0.000266      0.000000
    208 O2    s       0.000248     -0.000135     -0.000212      0.000000
    209 O2    s      -0.000055      0.000211     -0.000546      0.000000
    210 O2    s       0.000223      0.000159      0.000075      0.000000
    211 O2    s       0.000227      0.000110      0.000637      0.000000
    212 O3    s       0.000923     -0.001175     -0.000989      0.000000
    213 O2    s      -0.000149      0.000044      0.000656      0.000000
    214 O2    s      -0.000441      0.000518     -0.000381      0.000000
    215 O2    s       0.000280      0.000084      0.000426      0.000000
    216 O2    s       0.000189     -0.000004      0.000382      0.000000
    217 O2    s       0.000324      0.000105      0.000161      0.000000
    218 O2    s      -0.000114      0.000218      0.000116      0.000000
    219 O2    s      -0.000353      0.000369     -0.003333      0.000000
    220 O2    s      -0.000266      0.000249     -0.000068      0.000000
    221 O2    s      -0.000590      0.000529      0.001817      0.000000
    222 O2    s       0.000257      0.000060      0.000169      0.000000
    223 O3    s      -0.001546      0.001080     -0.002638      0.000000
    224 O2    s       0.000057      0.000251      0.000681      0.000000
    225 O2    s      -0.000219     -0.000122      0.000705      0.000000
    226 O2    s       0.000047      0.000191      0.000484      0.000000
    227 O2    s      -0.000159      0.000320      0.000198      0.000000
    228 O2    s      -0.000011      0.000362      0.000488      0.000000
    229 O2    s       0.000138      0.000307     -0.000300      0.000000
    230 O2    s      -0.000975     -0.000759      0.000946      0.000000
    231 O2    s      -0.000307     -0.000142     -0.000270      0.000000
    232 O2    s       0.000025     -0.000045     -0.001060      0.000000
    233 O2    s       0.000007      0.000189     -0.000339      0.000000
    234 O2    s       0.000330      0.000003     -0.000325      0.000000
    235 O2    s       0.000090      0.000554      0.000083      0.000000
    236 O2    s      -0.000009     -0.000015      0.000161      0.000000
    237 O2    s       0.000785     -0.000561     -0.000366      0.000000
    238 O2    s      -0.000147     -0.000072     -0.000009      0.000000
    239 O3    s      -0.000456     -0.000577      0.000077      0.000000
    240 O2    s      -0.000148      0.000308      0.000003      0.000000
    241 O2    s       0.000114     -0.000085     -0.000181      0.000000
    242 O2    s      -0.000025      0.000194     -0.000296      0.000000
    243 O2    s      -0.000101     -0.000072     -0.000258      0.000000
    244 O2    s       0.000199     -0.000241      0.000004      0.000000
    245 O2    s      -0.000087      0.000158     -0.000316      0.000000
    246 O2    s       0.001949     -0.001035      0.001381      0.000000
    247 O2    s       0.000352      0.000154      0.000611      0.000000
    248 O3    s       0.000917      0.000857     -0.002513      0.000000
    249 O2    s      -0.000159     -0.000100      0.000587      0.000000
    250 O2    s      -0.000137      0.000273      0.000111      0.000000
    251 O2    s       0.000128      0.000225      0.000184      0.000000
    252 O2    s       0.000304     -0.000118      0.000727      0.000000
    253 O1    s       0.000471     -0.000862     -0.002335      0.000000
    254 O2    s      -0.000042      0.000238      0.000722      0.000000
    255 O2    s      -0.000174     -0.000099      0.000465      0.000000
    256 O2    s       0.000150      0.000019      0.000339      0.000000
    257 O2    s       0.000159      0.000029      0.000762      0.000000
    258 O2    s       0.000115      0.000102      0.000581      0.000000
    259 O2    s       0.000339      0.000258     -0.000299      0.000000
    260 O2    s       0.000079     -0.000341     -0.000482      0.000000
    261 O2    s      -0.000194     -0.000059     -0.000156      0.000000
    262 O2    s      -0.000041      0.000077     -0.000352      0.000000
    263 O2    s       0.000025      0.000219     -0.000339      0.000000
    264 O2    s      -0.001236     -0.000361      0.004351      0.000000
    265 O1    s      -0.003804      0.002409     -0.009847      0.000000
    266 O2    s       0.000045      0.000415      0.000500      0.000000
    267 O2    s      -0.000150     -0.000156      0.000510      0.000000
    268 O2    s       0.000154      0.000138      0.000454      0.000000
    269 O2    s      -0.000056     -0.000004      0.000460      0.000000
    270 O2    s       0.000502      0.000003      0.000655      0.000000
    271 O2    s      -0.000036      0.000684     -0.000263      0.000000
    272 O2    s       0.000442     -0.000242     -0.000390      0.000000
    273 O2    s      -0.000152     -0.000100     -0.000204      0.000000
    274 O2    s      -0.000063      0.000199     -0.000428      0.000000
    275 O2    s      -0.000054      0.000059     -0.000299      0.000000
    276 O2    s       0.000763     -0.000394      0.003128      0.000000
    277 O2    s      -0.000158      0.000596     -0.000394      0.000000
    278 O2    s      -0.000024      0.000560      0.000350      0.000000
    279 O2    s       0.000044     -0.000059      0.000055      0.000000
    280 O2    s       0.000069     -0.000021      0.000240      0.000000
    281 O2    s      -0.000119      0.000028      0.000065      0.000000
    282 O3    s       0.000916     -0.000798     -0.001769      0.000000
    283 O2    s       0.000239      0.000271     -0.000001      0.000000
    284 O3    s      -0.000687      0.003798      0.009424      0.000000
    285 O2    s      -0.000152     -0.000015      0.000153      0.000000
    286 O2    s      -0.000065     -0.000060     -0.000277      0.000000
    287 O2    s      -0.000089      0.000150     -0.000014      0.000000
    288 O2    s       0.000485     -0.000107     -0.000304      0.000000
    289 O2    s       0.000447      0.000056     -0.000209      0.000000
    290 O2    s       0.000283      0.000129     -0.000401      0.000000
    291 O2    s      -0.000072     -0.000081     -0.000402      0.000000
    292 O2    s       0.000271     -0.000007     -0.000388      0.000000
    293 O2    s       0.000165     -0.000066     -0.000323      0.000000
    294 O2    s       0.000643     -0.000680      0.003973      0.000000
    295 O2    s       0.000154      0.000142      0.000800      0.000000
    296 O3    s       0.002375     -0.001293     -0.004419      0.000000
    297 O2    s      -0.000204     -0.000035      0.000535      0.000000
    298 O2    s      -0.000154      0.000563     -0.000161      0.000000
    299 O2    s       0.000169      0.000088      0.000390      0.000000
    300 O2    s       0.000207     -0.000066      0.000379      0.000000
    301 O2    s       0.000373     -0.000152      0.000115      0.000000
    302 O2    s       0.000113      0.000052     -0.000093      0.000000
    303 O2    s       0.000111     -0.000025     -0.000570      0.000000
    304 O2    s      -0.000006      0.000018      0.000227      0.000000
    305 O2    s       0.002301     -0.000068      0.000408      0.000000
    306 O2    s       0.000395     -0.000070      0.000092      0.000000
    307 F     s       0.000208      0.000094      0.000271      0.000000
    308 F     s       0.000043      0.000034      0.000081      0.000000
    309 F     s      -0.000198      0.000257     -0.000068      0.000000
    310 F     s      -0.000126     -0.000022      0.000003      0.000000
    311 F     s      -0.003484      0.000123     -0.004540      0.000000
    312 F     s       0.000077      0.000075      0.000114      0.000000
--------------------------------------------------------------------------------
  Maximum abs         0.003804      0.003798      0.009847      0.000000
--------------------------------------------------------------------------------


  Time to end of optimisation =      53.9534 seconds


  Peak dynamic memory used =      19.13 MB 


  Timing analysis for GULP :

--------------------------------------------------------------------------------
  Task / Subroutine                                          Time (Seconds)
--------------------------------------------------------------------------------
  Calculation of reciprocal space energy and derivatives          1.4252
  Calculation of real space energy and derivatives               46.7121
  Calculation of three-body energy and derivatives                4.9692
  Calculation of matrix inversion                                 0.7457
--------------------------------------------------------------------------------
  Total CPU time                                                 53.9535
--------------------------------------------------------------------------------


  Dump file written as out.res                                                 
  CIF file written as out.cif                                                 


  Job Finished at 02:06.50  7th November   2016                               

