********************************************************************************
*                       GENERAL UTILITY LATTICE PROGRAM                        *
*                                 Julian Gale                                  *
*                      Nanochemistry Research Institute                        *
*                           Department of Chemistry                            *
*                    Curtin University, Western Australia                      *
********************************************************************************
* Version = 4.2.0 * Last modified =  20th January 2014                         *
********************************************************************************
*  optimise     - perform optimisation run                                     *
*  conp         - constant pressure calculation                                *
*  qok          - running with non charge neutral cell is OK                   *
********************************************************************************

  Job Started  at 03:32.14  8th November   2016                               

  Number of CPUs =     1


  Total number of configurations input =   1

********************************************************************************
*  Input for Configuration =   1                                               *
********************************************************************************

  Formula = Ge3Si57O120F6                                               

  Number of irreducible atoms/shells =     312


  Total number atoms/shells =     312

  Dimensionality = 3               :  Bulk   


  Charge on solid   =  -6.000000 =>neutralising background added


  Cartesian lattice vectors (Angstroms) :

       11.963717    0.000000    0.000000
       -6.086811   10.396640    0.000000
       -0.518623   -0.528162   29.320518

  Cell parameters (Angstroms/Degrees):

  a =      11.9637    alpha =  90.3785
  b =      12.0474    beta  =  91.0132
  c =      29.3299    gamma = 120.3472

  Initial cell volume =        3646.958107 Angs**3

  Temperature of configuration =  0.000     K 

  Pressure of configuration =         0.000 GPa 

  Fractional coordinates of asymmetric unit :

--------------------------------------------------------------------------------
   No.  Atomic       x           y          z         Charge      Occupancy
        Label      (Frac)      (Frac)     (Frac)        (e)         (Frac)  
--------------------------------------------------------------------------------
      1 Ge    c    0.699600    0.375700    0.033890     4.00000    1.000000    
      2 Si    c    0.614142 *  0.320628 *  0.364131 *   4.00000    1.000000    
      3 Si    c    0.689495 *  0.310576 *  0.698977 *   4.00000    1.000000    
      4 Si    c    0.294989 *  0.623170 *  0.528445 *   4.00000    1.000000    
      5 Si    c    0.366464 *  0.680787 *  0.862348 *   4.00000    1.000000    
      6 Si    c    0.309542 *  0.701367 *  0.195143 *   4.00000    1.000000    
      7 Si    c    0.366028 *  0.694862 *  0.295950 *   4.00000    1.000000    
      8 Si    c    0.305040 *  0.628659 *  0.964538 *   4.00000    1.000000    
      9 Si    c    0.303587 *  0.683269 *  0.629573 *   4.00000    1.000000    
     10 Si    c    0.632324 *  0.318338 *  0.801487 *   4.00000    1.000000    
     11 Si    c    0.671925 *  0.382853 *  0.465228 *   4.00000    1.000000    
     12 Si    c    0.674275 *  0.312173 *  0.132288 *   4.00000    1.000000    
     13 Si    c    0.530807 *  0.423495 *  0.969001 *   4.00000    1.000000    
     14 Si    c    0.573717 *  0.104353 *  0.301630 *   4.00000    1.000000    
     15 Si    c    0.895066 *  0.477716 *  0.632797 *   4.00000    1.000000    
     16 Si    c    0.462865 *  0.583167 *  0.462547 *   4.00000    1.000000    
     17 Si    c    0.417309 *  0.890489 *  0.799341 *   4.00000    1.000000    
     18 Si    c    0.094567 *  0.529529 *  0.128040 *   4.00000    1.000000    
     19 Si    c    0.406687 *  0.523520 *  0.360196 *   4.00000    1.000000    
     20 Si    c    0.083701 *  0.577582 *  0.025025 *   4.00000    1.000000    
     21 Si    c    0.479016 *  0.894296 *  0.696276 *   4.00000    1.000000    
     22 Si    c    0.585425 *  0.488420 *  0.865480 *   4.00000    1.000000    
     23 Si    c    0.885306 *  0.420394 *  0.530561 *   4.00000    1.000000    
     24 Si    c    0.517191 *  0.106566 *  0.199845 *   4.00000    1.000000    
     25 Si    c    0.296013 *  0.403281 *  0.848175 *   4.00000    1.000000    
     26 Si    c    0.590097 *  0.901211 *  0.181737 *   4.00000    1.000000    
     27 Si    c    0.092813 *  0.700011 *  0.514756 *   4.00000    1.000000    
     28 Si    c    0.688502 *  0.595560 *  0.347255 *   4.00000    1.000000    
     29 Si    c    0.406753 *  0.105638 *  0.681551 *   4.00000    1.000000    
     30 Si    c    0.879269 *  0.286088 *  0.009669 *   4.00000    1.000000    
     31 Si    c    0.393413 *  0.305772 *  0.477724 *   4.00000    1.000000    
     32 Si    c    0.878995 *  0.598385 *  0.141797 *   4.00000    1.000000    
     33 Ge    c    0.691942 *  0.108064 *  0.807061 *   4.00000    1.000000    
     34 Ge    c    0.577543 *  0.693483 *  0.971769 *   4.00000    1.000000    
     35 Si    c    0.104788 *  0.406645 *  0.645489 *   4.00000    1.000000    
     36 Si    c    0.292010 *  0.895423 *  0.313237 *   4.00000    1.000000    
     37 Si    c    0.245626 *  0.346952 *  0.949964 *   4.00000    1.000000    
     38 Si    c    0.648295 *  0.903873 *  0.283429 *   4.00000    1.000000    
     39 Si    c    0.094538 *  0.754991 *  0.616058 *   4.00000    1.000000    
     40 Si    c    0.741803 *  0.660137 *  0.448547 *   4.00000    1.000000    
     41 Si    c    0.345990 *  0.098732 *  0.783321 *   4.00000    1.000000    
     42 Si    c    0.891282 *  0.246163 *  0.113648 *   4.00000    1.000000    
     43 Si    c    0.331742 *  0.247299 *  0.376587 *   4.00000    1.000000    
     44 Si    c    0.883236 *  0.661020 *  0.039120 *   4.00000    1.000000    
     45 Si    c    0.764296 *  0.098484 *  0.711063 *   4.00000    1.000000    
     46 Si    c    0.659911 *  0.769926 *  0.876217 *   4.00000    1.000000    
     47 Si    c    0.086871 *  0.342613 *  0.544212 *   4.00000    1.000000    
     48 Si    c    0.236405 *  0.906706 *  0.212416 *   4.00000    1.000000    
     49 Si    c    0.968146 *  0.120277 *  0.961310 *   4.00000    1.000000    
     50 Si    c    0.865668 *  0.841005 *  0.296717 *   4.00000    1.000000    
     51 Si    c    0.157224 *  0.034662 *  0.629150 *   4.00000    1.000000    
     52 Si    c    0.023379 *  0.878514 *  0.463542 *   4.00000    1.000000    
     53 Si    c    0.122348 *  0.153496 *  0.795799 *   4.00000    1.000000    
     54 Si    c    0.836133 *  0.971553 *  0.129466 *   4.00000    1.000000    
     55 Si    c    0.114169 *  0.965129 *  0.362361 *   4.00000    1.000000    
     56 Si    c    0.831635 *  0.883674 *  0.026396 *   4.00000    1.000000    
     57 Si    c    0.038553 *  0.159399 *  0.693285 *   4.00000    1.000000    
     58 Si    c    0.878456 *  0.042122 *  0.858445 *   4.00000    1.000000    
     59 Si    c    0.148372 *  0.125409 *  0.528401 *   4.00000    1.000000    
     60 Si    c    0.956039 *  0.848019 *  0.194890 *   4.00000    1.000000    
     61 O2    c    0.927164 *  0.006172 *  0.996319 *   0.87073    1.000000    
     62 O2    c    0.991209 *  0.920802 *  0.329037 *   0.87073    1.000000    
     63 O2    c    0.080387 *  0.080250 *  0.660712 *   0.87073    1.000000    
     64 O2    c    0.067071 *  0.002864 *  0.495431 *   0.87073    1.000000    
     65 O2    c    0.001160 *  0.073297 *  0.827030 *   0.87073    1.000000    
     66 O2    c    0.918190 *  0.932031 *  0.162986 *   0.87073    1.000000    
     67 O2    c    0.328676 *  0.570279 *  0.327148 *   0.87073    1.000000    
     68 O2    c    0.429276 *  0.770719 *  0.662468 *   0.87073    1.000000    
     69 O2    c    0.205198 *  0.655494 *  0.992323 *   0.87073    1.000000    
     70 O2    c    0.660543 *  0.443240 *  0.831217 *   0.87073    1.000000    
     71 O2    c    0.567218 *  0.235088 *  0.170462 *   0.87073    1.000000    
     72 O2    c    0.755689 *  0.344069 *  0.498690 *   0.87073    1.000000    
     73 O3    c    0.564159 *  0.333132 *  0.997093 *   1.33043    1.000000    
     74 O2    c    0.772713 *  0.431416 *  0.666119 *   0.87073    1.000000    
     75 O2    c    0.652228 *  0.231453 *  0.334170 *   0.87073    1.000000    
     76 O2    c    0.414567 *  0.660247 *  0.494768 *   0.87073    1.000000    
     77 O2    c    0.221983 *  0.580631 *  0.160634 *   0.87073    1.000000    
     78 O2    c    0.326158 *  0.760441 *  0.827726 *   0.87073    1.000000    
     79 O2    c    0.122064 *  0.219130 *  0.969012 *   0.87073    1.000000    
     80 O2    c    0.774675 *  0.902764 *  0.303852 *   0.87073    1.000000    
     81 O2    c    0.095655 *  0.881926 *  0.635784 *   0.87073    1.000000    
     82 O2    c    0.868913 *  0.788598 *  0.468740 *   0.87073    1.000000    
     83 O2    c    0.218871 *  0.096644 *  0.801964 *   0.87073    1.000000    
     84 O2    c    0.895717 *  0.125431 *  0.135775 *   0.87073    1.000000    
     85 O2    c    0.205156 *  0.118621 *  0.356421 *   0.87073    1.000000    
     86 O2    c    0.896997 *  0.793940 *  0.022321 *   0.87073    1.000000    
     87 O2    c    0.884918 *  0.100796 *  0.684981 *   0.87073    1.000000    
     88 O2    c    0.775176 *  0.889421 *  0.849570 *   0.87073    1.000000    
     89 O2    c    0.083066 *  0.214358 *  0.524436 *   0.87073    1.000000    
     90 O2    c    0.110962 *  0.909578 *  0.192193 *   0.87073    1.000000    
     91 O2    c    0.912909 *  0.855057 *  0.245555 *   0.87073    1.000000    
     92 O2    c    0.141583 *  0.070909 *  0.578325 *   0.87073    1.000000    
     93 O2    c    0.936773 *  0.066949 *  0.909985 *   0.87073    1.000000    
     94 O2    c    0.075227 *  0.139870 *  0.743793 *   0.87073    1.000000    
     95 O2    c    0.849694 *  0.935767 *  0.078784 *   0.87073    1.000000    
     96 O2    c    0.062285 *  0.928766 *  0.412954 *   0.87073    1.000000    
     97 O2    c    0.894239 *  0.198219 *  0.971510 *   0.87073    1.000000    
     98 O2    c    0.784835 *  0.689831 *  0.308627 *   0.87073    1.000000    
     99 O2    c    0.310649 *  0.104887 *  0.641897 *   0.87073    1.000000    
    100 O2    c    0.092048 *  0.796532 *  0.476551 *   0.87073    1.000000    
    101 O2    c    0.203397 *  0.305546 *  0.808202 *   0.87073    1.000000    
    102 O2    c    0.684838 *  0.900642 *  0.143079 *   0.87073    1.000000    
    103 O2    c    0.195530 *  0.894729 *  0.351800 *   0.87073    1.000000    
    104 O3    c    0.684914 *  0.810595 *  0.013911 *   1.33043    1.000000    
    105 O2    c    0.111628 *  0.311950 *  0.683263 *   0.87073    1.000000    
    106 O3    c    0.809425 *  0.120463 *  0.848518 *   1.33043    1.000000    
    107 O2    c    0.299134 *  0.210147 *  0.516400 *   0.87073    1.000000    
    108 O2    c    0.885395 *  0.697819 *  0.180709 *   0.87073    1.000000    
    109 O2    c    0.308453 *  0.639800 *  0.244693 *   0.87073    1.000000    
    110 O2    c    0.357632 *  0.681827 *  0.578996 *   0.87073    1.000000    
    111 O2    c    0.309612 *  0.679667 *  0.912178 *   0.87073    1.000000    
    112 O2    c    0.687772 *  0.364388 *  0.749645 *   0.87073    1.000000    
    113 O3    c    0.606580 *  0.301696 *  0.084429 *   1.33043    1.000000    
    114 O2    c    0.672424 *  0.324720 *  0.415077 *   0.87073    1.000000    
    115 O2    c    0.371288 *  0.343529 *  0.966884 *   0.87073    1.000000    
    116 O2    c    0.660696 *  0.035470 *  0.303741 *   0.87073    1.000000    
    117 O2    c    0.964654 *  0.633736 *  0.635695 *   0.87073    1.000000    
    118 O2    c    0.619957 *  0.671280 *  0.466104 *   0.87073    1.000000    
    119 O2    c    0.337341 *  0.967300 *  0.799813 *   0.87073    1.000000    
    120 O2    c    0.022555 *  0.374567 *  0.131058 *   0.87073    1.000000    
    121 O2    c    0.319768 *  0.367182 *  0.357492 *   0.87073    1.000000    
    122 O2    c    0.016622 *  0.664465 *  0.025050 *   0.87073    1.000000    
    123 O2    c    0.635175 *  0.965245 *  0.694035 *   0.87073    1.000000    
    124 O2    c    0.667798 *  0.642865 *  0.861505 *   0.87073    1.000000    
    125 O2    c    0.952416 *  0.332268 *  0.526783 *   0.87073    1.000000    
    126 O2    c    0.360392 *  0.038096 *  0.195403 *   0.87073    1.000000    
    127 O3    c    0.743920 *  0.275763 *  0.002224 *   1.33043    1.000000    
    128 O2    c    0.687971 *  0.461446 *  0.340813 *   0.87073    1.000000    
    129 O2    c    0.542993 *  0.237861 *  0.677454 *   0.87073    1.000000    
    130 O2    c    0.225405 *  0.697803 *  0.506961 *   0.87073    1.000000    
    131 O2    c    0.294864 *  0.535330 *  0.841512 *   0.87073    1.000000    
    132 O2    c    0.452360 *  0.769426 *  0.173159 *   0.87073    1.000000    
    133 O2    c    0.290774 *  0.761045 *  0.319279 *   0.87073    1.000000    
    134 O3    c    0.442334 *  0.708338 *  0.989033 *   1.33043    1.000000    
    135 O2    c    0.238812 *  0.542420 *  0.652655 *   0.87073    1.000000    
    136 O3    c    0.707159 *  0.256865 *  0.825418 *   1.33043    1.000000    
    137 O2    c    0.528618 *  0.308643 *  0.486893 *   0.87073    1.000000    
    138 O2    c    0.750587 *  0.462136 *  0.151129 *   0.87073    1.000000    
    139 O3    c    0.762049 *  0.540559 *  0.016980 *   1.33043    1.000000    
    140 O2    c    0.457372 *  0.246356 *  0.358030 *   0.87073    1.000000    
    141 O2    c    0.756296 *  0.223451 *  0.694672 *   0.87073    1.000000    
    142 O2    c    0.211092 *  0.467173 *  0.523935 *   0.87073    1.000000    
    143 O2    c    0.521663 *  0.751649 *  0.858348 *   0.87073    1.000000    
    144 O2    c    0.232892 *  0.780449 *  0.191659 *   0.87073    1.000000    
    145 O2    c    0.522799 *  0.777007 *  0.301884 *   0.87073    1.000000    
    146 O2    c    0.243211 *  0.472863 *  0.967500 *   0.87073    1.000000    
    147 O2    c    0.224437 *  0.759642 *  0.634909 *   0.87073    1.000000    
    148 O2    c    0.474515 *  0.224928 *  0.802123 *   0.87073    1.000000    
    149 O2    c    0.745707 *  0.538742 *  0.469759 *   0.87073    1.000000    
    150 O2    c    0.767432 *  0.248845 *  0.132630 *   0.87073    1.000000    
    151 O2    c    0.230058 *  0.335262 *  0.894899 *   0.87073    1.000000    
    152 O2    c    0.663924 *  0.903451 *  0.228872 *   0.87073    1.000000    
    153 O2    c    0.091203 *  0.770941 *  0.561554 *   0.87073    1.000000    
    154 O2    c    0.760169 *  0.673195 *  0.394038 *   0.87073    1.000000    
    155 O2    c    0.336557 *  0.100352 *  0.728359 *   0.87073    1.000000    
    156 O2    c    0.889821 *  0.229080 *  0.059137 *   0.87073    1.000000    
    157 O2    c    0.316272 *  0.231783 *  0.431183 *   0.87073    1.000000    
    158 O2    c    0.873132 *  0.662986 *  0.094826 *   0.87073    1.000000    
    159 O3    c    0.794257 *  0.102006 *  0.763716 *   1.33043    1.000000    
    160 O3    c    0.684700 *  0.799118 *  0.929177 *   1.33043    1.000000    
    161 O2    c    0.095285 *  0.329910 *  0.598716 *   0.87073    1.000000    
    162 O2    c    0.219989 *  0.903059 *  0.267074 *   0.87073    1.000000    
    163 O3    c    0.583099 *  0.560888 *  0.993527 *   1.33043    1.000000    
    164 O2    c    0.433048 *  0.018966 *  0.324330 *   0.87073    1.000000    
    165 O2    c    0.979961 *  0.420564 *  0.655434 *   0.87073    1.000000    
    166 O2    c    0.405893 *  0.444043 *  0.486185 *   0.87073    1.000000    
    167 O3    c    0.553176 *  0.965898 *  0.825834 *   1.33043    1.000000    
    168 O2    c    0.005185 *  0.583466 *  0.147175 *   0.87073    1.000000    
    169 O2    c    0.547667 *  0.579093 *  0.337762 *   0.87073    1.000000    
    170 O2    c    0.995580 *  0.434715 *  0.003667 *   0.87073    1.000000    
    171 O2    c    0.427815 *  0.985197 *  0.675426 *   0.87073    1.000000    
    172 O2    c    0.440185 *  0.428252 *  0.843873 *   0.87073    1.000000    
    173 O2    c    0.966994 *  0.559428 *  0.506742 *   0.87073    1.000000    
    174 O2    c    0.575641 *  0.026318 *  0.175249 *   0.87073    1.000000    
    175 O2    c    0.571281 *  0.157538 *  0.251302 *   0.87073    1.000000    
    176 O2    c    0.836664 *  0.422348 *  0.581886 *   0.87073    1.000000    
    177 O2    c    0.585772 *  0.439416 *  0.916377 *   0.87073    1.000000    
    178 O2    c    0.426005 *  0.846260 *  0.746987 *   0.87073    1.000000    
    179 O2    c    0.136564 *  0.573887 *  0.076291 *   0.87073    1.000000    
    180 O2    c    0.407995 *  0.579267 *  0.411095 *   0.87073    1.000000    
    181 F     c    0.437931 *  0.896950 *  0.248224 *   0.56000    1.000000    
    182 F     c    0.098503 *  0.553340 *  0.581133 *   0.56000    1.000000    
    183 F     c    0.471642 *  0.586013 *  0.923461 *   0.56000    1.000000    
    184 F     c    0.584099 *  0.105252 *  0.758378 *   0.56000    1.000000    
    185 F     c    0.846516 *  0.433867 *  0.070297 *   0.56000    1.000000    
    186 F     c    0.540617 *  0.450893 *  0.413374 *   0.56000    1.000000    
    187 O2    s    0.921703 *  0.006217 *  0.995523 *  -2.87073    1.000000    
    188 O2    s    0.990970 *  0.916821 *  0.329169 *  -2.87073    1.000000    
    189 O2    s    0.084530 *  0.083913 *  0.660744 *  -2.87073    1.000000    
    190 O2    s    0.071334 *  0.002772 *  0.495584 *  -2.87073    1.000000    
    191 O2    s    0.002652 *  0.079440 *  0.826627 *  -2.87073    1.000000    
    192 O2    s    0.913577 *  0.926934 *  0.162944 *  -2.87073    1.000000    
    193 O2    s    0.340476 *  0.578137 *  0.327361 *  -2.87073    1.000000    
    194 O2    s    0.421571 *  0.774653 *  0.662617 *  -2.87073    1.000000    
    195 O2    s    0.202677 *  0.644353 *  0.992887 *  -2.87073    1.000000    
    196 O2    s    0.649798 *  0.434549 *  0.831551 *  -2.87073    1.000000    
    197 O2    s    0.573047 *  0.229433 *  0.169607 *  -2.87073    1.000000    
    198 O2    s    0.760563 *  0.356023 *  0.498553 *  -2.87073    1.000000    
    199 O3    s    0.569964 *  0.345783 *  0.996643 *  -3.33043    1.000000    
    200 O2    s    0.776571 *  0.423618 *  0.666130 *  -2.87073    1.000000    
    201 O2    s    0.640241 *  0.227581 *  0.333922 *  -2.87073    1.000000    
    202 O2    s    0.407189 *  0.648540 *  0.494952 *  -2.87073    1.000000    
    203 O2    s    0.217482 *  0.587584 *  0.160730 *  -2.87073    1.000000    
    204 O2    s    0.339278 *  0.765361 *  0.828378 *  -2.87073    1.000000    
    205 O2    s    0.119108 *  0.222386 *  0.966212 *  -2.87073    1.000000    
    206 O2    s    0.771261 *  0.896316 *  0.301009 *  -2.87073    1.000000    
    207 O2    s    0.102102 *  0.885122 *  0.633079 *  -2.87073    1.000000    
    208 O2    s    0.872299 *  0.784946 *  0.466129 *  -2.87073    1.000000    
    209 O2    s    0.222418 *  0.102814 *  0.799351 *  -2.87073    1.000000    
    210 O2    s    0.889124 *  0.122085 *  0.132864 *  -2.87073    1.000000    
    211 O2    s    0.208685 *  0.115758 *  0.359120 *  -2.87073    1.000000    
    212 O2    s    0.888907 *  0.788585 *  0.024543 *  -2.87073    1.000000    
    213 O2    s    0.889109 *  0.106778 *  0.688404 *  -2.87073    1.000000    
    214 O2    s    0.773579 *  0.892301 *  0.853138 *  -2.87073    1.000000    
    215 O2    s    0.090320 *  0.218160 *  0.526858 *  -2.87073    1.000000    
    216 O2    s    0.107591 *  0.902739 *  0.194571 *  -2.87073    1.000000    
    217 O2    s    0.912382 *  0.852669 *  0.245700 *  -2.87073    1.000000    
    218 O2    s    0.144142 *  0.072918 *  0.578521 *  -2.87073    1.000000    
    219 O2    s    0.934173 *  0.070350 *  0.910321 *  -2.87073    1.000000    
    220 O2    s    0.076366 *  0.143667 *  0.743868 *  -2.87073    1.000000    
    221 O2    s    0.846268 *  0.934706 *  0.079440 *  -2.87073    1.000000    
    222 O2    s    0.063715 *  0.927144 *  0.413007 *  -2.87073    1.000000    
    223 O2    s    0.900527 *  0.199354 *  0.974527 *  -2.87073    1.000000    
    224 O2    s    0.783486 *  0.696065 *  0.311320 *  -2.87073    1.000000    
    225 O2    s    0.304822 *  0.097681 *  0.644731 *  -2.87073    1.000000    
    226 O2    s    0.084875 *  0.795255 *  0.479112 *  -2.87073    1.000000    
    227 O2    s    0.204690 *  0.299912 *  0.811126 *  -2.87073    1.000000    
    228 O2    s    0.690580 *  0.908003 *  0.145710 *  -2.87073    1.000000    
    229 O2    s    0.196692 *  0.902247 *  0.349009 *  -2.87073    1.000000    
    230 O3    s    0.694851 *  0.811477 *  0.012649 *  -3.33043    1.000000    
    231 O2    s    0.103331 *  0.305708 *  0.680459 *  -2.87073    1.000000    
    232 O3    s    0.809197 *  0.110990 *  0.846855 *  -3.33043    1.000000    
    233 O2    s    0.292527 *  0.210835 *  0.513724 *  -2.87073    1.000000    
    234 O2    s    0.892311 *  0.703633 *  0.178200 *  -2.87073    1.000000    
    235 O2    s    0.314420 *  0.651647 *  0.244889 *  -2.87073    1.000000    
    236 O2    s    0.345804 *  0.676042 *  0.579037 *  -2.87073    1.000000    
    237 O2    s    0.315154 *  0.674900 *  0.911970 *  -2.87073    1.000000    
    238 O2    s    0.682714 *  0.354416 *  0.749265 *  -2.87073    1.000000    
    239 O3    s    0.619637 *  0.307510 *  0.086270 *  -3.33043    1.000000    
    240 O2    s    0.666358 *  0.330356 *  0.415017 *  -2.87073    1.000000    
    241 O2    s    0.372344 *  0.351639 *  0.965137 *  -2.87073    1.000000    
    242 O2    s    0.650476 *  0.028894 *  0.301415 *  -2.87073    1.000000    
    243 O2    s    0.971126 *  0.630425 *  0.633332 *  -2.87073    1.000000    
    244 O2    s    0.616523 *  0.661050 *  0.463893 *  -2.87073    1.000000    
    245 O2    s    0.346331 *  0.973733 *  0.797977 *  -2.87073    1.000000    
    246 O2    s    0.016461 *  0.377484 *  0.128931 *  -2.87073    1.000000    
    247 O2    s    0.329889 *  0.370712 *  0.359761 *  -2.87073    1.000000    
    248 O2    s    0.010591 *  0.654730 *  0.026479 *  -2.87073    1.000000    
    249 O2    s    0.631689 *  0.971160 *  0.695997 *  -2.87073    1.000000    
    250 O2    s    0.658200 *  0.638993 *  0.863408 *  -2.87073    1.000000    
    251 O2    s    0.959572 *  0.342388 *  0.529000 *  -2.87073    1.000000    
    252 O2    s    0.363430 *  0.031226 *  0.197673 *  -2.87073    1.000000    
    253 O3    s    0.755645 *  0.283405 *  0.005174 *  -3.33043    1.000000    
    254 O2    s    0.680468 *  0.461021 *  0.343902 *  -2.87073    1.000000    
    255 O2    s    0.543358 *  0.231112 *  0.680111 *  -2.87073    1.000000    
    256 O2    s    0.218620 *  0.690364 *  0.510024 *  -2.87073    1.000000    
    257 O2    s    0.302384 *  0.536222 *  0.844394 *  -2.87073    1.000000    
    258 O2    s    0.451901 *  0.776089 *  0.176364 *  -2.87073    1.000000    
    259 O2    s    0.298554 *  0.768326 *  0.316240 *  -2.87073    1.000000    
    260 O3    s    0.436890 *  0.698928 *  0.985250 *  -3.33043    1.000000    
    261 O2    s    0.231355 *  0.542627 *  0.649486 *  -2.87073    1.000000    
    262 O3    s    0.698186 *  0.253038 *  0.821579 *  -3.33043    1.000000    
    263 O2    s    0.529112 *  0.316020 *  0.483651 *  -2.87073    1.000000    
    264 O2    s    0.756946 *  0.462217 *  0.148288 *  -2.87073    1.000000    
    265 O3    s    0.771338 *  0.542961 *  0.020404 *  -3.33043    1.000000    
    266 O2    s    0.460101 *  0.254281 *  0.360637 *  -2.87073    1.000000    
    267 O2    s    0.749844 *  0.219968 *  0.696801 *  -2.87073    1.000000    
    268 O2    s    0.206278 *  0.469918 *  0.526570 *  -2.87073    1.000000    
    269 O2    s    0.518952 *  0.745707 *  0.860590 *  -2.87073    1.000000    
    270 O2    s    0.241299 *  0.785844 *  0.194236 *  -2.87073    1.000000    
    271 O2    s    0.519969 *  0.782216 *  0.299304 *  -2.87073    1.000000    
    272 O2    s    0.249700 *  0.474872 *  0.965348 *  -2.87073    1.000000    
    273 O2    s    0.218520 *  0.751233 *  0.632357 *  -2.87073    1.000000    
    274 O2    s    0.476004 *  0.220191 *  0.799997 *  -2.87073    1.000000    
    275 O2    s    0.737503 *  0.535565 *  0.467034 *  -2.87073    1.000000    
    276 O2    s    0.771786 *  0.254952 *  0.130513 *  -2.87073    1.000000    
    277 O2    s    0.238824 *  0.343869 *  0.895500 *  -2.87073    1.000000    
    278 O2    s    0.654516 *  0.903252 *  0.229754 *  -2.87073    1.000000    
    279 O2    s    0.091723 *  0.761764 *  0.562444 *  -2.87073    1.000000    
    280 O2    s    0.750723 *  0.663683 *  0.394927 *  -2.87073    1.000000    
    281 O2    s    0.345115 *  0.100752 *  0.729083 *  -2.87073    1.000000    
    282 O2    s    0.888949 *  0.236505 *  0.060159 *  -2.87073    1.000000    
    283 O2    s    0.326019 *  0.241220 *  0.430309 *  -2.87073    1.000000    
    284 O2    s    0.874697 *  0.655650 *  0.094541 *  -2.87073    1.000000    
    285 O3    s    0.784401 *  0.101986 *  0.760871 *  -3.33043    1.000000    
    286 O3    s    0.675113 *  0.789145 *  0.926364 *  -3.33043    1.000000    
    287 O2    s    0.095379 *  0.339307 *  0.597793 *  -2.87073    1.000000    
    288 O2    s    0.229244 *  0.902655 *  0.266123 *  -2.87073    1.000000    
    289 O3    s    0.577226 *  0.557342 *  0.989473 *  -3.33043    1.000000    
    290 O2    s    0.432619 *  0.014461 *  0.320775 *  -2.87073    1.000000    
    291 O2    s    0.984586 *  0.425196 *  0.652016 *  -2.87073    1.000000    
    292 O2    s    0.410665 *  0.443684 *  0.482801 *  -2.87073    1.000000    
    293 O3    s    0.549035 *  0.968435 *  0.821770 *  -3.33043    1.000000    
    294 O2    s    0.001192 *  0.579183 *  0.144547 *  -2.87073    1.000000    
    295 O2    s    0.548069 *  0.574869 *  0.341141 *  -2.87073    1.000000    
    296 O2    s    0.993233 *  0.435197 *  0.006597 *  -2.87073    1.000000    
    297 O2    s    0.430968 *  0.989093 *  0.678289 *  -2.87073    1.000000    
    298 O2    s    0.439306 *  0.431810 *  0.846594 *  -2.87073    1.000000    
    299 O2    s    0.972278 *  0.560164 *  0.510091 *  -2.87073    1.000000    
    300 O2    s    0.570958 *  0.021094 *  0.178502 *  -2.87073    1.000000    
    301 O2    s    0.565791 *  0.146454 *  0.251215 *  -2.87073    1.000000    
    302 O2    s    0.847772 *  0.427911 *  0.581891 *  -2.87073    1.000000    
    303 O2    s    0.580703 *  0.443321 *  0.915686 *  -2.87073    1.000000    
    304 O2    s    0.430786 *  0.855684 *  0.746757 *  -2.87073    1.000000    
    305 O2    s    0.126788 *  0.569545 *  0.076608 *  -2.87073    1.000000    
    306 O2    s    0.413557 *  0.573952 *  0.411218 *  -2.87073    1.000000    
    307 F     s    0.437509 *  0.896414 *  0.248263 *  -1.56000    1.000000    
    308 F     s    0.098949 *  0.553613 *  0.581239 *  -1.56000    1.000000    
    309 F     s    0.478514 *  0.593530 *  0.926572 *  -1.56000    1.000000    
    310 F     s    0.591174 *  0.105488 *  0.761450 *  -1.56000    1.000000    
    311 F     s    0.835229 *  0.429427 *  0.067662 *  -1.56000    1.000000    
    312 F     s    0.540806 *  0.450693 *  0.413451 *  -1.56000    1.000000    
--------------------------------------------------------------------------------



********************************************************************************
*  General input information                                                   *
********************************************************************************

  Species output for all configurations : 

--------------------------------------------------------------------------------
  Species    Type    Atomic    Atomic    Charge       Radii (Angs)     Library
                     Number     Mass       (e)     Cova   Ionic  VDW   Symbol
--------------------------------------------------------------------------------
    Si       Core       14      28.09   4.000000   1.200  0.000  2.100          
    O1       Core        8      16.00   1.733957   0.730  0.000  1.360          
    O1       Shell       8       0.00  -3.733957   0.730  0.000  1.360          
    O2       Core        8      16.00   0.870733   0.730  0.000  1.360          
    O2       Shell       8       0.00  -2.870733   0.730  0.000  1.360          
    O3       Core        8      16.00   1.330431   0.730  0.000  1.360          
    O3       Shell       8       0.00  -3.330431   0.730  0.000  1.360          
    F        Core        9      19.00   0.560000   0.710  0.000  1.300          
    F        Shell       9       0.00  -1.560000   0.710  0.000  1.300          
    Ge       Core       32      72.61   4.000000   1.170  0.000  1.750          
--------------------------------------------------------------------------------


  Lattice summation method               =    Ewald          (3-D)
                                         =    Parry          (2-D)
                                         =    Saunders et al (1-D)
  Accuracy factor for lattice sums       =   12.000


  Time limit = Infinity

  Maximum range for interatomic potentials =        16.000000 Angstroms

  Taper potentials to zero over   1.0000 Angstroms using polynomial

  General interatomic potentials :

--------------------------------------------------------------------------------
Atom  Types   Potential         A         B         C         D     Cutoffs(Ang)
  1     2                                                            Min    Max 
--------------------------------------------------------------------------------
Si   c O1   s Buckingham    0.132E+04 0.318      10.1      0.00     0.000 16.000
Si   c O2   s Buckingham    0.132E+04 0.318      10.1      0.00     0.000 16.000
Si   c O3   s Buckingham    0.132E+04 0.318      10.1      0.00     0.000 16.000
Ge   c O1   s Buckingham    0.150E+04 0.326      16.8      0.00     0.000 16.000
Ge   c O2   s Buckingham    0.150E+04 0.326      16.8      0.00     0.000 16.000
Ge   c O3   s Buckingham    0.150E+04 0.326      16.8      0.00     0.000 16.000
O1   s O1   s Buckingham    0.228E+05 0.149      10.9      0.00     0.000 16.000
O1   s O2   s Buckingham    0.228E+05 0.149      10.9      0.00     0.000 16.000
O1   s O3   s Buckingham    0.228E+05 0.149      10.9      0.00     0.000 16.000
O2   s O2   s Buckingham    0.228E+05 0.149      10.9      0.00     0.000 16.000
O2   s O3   s Buckingham    0.228E+05 0.149      10.9      0.00     0.000 16.000
O3   s O3   s Buckingham    0.228E+05 0.149      10.9      0.00     0.000 16.000
Si   c F    s Buckingham     977.     0.282      0.00      0.00     0.000 16.000
Ge   c F    s Buckingham     681.     0.320      0.00      0.00     0.000 16.000
F    s F    s Buckingham     540.     0.262      0.00      0.00     0.000 16.000
O1   s F    s Buckingham    0.168E+04 0.268      0.00      0.00     0.000 16.000
O2   s F    s Buckingham    0.168E+04 0.268      0.00      0.00     0.000 16.000
O3   s F    s Buckingham    0.168E+04 0.268      0.00      0.00     0.000 16.000
O2   c O2   s Spring (c-s)   76.0      0.00      0.00      0.00     0.000  0.800
O3   c O3   s Spring (c-s)   128.      0.00      0.00      0.00     0.000  0.800
O1   c O1   s Spring (c-s)   180.      0.00      0.00      0.00     0.000  0.800
F    c F    s Spring (c-s)   33.5      0.00      0.00      0.00     0.000  0.800
--------------------------------------------------------------------------------

  General Three-body potentials :

  Harmonic form:

--------------------------------------------------------------------------------
Atom    Atom    Atom           Force Constants            Theta     Cutoffs  
  1       2       3     (eVrad**-2/eVrad**-3/eVrad**-4)   (deg)  1-2  1-3  2-3
--------------------------------------------------------------------------------
Si    c O1    s O1    s  1.261        0.0000    0.0000   109.470 0.00 0.00 0.00
                                                                 1.90 1.90 3.50
Si    c O1    s O2    s  1.261        0.0000    0.0000   109.470 0.00 0.00 0.00
                                                                 1.90 1.90 3.50
Si    c O2    s O2    s  1.261        0.0000    0.0000   109.470 0.00 0.00 0.00
                                                                 1.90 1.90 3.50
--------------------------------------------------------------------------------

********************************************************************************
*  Output for configuration   1                                                *
********************************************************************************


  Components of energy : 

--------------------------------------------------------------------------------
  Interatomic potentials     =        2067.32924961 eV
  Three-body potentials      =           0.50492174 eV
  Monopole - monopole (real) =       -6614.49850961 eV
  Monopole - monopole (recip)=       -3174.19068368 eV
  Monopole - monopole (total)=       -9788.68919329 eV
  Neutralising energy        =          -6.46584099 eV
--------------------------------------------------------------------------------
  Total lattice energy       =       -7727.32086292 eV
--------------------------------------------------------------------------------
  Total lattice energy       =         -745568.3404 kJ/(mole unit cells)
--------------------------------------------------------------------------------


  Number of variables =      939

  Maximum number of calculations  =          5000
  Maximum Hessian update interval =            10
  Maximum step size               =   0.100000000
  Maximum parameter tolerance     =   0.000010000
  Maximum function  tolerance     =   0.000010000
  Maximum gradient  tolerance     =   0.001000000
  Maximum gradient  component     =   0.010000000

  Symmetry not applied to optimisation

  Cell parameters to be optimised using strains

  Newton-Raphson optimiser to be used

  BFGS hessian update to be used

  Dumpfile to be written after every cycle

  Start of bulk optimisation :

  Cycle:      0 Energy:     -7727.320863  Gnorm:      0.000255  CPU:    2.021
  ** Hessian calculated **
  Cycle:      1 Energy:     -7727.326235  Gnorm:      0.000214  CPU:    6.602
  Cycle:      2 Energy:     -7727.327566  Gnorm:      0.000221  CPU:   10.771
  Cycle:      3 Energy:     -7727.327896  Gnorm:      0.000140  CPU:   14.940
  Cycle:      4 Energy:     -7727.327979  Gnorm:      0.000078  CPU:   19.109
  Cycle:      5 Energy:     -7727.327993  Gnorm:      0.000056  CPU:   21.926
  Cycle:      6 Energy:     -7727.327999  Gnorm:      0.000039  CPU:   24.742


  **** Optimisation achieved ****


  Final energy =   -7727.32800286 eV
  Final Gnorm  =       0.00002778

  Components of energy : 

--------------------------------------------------------------------------------
  Interatomic potentials     =        2067.34052336 eV
  Three-body potentials      =           0.50676313 eV
  Monopole - monopole (real) =       -6614.09443975 eV
  Monopole - monopole (recip)=       -3174.61414608 eV
  Monopole - monopole (total)=       -9788.70858583 eV
  Neutralising energy        =          -6.46670351 eV
--------------------------------------------------------------------------------
  Total lattice energy       =       -7727.32800286 eV
--------------------------------------------------------------------------------
  Total lattice energy       =         -745569.0292 kJ/(mole unit cells)
--------------------------------------------------------------------------------

  Final fractional coordinates of atoms :

--------------------------------------------------------------------------------
   No.  Atomic        x           y          z          Radius
        Label       (Frac)      (Frac)     (Frac)       (Angs) 
--------------------------------------------------------------------------------
     1  Ge    c     0.699600    0.375700    0.033890    0.000000
     2  Si    c     0.612682    0.323735    0.364691    0.000000
     3  Si    c     0.690897    0.316647    0.699634    0.000000
     4  Si    c     0.294980    0.628436    0.529084    0.000000
     5  Si    c     0.367797    0.686563    0.863118    0.000000
     6  Si    c     0.308339    0.704002    0.195707    0.000000
     7  Si    c     0.364730    0.698126    0.296554    0.000000
     8  Si    c     0.305839    0.633053    0.965294    0.000000
     9  Si    c     0.304696    0.689425    0.630214    0.000000
    10  Si    c     0.634466    0.324581    0.802179    0.000000
    11  Si    c     0.671181    0.386821    0.465804    0.000000
    12  Si    c     0.672849    0.313298    0.132408    0.000000
    13  Si    c     0.533299    0.428712    0.969579    0.000000
    14  Si    c     0.572298    0.107484    0.302015    0.000000
    15  Si    c     0.896029    0.483674    0.633424    0.000000
    16  Si    c     0.462009    0.587296    0.463178    0.000000
    17  Si    c     0.419245    0.896699    0.800162    0.000000
    18  Si    c     0.093361    0.531907    0.128610    0.000000
    19  Si    c     0.405238    0.526876    0.360843    0.000000
    20  Si    c     0.083533    0.580300    0.025578    0.000000
    21  Si    c     0.480450    0.900464    0.697019    0.000000
    22  Si    c     0.587411    0.494562    0.866057    0.000000
    23  Si    c     0.885257    0.425543    0.531177    0.000000
    24  Si    c     0.515425    0.108709    0.200171    0.000000
    25  Si    c     0.297837    0.409184    0.848794    0.000000
    26  Si    c     0.588846    0.903704    0.182019    0.000000
    27  Si    c     0.092842    0.705235    0.515420    0.000000
    28  Si    c     0.686902    0.598688    0.347882    0.000000
    29  Si    c     0.408028    0.111687    0.682230    0.000000
    30  Si    c     0.880493    0.288251    0.010107    0.000000
    31  Si    c     0.392772    0.309970    0.478252    0.000000
    32  Si    c     0.877024    0.599915    0.141982    0.000000
    33  Ge    c     0.694137    0.114402    0.807878    0.000000
    34  Ge    c     0.578528    0.698246    0.972242    0.000000
    35  Si    c     0.105810    0.412741    0.646167    0.000000
    36  Si    c     0.290505    0.898576    0.313753    0.000000
    37  Si    c     0.247635    0.351746    0.950532    0.000000
    38  Si    c     0.646983    0.907036    0.283821    0.000000
    39  Si    c     0.095476    0.760905    0.616718    0.000000
    40  Si    c     0.740953    0.664138    0.449139    0.000000
    41  Si    c     0.347984    0.104971    0.784075    0.000000
    42  Si    c     0.890683    0.248335    0.114202    0.000000
    43  Si    c     0.330360    0.250700    0.377167    0.000000
    44  Si    c     0.881714    0.662164    0.039222    0.000000
    45  Si    c     0.765833    0.104767    0.711779    0.000000
    46  Si    c     0.661480    0.775956    0.876820    0.000000
    47  Si    c     0.086945    0.347818    0.544888    0.000000
    48  Si    c     0.234718    0.908943    0.212853    0.000000
    49  Si    c     0.970752    0.123584    0.961886    0.000000
    50  Si    c     0.864076    0.843715    0.297177    0.000000
    51  Si    c     0.158254    0.040520    0.629783    0.000000
    52  Si    c     0.022533    0.883002    0.464153    0.000000
    53  Si    c     0.124224    0.159532    0.796354    0.000000
    54  Si    c     0.835109    0.973757    0.129919    0.000000
    55  Si    c     0.112767    0.968515    0.362857    0.000000
    56  Si    c     0.832682    0.887028    0.026818    0.000000
    57  Si    c     0.040034    0.165664    0.693905    0.000000
    58  Si    c     0.880437    0.047718    0.858993    0.000000
    59  Si    c     0.147879    0.130121    0.528982    0.000000
    60  Si    c     0.954031    0.849417    0.195344    0.000000
    61  O2    c     0.930016    0.009421    0.996917    0.000000
    62  O2    c     0.989778    0.923866    0.329468    0.000000
    63  O2    c     0.081670    0.086643    0.661199    0.000000
    64  O2    c     0.065935    0.007556    0.495973    0.000000
    65  O2    c     0.002789    0.079003    0.827416    0.000000
    66  O2    c     0.916249    0.933733    0.163635    0.000000
    67  O2    c     0.327230    0.573660    0.327808    0.000000
    68  O2    c     0.430520    0.776919    0.663117    0.000000
    69  O2    c     0.205349    0.658898    0.993069    0.000000
    70  O2    c     0.662753    0.449686    0.831800    0.000000
    71  O2    c     0.565535    0.236825    0.170552    0.000000
    72  O2    c     0.755469    0.348750    0.499326    0.000000
    73  O3    c     0.564774    0.336082    0.997104    0.000000
    74  O2    c     0.773847    0.437497    0.666780    0.000000
    75  O2    c     0.650672    0.234638    0.334620    0.000000
    76  O2    c     0.414263    0.664938    0.495342    0.000000
    77  O2    c     0.220602    0.582963    0.161312    0.000000
    78  O2    c     0.327876    0.766687    0.828555    0.000000
    79  O2    c     0.124562    0.223259    0.969552    0.000000
    80  O2    c     0.773484    0.905965    0.304173    0.000000
    81  O2    c     0.096752    0.887838    0.636545    0.000000
    82  O2    c     0.868082    0.792692    0.469352    0.000000
    83  O2    c     0.220912    0.102948    0.802693    0.000000
    84  O2    c     0.894982    0.127649    0.136395    0.000000
    85  O2    c     0.203723    0.122027    0.356927    0.000000
    86  O2    c     0.895692    0.795306    0.022559    0.000000
    87  O2    c     0.886346    0.107000    0.685678    0.000000
    88  O2    c     0.776340    0.895228    0.849970    0.000000
    89  O2    c     0.082850    0.219348    0.525166    0.000000
    90  O2    c     0.108945    0.911119    0.192596    0.000000
    91  O2    c     0.911041    0.856389    0.246030    0.000000
    92  O2    c     0.141844    0.075800    0.578886    0.000000
    93  O2    c     0.939282    0.070822    0.910466    0.000000
    94  O2    c     0.077291    0.145926    0.744306    0.000000
    95  O2    c     0.850266    0.938612    0.079301    0.000000
    96  O2    c     0.060969    0.932612    0.413472    0.000000
    97  O2    c     0.896238    0.200875    0.972059    0.000000
    98  O2    c     0.783054    0.692689    0.309209    0.000000
    99  O2    c     0.311758    0.110841    0.642566    0.000000
   100  O2    c     0.091730    0.801582    0.477218    0.000000
   101  O2    c     0.205092    0.311633    0.808749    0.000000
   102  O2    c     0.683548    0.903163    0.143313    0.000000
   103  O2    c     0.194201    0.898172    0.352321    0.000000
   104  O3    c     0.686001    0.815840    0.014247    0.000000
   105  O2    c     0.112947    0.318287    0.683973    0.000000
   106  O3    c     0.811802    0.126590    0.849330    0.000000
   107  O2    c     0.298578    0.214504    0.516939    0.000000
   108  O2    c     0.883126    0.699310    0.180903    0.000000
   109  O2    c     0.307184    0.642694    0.245306    0.000000
   110  O2    c     0.358242    0.687657    0.579569    0.000000
   111  O2    c     0.310842    0.684829    0.912991    0.000000
   112  O2    c     0.689634    0.370569    0.750331    0.000000
   113  O3    c     0.605789    0.301919    0.084314    0.000000
   114  O2    c     0.671206    0.328154    0.415668    0.000000
   115  O2    c     0.373664    0.349208    0.967457    0.000000
   116  O2    c     0.659383    0.038705    0.304111    0.000000
   117  O2    c     0.965582    0.639694    0.636339    0.000000
   118  O2    c     0.619146    0.675271    0.466683    0.000000
   119  O2    c     0.339394    0.973615    0.800610    0.000000
   120  O2    c     0.021575    0.376960    0.131738    0.000000
   121  O2    c     0.318251    0.370518    0.358102    0.000000
   122  O2    c     0.015964    0.666632    0.025581    0.000000
   123  O2    c     0.636627    0.971391    0.694795    0.000000
   124  O2    c     0.669500    0.648987    0.862089    0.000000
   125  O2    c     0.952482    0.337529    0.527454    0.000000
   126  O2    c     0.358586    0.040386    0.195781    0.000000
   127  O3    c     0.744380    0.276525    0.002315    0.000000
   128  O2    c     0.686390    0.464595    0.341431    0.000000
   129  O2    c     0.544285    0.243949    0.678136    0.000000
   130  O2    c     0.225378    0.702988    0.507529    0.000000
   131  O2    c     0.296299    0.541079    0.842238    0.000000
   132  O2    c     0.451024    0.771765    0.173629    0.000000
   133  O2    c     0.289466    0.764327    0.319850    0.000000
   134  O3    c     0.443163    0.712633    0.989812    0.000000
   135  O2    c     0.239919    0.548559    0.653261    0.000000
   136  O3    c     0.709468    0.263301    0.826175    0.000000
   137  O2    c     0.527934    0.312732    0.487496    0.000000
   138  O2    c     0.748797    0.463376    0.151178    0.000000
   139  O3    c     0.761897    0.541040    0.016863    0.000000
   140  O2    c     0.455881    0.249543    0.358627    0.000000
   141  O2    c     0.757690    0.229543    0.695271    0.000000
   142  O2    c     0.211096    0.472387    0.524603    0.000000
   143  O2    c     0.522970    0.757485    0.859116    0.000000
   144  O2    c     0.231421    0.782782    0.192116    0.000000
   145  O2    c     0.521564    0.780358    0.302422    0.000000
   146  O2    c     0.244355    0.477239    0.968066    0.000000
   147  O2    c     0.225525    0.765739    0.635541    0.000000
   148  O2    c     0.476628    0.231197    0.802878    0.000000
   149  O2    c     0.744907    0.542727    0.470275    0.000000
   150  O2    c     0.766333    0.250332    0.132990    0.000000
   151  O2    c     0.231972    0.340476    0.895440    0.000000
   152  O2    c     0.662568    0.906315    0.229255    0.000000
   153  O2    c     0.091765    0.776634    0.562195    0.000000
   154  O2    c     0.758884    0.676767    0.394607    0.000000
   155  O2    c     0.338192    0.106493    0.729099    0.000000
   156  O2    c     0.890212    0.231359    0.059680    0.000000
   157  O2    c     0.315144    0.235457    0.431783    0.000000
   158  O2    c     0.870763    0.663879    0.094930    0.000000
   159  O3    c     0.796279    0.108590    0.764436    0.000000
   160  O3    c     0.686034    0.804754    0.929793    0.000000
   161  O2    c     0.095762    0.335616    0.599410    0.000000
   162  O2    c     0.218353    0.905705    0.267524    0.000000
   163  O3    c     0.585291    0.566162    0.994063    0.000000
   164  O2    c     0.431662    0.022215    0.324729    0.000000
   165  O2    c     0.981073    0.426748    0.656110    0.000000
   166  O2    c     0.405108    0.448176    0.486797    0.000000
   167  O3    c     0.555290    0.972214    0.826613    0.000000
   168  O2    c     0.003554    0.585584    0.147509    0.000000
   169  O2    c     0.546099    0.582284    0.338370    0.000000
   170  O2    c     0.995914    0.437245    0.004147    0.000000
   171  O2    c     0.429198    0.991303    0.676152    0.000000
   172  O2    c     0.442080    0.434400    0.844442    0.000000
   173  O2    c     0.966860    0.564627    0.507395    0.000000
   174  O2    c     0.573866    0.028481    0.175564    0.000000
   175  O2    c     0.569741    0.160310    0.251616    0.000000
   176  O2    c     0.837139    0.427916    0.582548    0.000000
   177  O2    c     0.588112    0.445489    0.916906    0.000000
   178  O2    c     0.427658    0.852434    0.747753    0.000000
   179  O2    c     0.135923    0.576275    0.076908    0.000000
   180  O2    c     0.406799    0.582942    0.411721    0.000000
   181  F     c     0.436391    0.899775    0.248639    0.000000
   182  F     c     0.099124    0.559269    0.581738    0.000000
   183  F     c     0.473087    0.591284    0.924040    0.000000
   184  F     c     0.586051    0.111536    0.759167    0.000000
   185  F     c     0.845961    0.434872    0.070563    0.000000
   186  F     c     0.539198    0.454284    0.413980    0.000000
   187  O2    s     0.924394    0.009518    0.996096    0.000000
   188  O2    s     0.989537    0.919889    0.329612    0.000000
   189  O2    s     0.085816    0.090228    0.661261    0.000000
   190  O2    s     0.070288    0.007434    0.496135    0.000000
   191  O2    s     0.004332    0.085170    0.827052    0.000000
   192  O2    s     0.911701    0.928644    0.163545    0.000000
   193  O2    s     0.339058    0.581511    0.328015    0.000000
   194  O2    s     0.422814    0.780828    0.663271    0.000000
   195  O2    s     0.202879    0.647794    0.993610    0.000000
   196  O2    s     0.651970    0.440922    0.832142    0.000000
   197  O2    s     0.571381    0.231152    0.169723    0.000000
   198  O2    s     0.760295    0.360666    0.499179    0.000000
   199  O3    s     0.570764    0.348737    0.996722    0.000000
   200  O2    s     0.777717    0.429675    0.666787    0.000000
   201  O2    s     0.638723    0.230759    0.334378    0.000000
   202  O2    s     0.406867    0.653230    0.495534    0.000000
   203  O2    s     0.216132    0.589967    0.161385    0.000000
   204  O2    s     0.340956    0.771538    0.829202    0.000000
   205  O2    s     0.121506    0.226439    0.966767    0.000000
   206  O2    s     0.770016    0.899466    0.301352    0.000000
   207  O2    s     0.103176    0.891028    0.633816    0.000000
   208  O2    s     0.871457    0.789065    0.466738    0.000000
   209  O2    s     0.224438    0.109081    0.800064    0.000000
   210  O2    s     0.888371    0.124304    0.133457    0.000000
   211  O2    s     0.207258    0.119155    0.359632    0.000000
   212  O2    s     0.887801    0.790157    0.024783    0.000000
   213  O2    s     0.890559    0.112997    0.689095    0.000000
   214  O2    s     0.774865    0.898110    0.853573    0.000000
   215  O2    s     0.090100    0.223144    0.527566    0.000000
   216  O2    s     0.105614    0.904332    0.194986    0.000000
   217  O2    s     0.910532    0.854166    0.246172    0.000000
   218  O2    s     0.144407    0.077903    0.579089    0.000000
   219  O2    s     0.936643    0.074343    0.910830    0.000000
   220  O2    s     0.078338    0.149745    0.744397    0.000000
   221  O2    s     0.846711    0.937532    0.079939    0.000000
   222  O2    s     0.062446    0.931014    0.413531    0.000000
   223  O2    s     0.902506    0.202089    0.975099    0.000000
   224  O2    s     0.781740    0.698947    0.311902    0.000000
   225  O2    s     0.305942    0.103642    0.645391    0.000000
   226  O2    s     0.084534    0.800269    0.479772    0.000000
   227  O2    s     0.206413    0.305964    0.811682    0.000000
   228  O2    s     0.689292    0.910461    0.145964    0.000000
   229  O2    s     0.195342    0.905648    0.349528    0.000000
   230  O3    s     0.695913    0.816455    0.012997    0.000000
   231  O2    s     0.104638    0.312022    0.681156    0.000000
   232  O3    s     0.811541    0.117092    0.847651    0.000000
   233  O2    s     0.291955    0.215212    0.514262    0.000000
   234  O2    s     0.890100    0.705129    0.178428    0.000000
   235  O2    s     0.313167    0.654572    0.245497    0.000000
   236  O2    s     0.346411    0.681854    0.579625    0.000000
   237  O2    s     0.316345    0.680065    0.912763    0.000000
   238  O2    s     0.684542    0.360568    0.749950    0.000000
   239  O3    s     0.618819    0.307795    0.086194    0.000000
   240  O2    s     0.665177    0.333797    0.415602    0.000000
   241  O2    s     0.374578    0.357161    0.965701    0.000000
   242  O2    s     0.649165    0.032121    0.301791    0.000000
   243  O2    s     0.972065    0.636373    0.633972    0.000000
   244  O2    s     0.615711    0.665052    0.464477    0.000000
   245  O2    s     0.348363    0.980030    0.798771    0.000000
   246  O2    s     0.015461    0.379817    0.129581    0.000000
   247  O2    s     0.328399    0.374062    0.360372    0.000000
   248  O2    s     0.009978    0.656833    0.026964    0.000000
   249  O2    s     0.633143    0.977316    0.696751    0.000000
   250  O2    s     0.659901    0.645082    0.863995    0.000000
   251  O2    s     0.959624    0.347630    0.529665    0.000000
   252  O2    s     0.361648    0.033508    0.198051    0.000000
   253  O3    s     0.755972    0.284347    0.005319    0.000000
   254  O2    s     0.678893    0.464155    0.344517    0.000000
   255  O2    s     0.544657    0.237191    0.680790    0.000000
   256  O2    s     0.218606    0.695565    0.510608    0.000000
   257  O2    s     0.303846    0.541998    0.845112    0.000000
   258  O2    s     0.450603    0.778481    0.176822    0.000000
   259  O2    s     0.297225    0.771601    0.316809    0.000000
   260  O3    s     0.437660    0.703255    0.986009    0.000000
   261  O2    s     0.232450    0.548763    0.650102    0.000000
   262  O3    s     0.700484    0.259425    0.822338    0.000000
   263  O2    s     0.528448    0.320110    0.484243    0.000000
   264  O2    s     0.755174    0.463476    0.148357    0.000000
   265  O3    s     0.771146    0.543753    0.020298    0.000000
   266  O2    s     0.458643    0.257488    0.361229    0.000000
   267  O2    s     0.751253    0.226067    0.697418    0.000000
   268  O2    s     0.206280    0.475123    0.527236    0.000000
   269  O2    s     0.520253    0.751544    0.861340    0.000000
   270  O2    s     0.239838    0.788211    0.194704    0.000000
   271  O2    s     0.518721    0.785537    0.299834    0.000000
   272  O2    s     0.250889    0.479290    0.965935    0.000000
   273  O2    s     0.219600    0.757309    0.632992    0.000000
   274  O2    s     0.478102    0.226447    0.800745    0.000000
   275  O2    s     0.736700    0.539550    0.467562    0.000000
   276  O2    s     0.770724    0.256475    0.130869    0.000000
   277  O2    s     0.240725    0.349100    0.896053    0.000000
   278  O2    s     0.653177    0.906110    0.230120    0.000000
   279  O2    s     0.092269    0.767432    0.563090    0.000000
   280  O2    s     0.749453    0.667256    0.395510    0.000000
   281  O2    s     0.346753    0.106890    0.729810    0.000000
   282  O2    s     0.889311    0.238777    0.060669    0.000000
   283  O2    s     0.324909    0.244912    0.430890    0.000000
   284  O2    s     0.872455    0.656627    0.094677    0.000000
   285  O3    s     0.786379    0.108522    0.761605    0.000000
   286  O3    s     0.676501    0.794812    0.926930    0.000000
   287  O2    s     0.095867    0.344997    0.598479    0.000000
   288  O2    s     0.227624    0.905312    0.266585    0.000000
   289  O3    s     0.579376    0.562511    0.990023    0.000000
   290  O2    s     0.431219    0.017687    0.321185    0.000000
   291  O2    s     0.985680    0.431345    0.652686    0.000000
   292  O2    s     0.409894    0.447841    0.483404    0.000000
   293  O3    s     0.551135    0.974737    0.822557    0.000000
   294  O2    s     0.999585    0.581265    0.144891    0.000000
   295  O2    s     0.546513    0.578069    0.341758    0.000000
   296  O2    s     0.993543    0.437629    0.007075    0.000000
   297  O2    s     0.432341    0.995195    0.679010    0.000000
   298  O2    s     0.441187    0.437922    0.847168    0.000000
   299  O2    s     0.972153    0.565341    0.510741    0.000000
   300  O2    s     0.569245    0.023274    0.178815    0.000000
   301  O2    s     0.564253    0.149215    0.251543    0.000000
   302  O2    s     0.848240    0.433471    0.582537    0.000000
   303  O2    s     0.583017    0.449327    0.916218    0.000000
   304  O2    s     0.432439    0.861845    0.747522    0.000000
   305  O2    s     0.126131    0.571962    0.077212    0.000000
   306  O2    s     0.412373    0.577639    0.411846    0.000000
   307  F     s     0.435959    0.899239    0.248672    0.000000
   308  F     s     0.099579    0.559567    0.581839    0.000000
   309  F     s     0.480087    0.598935    0.927218    0.000000
   310  F     s     0.593119    0.111782    0.762225    0.000000
   311  F     s     0.834614    0.430264    0.067877    0.000000
   312  F     s     0.539358    0.454061    0.414059    0.000000
--------------------------------------------------------------------------------

  Final Cartesian lattice vectors (Angstroms) :

       11.964126   -0.002081   -0.003804
       -6.088828   10.395832   -0.001693
       -0.527872   -0.538209   29.313404


  Final cell parameters and derivatives :

--------------------------------------------------------------------------------
       a           11.964127 Angstrom     dE/de1(xx)     0.003768 eV/strain
       b           12.047703 Angstrom     dE/de2(yy)     0.002485 eV/strain
       c           29.323096 Angstrom     dE/de3(zz)     0.003636 eV/strain
       alpha       90.394214 Degrees      dE/de4(yz)    -0.000168 eV/strain
       beta        91.049522 Degrees      dE/de5(xz)     0.000804 eV/strain
       gamma      120.367422 Degrees      dE/de6(xy)    -0.000247 eV/strain
--------------------------------------------------------------------------------

  Primitive cell volume =          3645.499025 Angs**3

  Density of cell =      1.755066 g/cm**3

  Non-primitive cell volume =          3645.499025 Angs**3


  Final internal derivatives :

--------------------------------------------------------------------------------
   No.  Atomic          a             b             c           Radius
        Label          (eV)          (eV)          (eV)        (eV/Angs)
--------------------------------------------------------------------------------
      1 Ge    c       0.000000      0.000000      0.000000      0.000000
      2 Si    c       0.000286     -0.000036      0.000014      0.000000
      3 Si    c      -0.000021     -0.000311      0.000148      0.000000
      4 Si    c      -0.000030     -0.000215     -0.000263      0.000000
      5 Si    c       0.000176     -0.000415     -0.000108      0.000000
      6 Si    c       0.000103     -0.000085     -0.000026      0.000000
      7 Si    c       0.000180     -0.000023      0.000118      0.000000
      8 Si    c       0.000441     -0.000279     -0.000162      0.000000
      9 Si    c      -0.000045     -0.000237      0.000219      0.000000
     10 Si    c      -0.000059     -0.000334     -0.000400      0.000000
     11 Si    c       0.000055      0.000107      0.000017      0.000000
     12 Si    c       0.000688     -0.000145      0.003946      0.000000
     13 Si    c      -0.005599      0.006006     -0.008460      0.000000
     14 Si    c       0.000301     -0.000098      0.000163      0.000000
     15 Si    c       0.000036     -0.000197      0.000138      0.000000
     16 Si    c       0.000286     -0.000219     -0.000089      0.000000
     17 Si    c      -0.000032     -0.000255     -0.000183      0.000000
     18 Si    c       0.000488     -0.000227      0.000696      0.000000
     19 Si    c       0.000212     -0.000002     -0.000122      0.000000
     20 Si    c       0.000595     -0.000073      0.000603      0.000000
     21 Si    c      -0.000076     -0.000238      0.000035      0.000000
     22 Si    c      -0.000310      0.000038     -0.000211      0.000000
     23 Si    c       0.000210     -0.000088     -0.000222      0.000000
     24 Si    c       0.000260     -0.000381      0.000160      0.000000
     25 Si    c       0.000016     -0.000199     -0.000583      0.000000
     26 Si    c       0.000413     -0.000071     -0.000510      0.000000
     27 Si    c       0.000106     -0.000272     -0.000224      0.000000
     28 Si    c       0.000253     -0.000023     -0.000310      0.000000
     29 Si    c       0.000004     -0.000297     -0.000048      0.000000
     30 Si    c       0.000902     -0.001536     -0.001682      0.000000
     31 Si    c       0.000160      0.000009      0.000523      0.000000
     32 Si    c       0.000099      0.000301      0.000447      0.000000
     33 Ge    c      -0.000145     -0.000307     -0.000078      0.000000
     34 Ge    c      -0.000046     -0.000710     -0.001536      0.000000
     35 Si    c      -0.000019     -0.000229      0.000115      0.000000
     36 Si    c       0.000209     -0.000106      0.000296      0.000000
     37 Si    c       0.000324     -0.000050     -0.000045      0.000000
     38 Si    c       0.000245      0.000004      0.000103      0.000000
     39 Si    c       0.000011     -0.000291     -0.000024      0.000000
     40 Si    c       0.000223     -0.000073      0.000527      0.000000
     41 Si    c      -0.000066     -0.000306     -0.000234      0.000000
     42 Si    c       0.000552     -0.000514      0.001609      0.000000
     43 Si    c       0.000183      0.000005     -0.000139      0.000000
     44 Si    c      -0.000652      0.001371      0.001261      0.000000
     45 Si    c      -0.000040     -0.000303     -0.000144      0.000000
     46 Si    c       0.000080     -0.000303     -0.000038      0.000000
     47 Si    c       0.000146     -0.000075     -0.000596      0.000000
     48 Si    c       0.000270     -0.000084     -0.000202      0.000000
     49 Si    c      -0.000469     -0.000443      0.001452      0.000000
     50 Si    c       0.000078      0.000017      0.001648      0.000000
     51 Si    c       0.000175     -0.000408      0.000500      0.000000
     52 Si    c       0.000169     -0.000123      0.000305      0.000000
     53 Si    c      -0.000191     -0.000125     -0.000014      0.000000
     54 Si    c      -0.000313      0.000426      0.002489      0.000000
     55 Si    c       0.000262     -0.000025     -0.000250      0.000000
     56 Si    c       0.000042      0.001077      0.001624      0.000000
     57 Si    c      -0.000114     -0.000203     -0.000471      0.000000
     58 Si    c      -0.000399     -0.000364     -0.004230      0.000000
     59 Si    c       0.000186     -0.000051     -0.000580      0.000000
     60 Si    c       0.000270      0.000036      0.000059      0.000000
     61 O2    c       0.000747      0.000504     -0.002446      0.000000
     62 O2    c       0.000226      0.000039      0.000011      0.000000
     63 O2    c      -0.000122     -0.000215      0.000204      0.000000
     64 O2    c       0.000138     -0.000031     -0.000032      0.000000
     65 O2    c      -0.000109     -0.000237      0.000255      0.000000
     66 O2    c       0.000518     -0.000154     -0.000043      0.000000
     67 O2    c       0.000268     -0.000084      0.000115      0.000000
     68 O2    c      -0.000030     -0.000284     -0.000053      0.000000
     69 O2    c      -0.000144      0.000239      0.000163      0.000000
     70 O2    c      -0.000042     -0.000283     -0.000033      0.000000
     71 O2    c      -0.000058      0.000249      0.000060      0.000000
     72 O2    c       0.000274     -0.000248      0.000296      0.000000
     73 O3    c      -0.000004     -0.006403      0.001242      0.000000
     74 O2    c      -0.000017     -0.000243     -0.000099      0.000000
     75 O2    c       0.000295     -0.000067     -0.000034      0.000000
     76 O2    c       0.000191     -0.000050     -0.000193      0.000000
     77 O2    c       0.000189     -0.000069     -0.000313      0.000000
     78 O2    c      -0.000157     -0.000177     -0.000213      0.000000
     79 O2    c       0.000137     -0.000514      0.000742      0.000000
     80 O2    c       0.000105      0.000058      0.000113      0.000000
     81 O2    c      -0.000030     -0.000284     -0.000102      0.000000
     82 O2    c       0.000152     -0.000080      0.000222      0.000000
     83 O2    c       0.000000     -0.000370     -0.000079      0.000000
     84 O2    c       0.000182     -0.000066     -0.000043      0.000000
     85 O2    c       0.000253     -0.000026      0.000077      0.000000
     86 O2    c       0.002494     -0.002494     -0.001004      0.000000
     87 O2    c      -0.000042     -0.000310     -0.000017      0.000000
     88 O2    c      -0.000009     -0.000378     -0.000312      0.000000
     89 O2    c       0.000086     -0.000040     -0.000379      0.000000
     90 O2    c       0.000118      0.000098     -0.000254      0.000000
     91 O2    c       0.000594      0.000062     -0.002896      0.000000
     92 O2    c      -0.000025     -0.000083     -0.000482      0.000000
     93 O2    c       0.000886     -0.000516      0.005633      0.000000
     94 O2    c       0.000018     -0.000325      0.000899      0.000000
     95 O2    c       0.000659     -0.000825     -0.004273      0.000000
     96 O2    c       0.000228     -0.000031     -0.000383      0.000000
     97 O2    c      -0.000448     -0.000031     -0.000309      0.000000
     98 O2    c       0.000278     -0.000036     -0.000012      0.000000
     99 O2    c       0.000003     -0.000297     -0.000096      0.000000
    100 O2    c       0.000284     -0.000266      0.000024      0.000000
    101 O2    c      -0.000076     -0.000240     -0.000143      0.000000
    102 O2    c      -0.000014     -0.000001      0.000089      0.000000
    103 O2    c       0.000214     -0.000040      0.000104      0.000000
    104 O3    c      -0.003256     -0.000306     -0.001832      0.000000
    105 O2    c      -0.000029     -0.000250      0.000029      0.000000
    106 O3    c      -0.000485      0.000098     -0.000169      0.000000
    107 O2    c       0.000243     -0.000022     -0.000214      0.000000
    108 O2    c       0.000227     -0.000171     -0.000077      0.000000
    109 O2    c       0.000170     -0.000055     -0.000177      0.000000
    110 O2    c       0.000147     -0.000211     -0.000061      0.000000
    111 O2    c      -0.000120     -0.000018     -0.000247      0.000000
    112 O2    c      -0.000052     -0.000301     -0.000192      0.000000
    113 O3    c      -0.001384      0.000423     -0.003547      0.000000
    114 O2    c       0.000269     -0.000073     -0.000259      0.000000
    115 O2    c      -0.000043     -0.000328      0.000536      0.000000
    116 O2    c       0.000220     -0.000046      0.000121      0.000000
    117 O2    c       0.000006     -0.000258     -0.000070      0.000000
    118 O2    c       0.000246     -0.000054      0.000220      0.000000
    119 O2    c      -0.000079     -0.000322     -0.000149      0.000000
    120 O2    c       0.000279     -0.000101      0.000103      0.000000
    121 O2    c       0.000238      0.000023     -0.000059      0.000000
    122 O2    c       0.000982     -0.000200     -0.000128      0.000000
    123 O2    c      -0.000052     -0.000286     -0.000041      0.000000
    124 O2    c      -0.000022     -0.000284      0.000261      0.000000
    125 O2    c       0.000124     -0.000142     -0.000333      0.000000
    126 O2    c       0.000206      0.000021     -0.000222      0.000000
    127 O3    c      -0.001611     -0.000257     -0.001950      0.000000
    128 O2    c       0.000273      0.000014     -0.000258      0.000000
    129 O2    c      -0.000012     -0.000299      0.000093      0.000000
    130 O2    c       0.000202     -0.000200     -0.000257      0.000000
    131 O2    c      -0.000051     -0.000184      0.000101      0.000000
    132 O2    c       0.000152     -0.000135     -0.000320      0.000000
    133 O2    c       0.000234     -0.000089      0.000119      0.000000
    134 O3    c      -0.000380     -0.000053      0.000498      0.000000
    135 O2    c       0.000016     -0.000245     -0.000020      0.000000
    136 O3    c      -0.000093     -0.000289     -0.000068      0.000000
    137 O2    c       0.000194     -0.000047      0.000184      0.000000
    138 O2    c       0.000180      0.000053      0.000421      0.000000
    139 O3    c      -0.005626      0.001279     -0.004921      0.000000
    140 O2    c       0.000257     -0.000035     -0.000124      0.000000
    141 O2    c      -0.000040     -0.000246      0.000066      0.000000
    142 O2    c       0.000160     -0.000193     -0.000400      0.000000
    143 O2    c      -0.000152     -0.000238      0.000015      0.000000
    144 O2    c       0.000126      0.000007     -0.000193      0.000000
    145 O2    c       0.000195     -0.000126      0.000239      0.000000
    146 O2    c      -0.000142      0.000010      0.000290      0.000000
    147 O2    c       0.000008     -0.000254     -0.000106      0.000000
    148 O2    c      -0.000135     -0.000292     -0.000179      0.000000
    149 O2    c       0.000224     -0.000056      0.000361      0.000000
    150 O2    c       0.000112     -0.000023      0.000629      0.000000
    151 O2    c      -0.000148     -0.000344      0.000220      0.000000
    152 O2    c       0.000268     -0.000069      0.000008      0.000000
    153 O2    c       0.000034     -0.000163      0.000112      0.000000
    154 O2    c       0.000290      0.000010     -0.000448      0.000000
    155 O2    c      -0.000070     -0.000295      0.000033      0.000000
    156 O2    c       0.000401     -0.000557     -0.001024      0.000000
    157 O2    c       0.000159     -0.000097     -0.000348      0.000000
    158 O2    c       0.000063      0.000224      0.000197      0.000000
    159 O3    c       0.000027     -0.000350      0.000181      0.000000
    160 O3    c       0.000259      0.000054      0.000035      0.000000
    161 O2    c       0.000092     -0.000263      0.000206      0.000000
    162 O2    c       0.000130      0.000038     -0.000239      0.000000
    163 O3    c       0.001903     -0.000856      0.003032      0.000000
    164 O2    c       0.000256     -0.000008      0.000233      0.000000
    165 O2    c      -0.000011     -0.000269      0.000018      0.000000
    166 O2    c       0.000151      0.000012      0.000158      0.000000
    167 O3    c      -0.000003     -0.000334     -0.000075      0.000000
    168 O2    c       0.000105      0.000100      0.000472      0.000000
    169 O2    c       0.000266      0.000024     -0.000193      0.000000
    170 O2    c       0.000537     -0.000094     -0.000752      0.000000
    171 O2    c       0.000013     -0.000333      0.000092      0.000000
    172 O2    c      -0.000037     -0.000280      0.000106      0.000000
    173 O2    c       0.000149     -0.000166     -0.000035      0.000000
    174 O2    c       0.000148      0.000172     -0.000176      0.000000
    175 O2    c       0.000224      0.000029     -0.000036      0.000000
    176 O2    c       0.000017     -0.000217     -0.000226      0.000000
    177 O2    c      -0.000045     -0.000237     -0.001179      0.000000
    178 O2    c      -0.000069     -0.000284     -0.000310      0.000000
    179 O2    c       0.000243     -0.000027     -0.000484      0.000000
    180 O2    c       0.000207     -0.000007     -0.000096      0.000000
    181 F     c       0.000243     -0.000039     -0.000155      0.000000
    182 F     c       0.000061     -0.000230     -0.000125      0.000000
    183 F     c       0.000071     -0.000223      0.000525      0.000000
    184 F     c      -0.000081     -0.000299     -0.000069      0.000000
    185 F     c       0.000560     -0.000170      0.000667      0.000000
    186 F     c       0.000242     -0.000009      0.000059      0.000000
    187 O2    s       0.000030      0.000489     -0.000192      0.000000
    188 O2    s       0.000331      0.000043      0.000098      0.000000
    189 O2    s       0.000079     -0.000342     -0.000011      0.000000
    190 O2    s       0.000203     -0.000040     -0.000249      0.000000
    191 O2    s       0.000376     -0.000536     -0.000928      0.000000
    192 O2    s       0.000495     -0.000083      0.000616      0.000000
    193 O2    s       0.000227     -0.000050     -0.000164      0.000000
    194 O2    s       0.000010     -0.000291     -0.000114      0.000000
    195 O2    s      -0.000038     -0.000288     -0.000184      0.000000
    196 O2    s      -0.000069     -0.000383      0.000065      0.000000
    197 O2    s       0.000299     -0.000069      0.000365      0.000000
    198 O2    s       0.000123     -0.000095     -0.000340      0.000000
    199 O3    s       0.001257      0.003703      0.001181      0.000000
    200 O2    s       0.000007     -0.000314     -0.000092      0.000000
    201 O2    s       0.000160      0.000024     -0.000115      0.000000
    202 O2    s       0.000199     -0.000080      0.000124      0.000000
    203 O2    s       0.000216     -0.000038      0.000102      0.000000
    204 O2    s       0.000024     -0.000333     -0.000122      0.000000
    205 O2    s      -0.000294     -0.000087     -0.000485      0.000000
    206 O2    s       0.000135      0.000175     -0.000028      0.000000
    207 O2    s       0.000038     -0.000325      0.000031      0.000000
    208 O2    s       0.000170     -0.000064     -0.000540      0.000000
    209 O2    s      -0.000047     -0.000341      0.000015      0.000000
    210 O2    s       0.000078      0.000184      0.000083      0.000000
    211 O2    s       0.000249      0.000000     -0.000158      0.000000
    212 O2    s      -0.000120      0.000064      0.001350      0.000000
    213 O2    s      -0.000102     -0.000217     -0.000218      0.000000
    214 O2    s       0.000157     -0.000832     -0.000779      0.000000
    215 O2    s       0.000103     -0.000156      0.000411      0.000000
    216 O2    s       0.000265      0.000034      0.000163      0.000000
    217 O2    s       0.000174      0.000059      0.001019      0.000000
    218 O2    s       0.000293     -0.000139      0.000005      0.000000
    219 O2    s      -0.000283      0.000199     -0.001401      0.000000
    220 O2    s       0.000013     -0.000308     -0.000475      0.000000
    221 O2    s      -0.000351      0.000703      0.002459      0.000000
    222 O2    s       0.000223     -0.000024      0.000076      0.000000
    223 O2    s       0.000443     -0.000305     -0.000683      0.000000
    224 O2    s       0.000350     -0.000174      0.000020      0.000000
    225 O2    s      -0.000000     -0.000183      0.000043      0.000000
    226 O2    s       0.000214     -0.000152     -0.000132      0.000000
    227 O2    s       0.000058     -0.000350     -0.000093      0.000000
    228 O2    s      -0.000086      0.000027     -0.000072      0.000000
    229 O2    s       0.000190     -0.000009     -0.000161      0.000000
    230 O3    s      -0.000022     -0.000002      0.000626      0.000000
    231 O2    s      -0.000044     -0.000256     -0.000216      0.000000
    232 O3    s      -0.000492      0.000162     -0.000407      0.000000
    233 O2    s       0.000278     -0.000183      0.000179      0.000000
    234 O2    s       0.000224      0.000130      0.000028      0.000000
    235 O2    s       0.000221     -0.000085      0.000069      0.000000
    236 O2    s       0.000020     -0.000183      0.000125      0.000000
    237 O2    s      -0.000010     -0.000356     -0.000105      0.000000
    238 O2    s      -0.000074     -0.000238      0.000216      0.000000
    239 O3    s       0.000993     -0.000190      0.000594      0.000000
    240 O2    s       0.000182      0.000000     -0.000112      0.000000
    241 O2    s       0.000142     -0.000750     -0.001016      0.000000
    242 O2    s       0.000204     -0.000010     -0.000243      0.000000
    243 O2    s       0.000025     -0.000241     -0.000035      0.000000
    244 O2    s       0.000228     -0.000018     -0.000525      0.000000
    245 O2    s      -0.000096     -0.000285      0.000129      0.000000
    246 O2    s       0.000180      0.000022     -0.000161      0.000000
    247 O2    s       0.000306     -0.000070     -0.000037      0.000000
    248 O2    s      -0.000158     -0.000528     -0.001009      0.000000
    249 O2    s       0.000001     -0.000335     -0.000096      0.000000
    250 O2    s      -0.000007     -0.000306     -0.000648      0.000000
    251 O2    s       0.000130     -0.000222      0.000405      0.000000
    252 O2    s       0.000201     -0.000026      0.000293      0.000000
    253 O3    s      -0.000202      0.001682      0.002650      0.000000
    254 O2    s       0.000237     -0.000032      0.000211      0.000000
    255 O2    s      -0.000047     -0.000240     -0.000318      0.000000
    256 O2    s       0.000119     -0.000077      0.000280      0.000000
    257 O2    s      -0.000117     -0.000175     -0.000433      0.000000
    258 O2    s       0.000218      0.000033      0.000225      0.000000
    259 O2    s       0.000176     -0.000015     -0.000254      0.000000
    260 O3    s       0.000231     -0.000134     -0.000250      0.000000
    261 O2    s       0.000010     -0.000248     -0.000080      0.000000
    262 O3    s      -0.000096     -0.000302     -0.000002      0.000000
    263 O2    s       0.000150     -0.000112     -0.000439      0.000000
    264 O2    s       0.000039      0.000224     -0.000448      0.000000
    265 O3    s       0.006546     -0.005078      0.003730      0.000000
    266 O2    s       0.000232      0.000035      0.000023      0.000000
    267 O2    s       0.000025     -0.000311     -0.000360      0.000000
    268 O2    s       0.000084     -0.000111      0.000508      0.000000
    269 O2    s       0.000035     -0.000223     -0.000337      0.000000
    270 O2    s       0.000270     -0.000054      0.000197      0.000000
    271 O2    s       0.000199     -0.000021     -0.000312      0.000000
    272 O2    s      -0.000209     -0.000052     -0.000143      0.000000
    273 O2    s       0.000004     -0.000261      0.000013      0.000000
    274 O2    s      -0.000018     -0.000342      0.000176      0.000000
    275 O2    s       0.000200     -0.000023     -0.000674      0.000000
    276 O2    s       0.000067      0.000023     -0.000810      0.000000
    277 O2    s      -0.000041     -0.000269     -0.000077      0.000000
    278 O2    s       0.000174     -0.000021     -0.000018      0.000000
    279 O2    s       0.000093     -0.000209     -0.000060      0.000000
    280 O2    s       0.000204     -0.000071      0.000427      0.000000
    281 O2    s      -0.000049     -0.000279     -0.000149      0.000000
    282 O2    s      -0.000273      0.000456      0.000833      0.000000
    283 O2    s       0.000335      0.000033      0.000149      0.000000
    284 O2    s       0.000395     -0.000229      0.001358      0.000000
    285 O3    s      -0.000133     -0.000273     -0.000244      0.000000
    286 O3    s      -0.000516     -0.000528      0.000159      0.000000
    287 O2    s       0.000054     -0.000194     -0.000317      0.000000
    288 O2    s       0.000291     -0.000086      0.000191      0.000000
    289 O3    s      -0.002877     -0.000027     -0.004776      0.000000
    290 O2    s       0.000212     -0.000021     -0.000355      0.000000
    291 O2    s      -0.000015     -0.000288     -0.000148      0.000000
    292 O2    s       0.000304     -0.000179     -0.000417      0.000000
    293 O3    s      -0.000169     -0.000264     -0.000056      0.000000
    294 O2    s       0.000199     -0.000051     -0.000310      0.000000
    295 O2    s       0.000283     -0.000039      0.000167      0.000000
    296 O2    s      -0.000632      0.000465      0.000608      0.000000
    297 O2    s      -0.000048     -0.000250     -0.000303      0.000000
    298 O2    s       0.000117     -0.000448     -0.000383      0.000000
    299 O2    s       0.000109     -0.000118     -0.000069      0.000000
    300 O2    s       0.000193     -0.000098      0.000192      0.000000
    301 O2    s       0.000210     -0.000050      0.000197      0.000000
    302 O2    s       0.000100     -0.000207      0.000127      0.000000
    303 O2    s       0.000361     -0.000775      0.000630      0.000000
    304 O2    s      -0.000005     -0.000349      0.000225      0.000000
    305 O2    s      -0.000011     -0.000093      0.000016      0.000000
    306 O2    s       0.000284     -0.000042     -0.000124      0.000000
    307 F     s       0.000129     -0.000012      0.000207      0.000000
    308 F     s       0.000063     -0.000226      0.000116      0.000000
    309 F     s       0.000067     -0.000025      0.000452      0.000000
    310 F     s      -0.000046     -0.000344      0.000060      0.000000
    311 F     s      -0.000306     -0.000005     -0.000839      0.000000
    312 F     s       0.000310     -0.000004     -0.000282      0.000000
--------------------------------------------------------------------------------
  Maximum abs         0.006546      0.006403      0.008460      0.000000
--------------------------------------------------------------------------------


  Time to end of optimisation =      27.5619 seconds


  Peak dynamic memory used =      19.13 MB 


  Timing analysis for GULP :

--------------------------------------------------------------------------------
  Task / Subroutine                                          Time (Seconds)
--------------------------------------------------------------------------------
  Calculation of reciprocal space energy and derivatives          0.7144
  Calculation of real space energy and derivatives               23.9582
  Calculation of three-body energy and derivatives                2.4359
  Calculation of matrix inversion                                 0.3938
--------------------------------------------------------------------------------
  Total CPU time                                                 27.5620
--------------------------------------------------------------------------------


  Dump file written as out.res                                                 
  CIF file written as out.cif                                                 


  Job Finished at 03:32.42  8th November   2016                               

