********************************************************************************
*                       GENERAL UTILITY LATTICE PROGRAM                        *
*                                 Julian Gale                                  *
*                      Nanochemistry Research Institute                        *
*                           Department of Chemistry                            *
*                    Curtin University, Western Australia                      *
********************************************************************************
* Version = 4.2.0 * Last modified =  20th January 2014                         *
********************************************************************************
*  optimise     - perform optimisation run                                     *
*  conp         - constant pressure calculation                                *
*  qok          - running with non charge neutral cell is OK                   *
********************************************************************************

  Job Started  at 10:24.01 10th November   2016                               

  Number of CPUs =     1


  Total number of configurations input =   1

********************************************************************************
*  Input for Configuration =   1                                               *
********************************************************************************

  Formula = Ge3Si57O120F6                                               

  Number of irreducible atoms/shells =     312


  Total number atoms/shells =     312

  Dimensionality = 3               :  Bulk   


  Charge on solid   =  -6.000000 =>neutralising background added


  Cartesian lattice vectors (Angstroms) :

       11.947762    0.000000    0.000000
       -6.045138   10.373479    0.000000
       -0.021951   -0.172851   29.478828

  Cell parameters (Angstroms/Degrees):

  a =      11.9478    alpha =  90.2688
  b =      12.0064    beta  =  90.0427
  c =      29.4793    gamma = 120.2315

  Initial cell volume =        3653.601728 Angs**3

  Temperature of configuration =  0.000     K 

  Pressure of configuration =         0.000 GPa 

  Fractional coordinates of asymmetric unit :

--------------------------------------------------------------------------------
   No.  Atomic       x           y          z         Charge      Occupancy
        Label      (Frac)      (Frac)     (Frac)        (e)         (Frac)  
--------------------------------------------------------------------------------
      1 Ge    c    0.699600    0.375700    0.033890     4.00000    1.000000    
      2 Si    c    0.621487 *  0.323925 *  0.365062 *   4.00000    1.000000    
      3 Si    c    0.677073 *  0.303044 *  0.697726 *   4.00000    1.000000    
      4 Si    c    0.295105 *  0.620765 *  0.529727 *   4.00000    1.000000    
      5 Si    c    0.379962 *  0.672974 *  0.864000 *   4.00000    1.000000    
      6 Si    c    0.320790 *  0.703644 *  0.197251 *   4.00000    1.000000    
      7 Si    c    0.376377 *  0.699532 *  0.297653 *   4.00000    1.000000    
      8 Si    c    0.322253 *  0.620537 *  0.963829 *   4.00000    1.000000    
      9 Si    c    0.292847 *  0.673830 *  0.630115 *   4.00000    1.000000    
     10 Si    c    0.626325 *  0.302476 *  0.799459 *   4.00000    1.000000    
     11 Si    c    0.674899 *  0.380648 *  0.465554 *   4.00000    1.000000    
     12 Si    c    0.688104 *  0.318681 *  0.132769 *   4.00000    1.000000    
     13 Si    c    0.530245 *  0.416999 *  0.966354 *   4.00000    1.000000    
     14 Si    c    0.583653 *  0.110531 *  0.301950 *   4.00000    1.000000    
     15 Si    c    0.884723 *  0.471609 *  0.631949 *   4.00000    1.000000    
     16 Si    c    0.467318 *  0.583441 *  0.464330 *   4.00000    1.000000    
     17 Si    c    0.414176 *  0.881096 *  0.799175 *   4.00000    1.000000    
     18 Si    c    0.109932 *  0.532741 *  0.130005 *   4.00000    1.000000    
     19 Si    c    0.416027 *  0.528811 *  0.362528 *   4.00000    1.000000    
     20 Si    c    0.106531 *  0.581932 *  0.026824 *   4.00000    1.000000    
     21 Si    c    0.465359 *  0.881880 *  0.696051 *   4.00000    1.000000    
     22 Si    c    0.586643 *  0.471280 *  0.864637 *   4.00000    1.000000    
     23 Si    c    0.885211 *  0.418415 *  0.530387 *   4.00000    1.000000    
     24 Si    c    0.529910 *  0.112445 *  0.200771 *   4.00000    1.000000    
     25 Si    c    0.303581 *  0.396342 *  0.849003 *   4.00000    1.000000    
     26 Si    c    0.601116 *  0.905248 *  0.183876 *   4.00000    1.000000    
     27 Si    c    0.094457 *  0.698666 *  0.515223 *   4.00000    1.000000    
     28 Si    c    0.697922 *  0.600492 *  0.349318 *   4.00000    1.000000    
     29 Si    c    0.398409 *  0.096197 *  0.680402 *   4.00000    1.000000    
     30 Si    c    0.891959 *  0.294973 *  0.012159 *   4.00000    1.000000    
     31 Si    c    0.395692 *  0.303529 *  0.479181 *   4.00000    1.000000    
     32 Si    c    0.894675 *  0.603132 *  0.143169 *   4.00000    1.000000    
     33 Si    c    0.698204 *  0.096641 *  0.815663 *   4.00000    1.000000    
     34 Si    c    0.600473 *  0.698057 *  0.979842 *   4.00000    1.000000    
     35 Si    c    0.092100 *  0.396378 *  0.645671 *   4.00000    1.000000    
     36 Si    c    0.301029 *  0.900767 *  0.314258 *   4.00000    1.000000    
     37 Si    c    0.250998 *  0.340665 *  0.949328 *   4.00000    1.000000    
     38 Si    c    0.659433 *  0.909428 *  0.284429 *   4.00000    1.000000    
     39 Si    c    0.087245 *  0.750022 *  0.615879 *   4.00000    1.000000    
     40 Si    c    0.746945 *  0.660368 *  0.449951 *   4.00000    1.000000    
     41 Ge    c    0.345273 *  0.088310 *  0.781841 *   4.00000    1.000000    
     42 Si    c    0.904253 *  0.250522 *  0.114811 *   4.00000    1.000000    
     43 Si    c    0.339259 *  0.250969 *  0.378433 *   4.00000    1.000000    
     44 Si    c    0.901106 *  0.660066 *  0.040769 *   4.00000    1.000000    
     45 Ge    c    0.747402 *  0.089224 *  0.713267 *   4.00000    1.000000    
     46 Si    c    0.661782 *  0.749327 *  0.879442 *   4.00000    1.000000    
     47 Si    c    0.085556 *  0.339680 *  0.544831 *   4.00000    1.000000    
     48 Si    c    0.249086 *  0.911303 *  0.213910 *   4.00000    1.000000    
     49 Si    c    0.973462 *  0.121443 *  0.964483 *   4.00000    1.000000    
     50 Si    c    0.877285 *  0.846987 *  0.298225 *   4.00000    1.000000    
     51 Si    c    0.152918 *  0.030328 *  0.629833 *   4.00000    1.000000    
     52 Si    c    0.027446 *  0.878576 *  0.464553 *   4.00000    1.000000    
     53 Si    c    0.121132 *  0.148255 *  0.797827 *   4.00000    1.000000    
     54 Si    c    0.848313 *  0.973841 *  0.131937 *   4.00000    1.000000    
     55 Si    c    0.121252 *  0.969851 *  0.363737 *   4.00000    1.000000    
     56 Si    c    0.849193 *  0.881971 *  0.030599 *   4.00000    1.000000    
     57 Si    c    0.030731 *  0.150133 *  0.696212 *   4.00000    1.000000    
     58 Si    c    0.878394 *  0.028557 *  0.864222 *   4.00000    1.000000    
     59 Si    c    0.147694 *  0.122706 *  0.529642 *   4.00000    1.000000    
     60 Si    c    0.969395 *  0.851745 *  0.196551 *   4.00000    1.000000    
     61 O2    c    0.928440 *  0.005084 *  0.999246 *   0.87073    1.000000    
     62 O2    c    0.001404 *  0.928271 *  0.329958 *   0.87073    1.000000    
     63 O2    c    0.081290 *  0.077356 *  0.663834 *   0.87073    1.000000    
     64 O2    c    0.069661 *  0.001444 *  0.496528 *   0.87073    1.000000    
     65 O2    c    0.994799 *  0.074981 *  0.829175 *   0.87073    1.000000    
     66 O2    c    0.931276 *  0.936281 *  0.164974 *   0.87073    1.000000    
     67 O2    c    0.338826 *  0.575905 *  0.329588 *   0.87073    1.000000    
     68 O2    c    0.414531 *  0.756202 *  0.663708 *   0.87073    1.000000    
     69 O2    c    0.234527 *  0.657814 *  0.995830 *   0.87073    1.000000    
     70 O2    c    0.667282 *  0.426150 *  0.832573 *   0.87073    1.000000    
     71 O2    c    0.579570 *  0.241035 *  0.171023 *   0.87073    1.000000    
     72 O2    c    0.758273 *  0.341401 *  0.498273 *   0.87073    1.000000    
     73 O3    c    0.567521 *  0.335710 *  0.998595 *   1.33043    1.000000    
     74 O2    c    0.760623 *  0.426258 *  0.664773 *   0.87073    1.000000    
     75 O2    c    0.660865 *  0.236666 *  0.334142 *   0.87073    1.000000    
     76 O2    c    0.417954 *  0.659610 *  0.496669 *   0.87073    1.000000    
     77 O2    c    0.234725 *  0.583040 *  0.162969 *   0.87073    1.000000    
     78 O2    c    0.340618 *  0.754425 *  0.830511 *   0.87073    1.000000    
     79 O2    c    0.127528 *  0.213412 *  0.970285 *   0.87073    1.000000    
     80 O2    c    0.785886 *  0.909332 *  0.304395 *   0.87073    1.000000    
     81 O2    c    0.086436 *  0.875860 *  0.635681 *   0.87073    1.000000    
     82 O2    c    0.872867 *  0.787541 *  0.470254 *   0.87073    1.000000    
     83 O3    c    0.204793 *  0.081080 *  0.803606 *   1.33043    1.000000    
     84 O2    c    0.908562 *  0.128175 *  0.135931 *   0.87073    1.000000    
     85 O2    c    0.212900 *  0.123801 *  0.358231 *   0.87073    1.000000    
     86 O2    c    0.918415 *  0.797508 *  0.024696 *   0.87073    1.000000    
     87 O3    c    0.878175 *  0.082635 *  0.690257 *   1.33043    1.000000    
     88 O2    c    0.788139 *  0.874139 *  0.858674 *   0.87073    1.000000    
     89 O2    c    0.083912 *  0.212942 *  0.524431 *   0.87073    1.000000    
     90 O2    c    0.124356 *  0.913790 *  0.193328 *   0.87073    1.000000    
     91 O2    c    0.925790 *  0.858381 *  0.247130 *   0.87073    1.000000    
     92 O2    c    0.133434 *  0.068288 *  0.579776 *   0.87073    1.000000    
     93 O2    c    0.937228 *  0.063736 *  0.914303 *   0.87073    1.000000    
     94 O2    c    0.070825 *  0.140205 *  0.746904 *   0.87073    1.000000    
     95 O2    c    0.859580 *  0.931570 *  0.081787 *   0.87073    1.000000    
     96 O2    c    0.065835 *  0.930235 *  0.413888 *   0.87073    1.000000    
     97 O2    c    0.903718 *  0.203414 *  0.974349 *   0.87073    1.000000    
     98 O2    c    0.796501 *  0.695997 *  0.310812 *   0.87073    1.000000    
     99 O2    c    0.306245 *  0.095874 *  0.639418 *   0.87073    1.000000    
    100 O2    c    0.096825 *  0.796764 *  0.476837 *   0.87073    1.000000    
    101 O2    c    0.208968 *  0.300470 *  0.809769 *   0.87073    1.000000    
    102 O2    c    0.696947 *  0.903526 *  0.145228 *   0.87073    1.000000    
    103 O2    c    0.203206 *  0.899504 *  0.352744 *   0.87073    1.000000    
    104 O2    c    0.696882 *  0.796994 *  0.018590 *   0.87073    1.000000    
    105 O2    c    0.093460 *  0.301907 *  0.684329 *   0.87073    1.000000    
    106 O2    c    0.791588 *  0.095232 *  0.855643 *   0.87073    1.000000    
    107 O2    c    0.299775 *  0.206616 *  0.517758 *   0.87073    1.000000    
    108 O2    c    0.899140 *  0.702001 *  0.181773 *   0.87073    1.000000    
    109 O2    c    0.319553 *  0.643440 *  0.246918 *   0.87073    1.000000    
    110 O2    c    0.353217 *  0.677404 *  0.580060 *   0.87073    1.000000    
    111 O2    c    0.320846 *  0.676465 *  0.913647 *   0.87073    1.000000    
    112 O2    c    0.680157 *  0.358292 *  0.748671 *   0.87073    1.000000    
    113 O3    c    0.615538 *  0.304560 *  0.085860 *   1.33043    1.000000    
    114 O2    c    0.677416 *  0.324380 *  0.415424 *   0.87073    1.000000    
    115 O2    c    0.372837 *  0.331069 *  0.967046 *   0.87073    1.000000    
    116 O2    c    0.670455 *  0.041089 *  0.304011 *   0.87073    1.000000    
    117 O2    c    0.954915 *  0.627813 *  0.634392 *   0.87073    1.000000    
    118 O2    c    0.624192 *  0.671141 *  0.467509 *   0.87073    1.000000    
    119 O3    c    0.325428 *  0.945176 *  0.802738 *   1.33043    1.000000    
    120 O2    c    0.037034 *  0.376913 *  0.131607 *   0.87073    1.000000    
    121 O2    c    0.329027 *  0.372389 *  0.359614 *   0.87073    1.000000    
    122 O2    c    0.035087 *  0.665841 *  0.024953 *   0.87073    1.000000    
    123 O3    c    0.619057 *  0.947002 *  0.693342 *   1.33043    1.000000    
    124 O2    c    0.671925 *  0.627370 *  0.861297 *   0.87073    1.000000    
    125 O2    c    0.953022 *  0.330481 *  0.526684 *   0.87073    1.000000    
    126 O2    c    0.373175 *  0.043268 *  0.196508 *   0.87073    1.000000    
    127 O3    c    0.757188 *  0.285151 *  0.002927 *   1.33043    1.000000    
    128 O2    c    0.696998 *  0.466061 *  0.342019 *   0.87073    1.000000    
    129 O2    c    0.533013 *  0.232026 *  0.675402 *   0.87073    1.000000    
    130 O2    c    0.227416 *  0.696206 *  0.507492 *   0.87073    1.000000    
    131 O2    c    0.305370 *  0.530529 *  0.840892 *   0.87073    1.000000    
    132 O2    c    0.464772 *  0.772714 *  0.175205 *   0.87073    1.000000    
    133 O2    c    0.300472 *  0.766415 *  0.320402 *   0.87073    1.000000    
    134 O2    c    0.465469 *  0.697877 *  0.986943 *   0.87073    1.000000    
    135 O2    c    0.226039 *  0.531356 *  0.652458 *   0.87073    1.000000    
    136 O2    c    0.699496 *  0.231658 *  0.821128 *   0.87073    1.000000    
    137 O2    c    0.530529 *  0.305332 *  0.487222 *   0.87073    1.000000    
    138 O2    c    0.762596 *  0.468098 *  0.151319 *   0.87073    1.000000    
    139 O3    c    0.773948 *  0.546555 *  0.019623 *   1.33043    1.000000    
    140 O2    c    0.464897 *  0.249266 *  0.359279 *   0.87073    1.000000    
    141 O3    c    0.751564 *  0.224081 *  0.692071 *   1.33043    1.000000    
    142 O2    c    0.212772 *  0.464557 *  0.525234 *   0.87073    1.000000    
    143 O2    c    0.536909 *  0.751125 *  0.859469 *   0.87073    1.000000    
    144 O2    c    0.245117 *  0.783914 *  0.193692 *   0.87073    1.000000    
    145 O2    c    0.532933 *  0.782106 *  0.302860 *   0.87073    1.000000    
    146 O2    c    0.247128 *  0.464764 *  0.969029 *   0.87073    1.000000    
    147 O2    c    0.213612 *  0.750595 *  0.635429 *   0.87073    1.000000    
    148 O3    c    0.471903 *  0.225637 *  0.805274 *   1.33043    1.000000    
    149 O2    c    0.748301 *  0.536613 *  0.470299 *   0.87073    1.000000    
    150 O2    c    0.781016 *  0.254819 *  0.134401 *   0.87073    1.000000    
    151 O2    c    0.229738 *  0.322659 *  0.895006 *   0.87073    1.000000    
    152 O2    c    0.676246 *  0.908733 *  0.230054 *   0.87073    1.000000    
    153 O2    c    0.090289 *  0.769122 *  0.561557 *   0.87073    1.000000    
    154 O2    c    0.768292 *  0.676402 *  0.395676 *   0.87073    1.000000    
    155 O3    c    0.317241 *  0.090219 *  0.724316 *   1.33043    1.000000    
    156 O2    c    0.900092 *  0.233362 *  0.060626 *   0.87073    1.000000    
    157 O2    c    0.321132 *  0.232446 *  0.432686 *   0.87073    1.000000    
    158 O2    c    0.896961 *  0.670443 *  0.096075 *   0.87073    1.000000    
    159 O3    c    0.771657 *  0.092411 *  0.770824 *   1.33043    1.000000    
    160 O2    c    0.677782 *  0.768575 *  0.933880 *   0.87073    1.000000    
    161 O2    c    0.086657 *  0.321667 *  0.599048 *   0.87073    1.000000    
    162 O2    c    0.230523 *  0.907854 *  0.268240 *   0.87073    1.000000    
    163 O2    c    0.583337 *  0.558655 *  0.989188 *   0.87073    1.000000    
    164 O2    c    0.441606 *  0.024451 *  0.324408 *   0.87073    1.000000    
    165 O2    c    0.967347 *  0.412100 *  0.654370 *   0.87073    1.000000    
    166 O2    c    0.409699 *  0.442792 *  0.487380 *   0.87073    1.000000    
    167 O2    c    0.556284 *  0.972164 *  0.821731 *   0.87073    1.000000    
    168 O2    c    0.018007 *  0.583998 *  0.149555 *   0.87073    1.000000    
    169 O2    c    0.558347 *  0.586633 *  0.339945 *   0.87073    1.000000    
    170 O2    c    0.016030 *  0.439364 *  0.006157 *   0.87073    1.000000    
    171 O2    c    0.415507 *  0.972242 *  0.673302 *   0.87073    1.000000    
    172 O2    c    0.444103 *  0.410775 *  0.841695 *   0.87073    1.000000    
    173 O2    c    0.968211 *  0.558855 *  0.506818 *   0.87073    1.000000    
    174 O2    c    0.589105 *  0.031816 *  0.176205 *   0.87073    1.000000    
    175 O2    c    0.583029 *  0.163909 *  0.251615 *   0.87073    1.000000    
    176 O2    c    0.831379 *  0.417922 *  0.581059 *   0.87073    1.000000    
    177 O2    c    0.586521 *  0.421040 *  0.915576 *   0.87073    1.000000    
    178 O2    c    0.415031 *  0.833629 *  0.747337 *   0.87073    1.000000    
    179 O2    c    0.154196 *  0.580276 *  0.078560 *   0.87073    1.000000    
    180 O2    c    0.415029 *  0.582564 *  0.413224 *   0.87073    1.000000    
    181 F     c    0.450252 *  0.902598 *  0.248568 *   0.56000    1.000000    
    182 F     c    0.094441 *  0.548658 *  0.580293 *   0.56000    1.000000    
    183 F     c    0.449803 *  0.551215 *  0.914110 *   0.56000    1.000000    
    184 F     c    0.541658 *  0.099172 *  0.749010 *   0.56000    1.000000    
    185 F     c    0.853754 *  0.435670 *  0.070449 *   0.56000    1.000000    
    186 F     c    0.547227 *  0.452572 *  0.413808 *   0.56000    1.000000    
    187 O2    s    0.924474 *  0.004223 *  0.998890 *  -2.87073    1.000000    
    188 O2    s    0.000829 *  0.923762 *  0.330166 *  -2.87073    1.000000    
    189 O2    s    0.083857 *  0.080108 *  0.663545 *  -2.87073    1.000000    
    190 O2    s    0.073662 *  0.001213 *  0.496638 *  -2.87073    1.000000    
    191 O2    s    0.995368 *  0.077720 *  0.829738 *  -2.87073    1.000000    
    192 O2    s    0.926442 *  0.931106 *  0.164847 *  -2.87073    1.000000    
    193 O2    s    0.350534 *  0.583796 *  0.329649 *  -2.87073    1.000000    
    194 O2    s    0.407071 *  0.760685 *  0.663545 *  -2.87073    1.000000    
    195 O2    s    0.229812 *  0.646060 *  0.995877 *  -2.87073    1.000000    
    196 O2    s    0.655011 *  0.418308 *  0.832489 *  -2.87073    1.000000    
    197 O2    s    0.585588 *  0.235413 *  0.170200 *  -2.87073    1.000000    
    198 O2    s    0.762693 *  0.353448 *  0.498171 *  -2.87073    1.000000    
    199 O3    s    0.573797 *  0.347262 *  0.997948 *  -3.33043    1.000000    
    200 O2    s    0.765032 *  0.418615 *  0.664704 *  -2.87073    1.000000    
    201 O2    s    0.648817 *  0.232487 *  0.333970 *  -2.87073    1.000000    
    202 O2    s    0.410470 *  0.647751 *  0.496716 *  -2.87073    1.000000    
    203 O2    s    0.230267 *  0.589854 *  0.162965 *  -2.87073    1.000000    
    204 O2    s    0.352461 *  0.759320 *  0.830691 *  -2.87073    1.000000    
    205 O2    s    0.123602 *  0.216615 *  0.967512 *  -2.87073    1.000000    
    206 O2    s    0.782424 *  0.902704 *  0.301689 *  -2.87073    1.000000    
    207 O2    s    0.093480 *  0.878988 *  0.633038 *  -2.87073    1.000000    
    208 O2    s    0.876263 *  0.784036 *  0.467562 *  -2.87073    1.000000    
    209 O3    s    0.206299 *  0.088714 *  0.801414 *  -3.33043    1.000000    
    210 O2    s    0.901798 *  0.124664 *  0.133357 *  -2.87073    1.000000    
    211 O2    s    0.216232 *  0.120596 *  0.360880 *  -2.87073    1.000000    
    212 O2    s    0.909190 *  0.792748 *  0.026930 *  -2.87073    1.000000    
    213 O3    s    0.883778 *  0.090099 *  0.692618 *  -3.33043    1.000000    
    214 O2    s    0.784597 *  0.877540 *  0.861382 *  -2.87073    1.000000    
    215 O2    s    0.090805 *  0.216422 *  0.527052 *  -2.87073    1.000000    
    216 O2    s    0.120722 *  0.906902 *  0.195780 *  -2.87073    1.000000    
    217 O2    s    0.925249 *  0.856341 *  0.247166 *  -2.87073    1.000000    
    218 O2    s    0.137236 *  0.070216 *  0.579685 *  -2.87073    1.000000    
    219 O2    s    0.934692 *  0.066290 *  0.914325 *  -2.87073    1.000000    
    220 O2    s    0.071818 *  0.142217 *  0.746769 *  -2.87073    1.000000    
    221 O2    s    0.857143 *  0.930989 *  0.081903 *  -2.87073    1.000000    
    222 O2    s    0.067801 *  0.928914 *  0.413902 *  -2.87073    1.000000    
    223 O2    s    0.910149 *  0.203999 *  0.977221 *  -2.87073    1.000000    
    224 O2    s    0.795057 *  0.702329 *  0.313393 *  -2.87073    1.000000    
    225 O2    s    0.299199 *  0.088949 *  0.642452 *  -2.87073    1.000000    
    226 O2    s    0.089228 *  0.795461 *  0.479432 *  -2.87073    1.000000    
    227 O2    s    0.209777 *  0.294750 *  0.812628 *  -2.87073    1.000000    
    228 O2    s    0.703156 *  0.911169 *  0.147800 *  -2.87073    1.000000    
    229 O2    s    0.204571 *  0.907046 *  0.349957 *  -2.87073    1.000000    
    230 O2    s    0.703269 *  0.796014 *  0.015941 *  -2.87073    1.000000    
    231 O2    s    0.086896 *  0.296220 *  0.681507 *  -2.87073    1.000000    
    232 O2    s    0.791167 *  0.088427 *  0.852520 *  -2.87073    1.000000    
    233 O2    s    0.293457 *  0.207685 *  0.515044 *  -2.87073    1.000000    
    234 O2    s    0.906158 *  0.707752 *  0.179350 *  -2.87073    1.000000    
    235 O2    s    0.325344 *  0.655143 *  0.246950 *  -2.87073    1.000000    
    236 O2    s    0.341166 *  0.671249 *  0.579975 *  -2.87073    1.000000    
    237 O2    s    0.326942 *  0.670382 *  0.913773 *  -2.87073    1.000000    
    238 O2    s    0.674442 *  0.347066 *  0.748564 *  -2.87073    1.000000    
    239 O3    s    0.628537 *  0.310753 *  0.087120 *  -3.33043    1.000000    
    240 O2    s    0.671369 *  0.330157 *  0.415363 *  -2.87073    1.000000    
    241 O2    s    0.375462 *  0.340974 *  0.964990 *  -2.87073    1.000000    
    242 O2    s    0.660374 *  0.034472 *  0.301747 *  -2.87073    1.000000    
    243 O2    s    0.961616 *  0.624558 *  0.632176 *  -2.87073    1.000000    
    244 O2    s    0.620870 *  0.660960 *  0.465322 *  -2.87073    1.000000    
    245 O3    s    0.335967 *  0.950290 *  0.800678 *  -3.33043    1.000000    
    246 O2    s    0.030907 *  0.380107 *  0.129705 *  -2.87073    1.000000    
    247 O2    s    0.339007 *  0.375787 *  0.361881 *  -2.87073    1.000000    
    248 O2    s    0.029234 *  0.656358 *  0.026731 *  -2.87073    1.000000    
    249 O3    s    0.614117 *  0.952147 *  0.695261 *  -3.33043    1.000000    
    250 O2    s    0.662031 *  0.624167 *  0.863574 *  -2.87073    1.000000    
    251 O2    s    0.959927 *  0.340502 *  0.528975 *  -2.87073    1.000000    
    252 O2    s    0.376093 *  0.036315 *  0.198811 *  -2.87073    1.000000    
    253 O3    s    0.767641 *  0.292195 *  0.006026 *  -3.33043    1.000000    
    254 O2    s    0.689352 *  0.465555 *  0.345170 *  -2.87073    1.000000    
    255 O2    s    0.533831 *  0.225176 *  0.678276 *  -2.87073    1.000000    
    256 O2    s    0.220347 *  0.688709 *  0.510617 *  -2.87073    1.000000    
    257 O2    s    0.312926 *  0.531134 *  0.844184 *  -2.87073    1.000000    
    258 O2    s    0.464039 *  0.779343 *  0.178419 *  -2.87073    1.000000    
    259 O2    s    0.308293 *  0.773627 *  0.317386 *  -2.87073    1.000000    
    260 O2    s    0.464700 *  0.689982 *  0.983807 *  -2.87073    1.000000    
    261 O2    s    0.218698 *  0.531774 *  0.649366 *  -2.87073    1.000000    
    262 O2    s    0.691855 *  0.224735 *  0.818296 *  -2.87073    1.000000    
    263 O2    s    0.531180 *  0.312953 *  0.484089 *  -2.87073    1.000000    
    264 O2    s    0.769371 *  0.467886 *  0.148594 *  -2.87073    1.000000    
    265 O3    s    0.783386 *  0.548369 *  0.022771 *  -3.33043    1.000000    
    266 O2    s    0.467624 *  0.257299 *  0.361910 *  -2.87073    1.000000    
    267 O3    s    0.743650 *  0.220418 *  0.694416 *  -3.33043    1.000000    
    268 O2    s    0.207513 *  0.467338 *  0.527787 *  -2.87073    1.000000    
    269 O2    s    0.534100 *  0.742744 *  0.862073 *  -2.87073    1.000000    
    270 O2    s    0.253477 *  0.789154 *  0.196202 *  -2.87073    1.000000    
    271 O2    s    0.530268 *  0.787376 *  0.300335 *  -2.87073    1.000000    
    272 O2    s    0.255392 *  0.467818 *  0.966425 *  -2.87073    1.000000    
    273 O2    s    0.208009 *  0.742520 *  0.632789 *  -2.87073    1.000000    
    274 O3    s    0.476664 *  0.221646 *  0.802743 *  -3.33043    1.000000    
    275 O2    s    0.740382 *  0.533751 *  0.467622 *  -2.87073    1.000000    
    276 O2    s    0.785329 *  0.260817 *  0.132078 *  -2.87073    1.000000    
    277 O2    s    0.239615 *  0.332214 *  0.895937 *  -2.87073    1.000000    
    278 O2    s    0.666557 *  0.908431 *  0.230969 *  -2.87073    1.000000    
    279 O2    s    0.090397 *  0.759676 *  0.562409 *  -2.87073    1.000000    
    280 O2    s    0.758644 *  0.666731 *  0.396529 *  -2.87073    1.000000    
    281 O3    s    0.327614 *  0.090655 *  0.724533 *  -3.33043    1.000000    
    282 O2    s    0.899685 *  0.241263 *  0.061730 *  -2.87073    1.000000    
    283 O2    s    0.330855 *  0.241861 *  0.431797 *  -2.87073    1.000000    
    284 O2    s    0.897007 *  0.661913 *  0.095804 *  -2.87073    1.000000    
    285 O3    s    0.762365 *  0.092554 *  0.770478 *  -3.33043    1.000000    
    286 O2    s    0.668086 *  0.759256 *  0.932916 *  -2.87073    1.000000    
    287 O2    s    0.087097 *  0.331352 *  0.598142 *  -2.87073    1.000000    
    288 O2    s    0.239815 *  0.907480 *  0.267246 *  -2.87073    1.000000    
    289 O2    s    0.579516 *  0.559467 *  0.985820 *  -2.87073    1.000000    
    290 O2    s    0.441341 *  0.019951 *  0.320959 *  -2.87073    1.000000    
    291 O2    s    0.972264 *  0.416759 *  0.651103 *  -2.87073    1.000000    
    292 O2    s    0.414393 *  0.442481 *  0.484064 *  -2.87073    1.000000    
    293 O2    s    0.556991 *  0.976444 *  0.818725 *  -2.87073    1.000000    
    294 O2    s    0.014573 *  0.580419 *  0.146773 *  -2.87073    1.000000    
    295 O2    s    0.558461 *  0.581898 *  0.343314 *  -2.87073    1.000000    
    296 O2    s    0.012863 *  0.439945 *  0.009012 *  -2.87073    1.000000    
    297 O2    s    0.419028 *  0.976356 *  0.676437 *  -2.87073    1.000000    
    298 O2    s    0.443889 *  0.415709 *  0.844878 *  -2.87073    1.000000    
    299 O2    s    0.973357 *  0.559328 *  0.510171 *  -2.87073    1.000000    
    300 O2    s    0.584124 *  0.026380 *  0.179557 *  -2.87073    1.000000    
    301 O2    s    0.577440 *  0.152769 *  0.251565 *  -2.87073    1.000000    
    302 O2    s    0.842488 *  0.423524 *  0.581061 *  -2.87073    1.000000    
    303 O2    s    0.580893 *  0.425959 *  0.915355 *  -2.87073    1.000000    
    304 O2    s    0.420163 *  0.843502 *  0.747305 *  -2.87073    1.000000    
    305 O2    s    0.144668 *  0.575377 *  0.078796 *  -2.87073    1.000000    
    306 O2    s    0.420497 *  0.577095 *  0.413250 *  -2.87073    1.000000    
    307 F     s    0.449971 *  0.902155 *  0.248495 *  -1.56000    1.000000    
    308 F     s    0.095017 *  0.548970 *  0.580283 *  -1.56000    1.000000    
    309 F     s    0.449239 *  0.551879 *  0.914050 *  -1.56000    1.000000    
    310 F     s    0.540722 *  0.099703 *  0.749162 *  -1.56000    1.000000    
    311 F     s    0.844440 *  0.432028 *  0.068428 *  -1.56000    1.000000    
    312 F     s    0.547493 *  0.452388 *  0.413756 *  -1.56000    1.000000    
--------------------------------------------------------------------------------



********************************************************************************
*  General input information                                                   *
********************************************************************************

  Species output for all configurations : 

--------------------------------------------------------------------------------
  Species    Type    Atomic    Atomic    Charge       Radii (Angs)     Library
                     Number     Mass       (e)     Cova   Ionic  VDW   Symbol
--------------------------------------------------------------------------------
    Si       Core       14      28.09   4.000000   1.200  0.000  2.100          
    O1       Core        8      16.00   1.733957   0.730  0.000  1.360          
    O1       Shell       8       0.00  -3.733957   0.730  0.000  1.360          
    O2       Core        8      16.00   0.870733   0.730  0.000  1.360          
    O2       Shell       8       0.00  -2.870733   0.730  0.000  1.360          
    O3       Core        8      16.00   1.330431   0.730  0.000  1.360          
    O3       Shell       8       0.00  -3.330431   0.730  0.000  1.360          
    F        Core        9      19.00   0.560000   0.710  0.000  1.300          
    F        Shell       9       0.00  -1.560000   0.710  0.000  1.300          
    Ge       Core       32      72.61   4.000000   1.170  0.000  1.750          
--------------------------------------------------------------------------------


  Lattice summation method               =    Ewald          (3-D)
                                         =    Parry          (2-D)
                                         =    Saunders et al (1-D)
  Accuracy factor for lattice sums       =   12.000


  Time limit = Infinity

  Maximum range for interatomic potentials =        16.000000 Angstroms

  Taper potentials to zero over   1.0000 Angstroms using polynomial

  General interatomic potentials :

--------------------------------------------------------------------------------
Atom  Types   Potential         A         B         C         D     Cutoffs(Ang)
  1     2                                                            Min    Max 
--------------------------------------------------------------------------------
Si   c O1   s Buckingham    0.132E+04 0.318      10.1      0.00     0.000 16.000
Si   c O2   s Buckingham    0.132E+04 0.318      10.1      0.00     0.000 16.000
Si   c O3   s Buckingham    0.132E+04 0.318      10.1      0.00     0.000 16.000
Ge   c O1   s Buckingham    0.150E+04 0.326      16.8      0.00     0.000 16.000
Ge   c O2   s Buckingham    0.150E+04 0.326      16.8      0.00     0.000 16.000
Ge   c O3   s Buckingham    0.150E+04 0.326      16.8      0.00     0.000 16.000
O1   s O1   s Buckingham    0.228E+05 0.149      10.9      0.00     0.000 16.000
O1   s O2   s Buckingham    0.228E+05 0.149      10.9      0.00     0.000 16.000
O1   s O3   s Buckingham    0.228E+05 0.149      10.9      0.00     0.000 16.000
O2   s O2   s Buckingham    0.228E+05 0.149      10.9      0.00     0.000 16.000
O2   s O3   s Buckingham    0.228E+05 0.149      10.9      0.00     0.000 16.000
O3   s O3   s Buckingham    0.228E+05 0.149      10.9      0.00     0.000 16.000
Si   c F    s Buckingham     977.     0.282      0.00      0.00     0.000 16.000
Ge   c F    s Buckingham     681.     0.320      0.00      0.00     0.000 16.000
F    s F    s Buckingham     540.     0.262      0.00      0.00     0.000 16.000
O1   s F    s Buckingham    0.168E+04 0.268      0.00      0.00     0.000 16.000
O2   s F    s Buckingham    0.168E+04 0.268      0.00      0.00     0.000 16.000
O3   s F    s Buckingham    0.168E+04 0.268      0.00      0.00     0.000 16.000
O2   c O2   s Spring (c-s)   76.0      0.00      0.00      0.00     0.000  0.800
O3   c O3   s Spring (c-s)   128.      0.00      0.00      0.00     0.000  0.800
O1   c O1   s Spring (c-s)   180.      0.00      0.00      0.00     0.000  0.800
F    c F    s Spring (c-s)   33.5      0.00      0.00      0.00     0.000  0.800
--------------------------------------------------------------------------------

  General Three-body potentials :

  Harmonic form:

--------------------------------------------------------------------------------
Atom    Atom    Atom           Force Constants            Theta     Cutoffs  
  1       2       3     (eVrad**-2/eVrad**-3/eVrad**-4)   (deg)  1-2  1-3  2-3
--------------------------------------------------------------------------------
Si    c O1    s O1    s  1.261        0.0000    0.0000   109.470 0.00 0.00 0.00
                                                                 1.90 1.90 3.50
Si    c O1    s O2    s  1.261        0.0000    0.0000   109.470 0.00 0.00 0.00
                                                                 1.90 1.90 3.50
Si    c O2    s O2    s  1.261        0.0000    0.0000   109.470 0.00 0.00 0.00
                                                                 1.90 1.90 3.50
--------------------------------------------------------------------------------

********************************************************************************
*  Output for configuration   1                                                *
********************************************************************************


  Components of energy : 

--------------------------------------------------------------------------------
  Interatomic potentials     =        2062.68396450 eV
  Three-body potentials      =           0.43376925 eV
  Monopole - monopole (real) =       -6610.70849484 eV
  Monopole - monopole (recip)=       -3172.27646247 eV
  Monopole - monopole (total)=       -9782.98495731 eV
  Neutralising energy        =          -6.46191950 eV
--------------------------------------------------------------------------------
  Total lattice energy       =       -7726.32914306 eV
--------------------------------------------------------------------------------
  Total lattice energy       =         -745472.6545 kJ/(mole unit cells)
--------------------------------------------------------------------------------


  Number of variables =      939

  Maximum number of calculations  =          5000
  Maximum Hessian update interval =            10
  Maximum step size               =   0.100000000
  Maximum parameter tolerance     =   0.000010000
  Maximum function  tolerance     =   0.000010000
  Maximum gradient  tolerance     =   0.001000000
  Maximum gradient  component     =   0.010000000

  Symmetry not applied to optimisation

  Cell parameters to be optimised using strains

  Newton-Raphson optimiser to be used

  BFGS hessian update to be used

  Dumpfile to be written after every cycle

  Start of bulk optimisation :

  Cycle:      0 Energy:     -7726.329143  Gnorm:      0.005293  CPU:    2.013
  ** Hessian calculated **
  Cycle:      1 Energy:     -7726.356169  Gnorm:      0.004764  CPU:    6.564
  Cycle:      2 Energy:     -7726.395530  Gnorm:      0.003840  CPU:   11.415
  Cycle:      3 Energy:     -7726.433855  Gnorm:      0.002888  CPU:   15.590
  Cycle:      4 Energy:     -7726.461644  Gnorm:      0.002254  CPU:   19.764
  Cycle:      5 Energy:     -7726.468284  Gnorm:      0.001473  CPU:   23.938
  Cycle:      6 Energy:     -7726.469931  Gnorm:      0.000819  CPU:   28.112
  Cycle:      7 Energy:     -7726.470348  Gnorm:      0.000440  CPU:   32.284
  Cycle:      8 Energy:     -7726.470454  Gnorm:      0.000238  CPU:   36.458
  Cycle:      9 Energy:     -7726.470472  Gnorm:      0.000166  CPU:   39.277
  Cycle:     10 Energy:     -7726.470480  Gnorm:      0.000118  CPU:   42.095
  ** Hessian calculated **
  Cycle:     11 Energy:     -7726.470481  Gnorm:      0.000066  CPU:   46.599
  Cycle:     12 Energy:     -7726.470481  Gnorm:      0.000049  CPU:   49.418
  Cycle:     13 Energy:     -7726.470481  Gnorm:      0.000038  CPU:   52.236


  **** Optimisation achieved ****


  Final energy =   -7726.47048066 eV
  Final Gnorm  =       0.00003159

  Components of energy : 

--------------------------------------------------------------------------------
  Interatomic potentials     =        2063.08521937 eV
  Three-body potentials      =           0.44332629 eV
  Monopole - monopole (real) =       -6612.50611990 eV
  Monopole - monopole (recip)=       -3171.03351552 eV
  Monopole - monopole (total)=       -9783.53963542 eV
  Neutralising energy        =          -6.45939090 eV
--------------------------------------------------------------------------------
  Total lattice energy       =       -7726.47048066 eV
--------------------------------------------------------------------------------
  Total lattice energy       =         -745486.2915 kJ/(mole unit cells)
--------------------------------------------------------------------------------

  Final fractional coordinates of atoms :

--------------------------------------------------------------------------------
   No.  Atomic        x           y          z          Radius
        Label       (Frac)      (Frac)     (Frac)       (Angs) 
--------------------------------------------------------------------------------
     1  Ge    c     0.699600    0.375700    0.033890    0.000000
     2  Si    c     0.592396    0.306892    0.363914    0.000000
     3  Si    c     0.653839    0.287606    0.696568    0.000000
     4  Si    c     0.264613    0.603937    0.527884    0.000000
     5  Si    c     0.363386    0.659363    0.862711    0.000000
     6  Si    c     0.297440    0.691140    0.196199    0.000000
     7  Si    c     0.348638    0.683300    0.296615    0.000000
     8  Si    c     0.307495    0.608605    0.962809    0.000000
     9  Si    c     0.267722    0.660022    0.628393    0.000000
    10  Si    c     0.605932    0.287292    0.798743    0.000000
    11  Si    c     0.645401    0.365056    0.464455    0.000000
    12  Si    c     0.666766    0.305930    0.132004    0.000000
    13  Si    c     0.521412    0.408669    0.966541    0.000000
    14  Si    c     0.555603    0.093760    0.301055    0.000000
    15  Si    c     0.859564    0.458568    0.631059    0.000000
    16  Si    c     0.436350    0.565939    0.462376    0.000000
    17  Si    c     0.394410    0.865650    0.797567    0.000000
    18  Si    c     0.088839    0.519523    0.129409    0.000000
    19  Si    c     0.385891    0.509982    0.360633    0.000000
    20  Si    c     0.092767    0.572822    0.026274    0.000000
    21  Si    c     0.443546    0.867725    0.694055    0.000000
    22  Si    c     0.572170    0.460171    0.863987    0.000000
    23  Si    c     0.855999    0.403225    0.529492    0.000000
    24  Si    c     0.504815    0.098166    0.199554    0.000000
    25  Si    c     0.289032    0.383695    0.848050    0.000000
    26  Si    c     0.577119    0.891818    0.182639    0.000000
    27  Si    c     0.064466    0.682453    0.514019    0.000000
    28  Si    c     0.667800    0.582310    0.347488    0.000000
    29  Si    c     0.375384    0.081055    0.678767    0.000000
    30  Si    c     0.880708    0.285165    0.010669    0.000000
    31  Si    c     0.365498    0.286877    0.477404    0.000000
    32  Si    c     0.873810    0.590362    0.142668    0.000000
    33  Si    c     0.677709    0.081189    0.814549    0.000000
    34  Si    c     0.586462    0.688654    0.978364    0.000000
    35  Si    c     0.066903    0.383096    0.644462    0.000000
    36  Si    c     0.273017    0.884131    0.313253    0.000000
    37  Si    c     0.240759    0.330432    0.948754    0.000000
    38  Si    c     0.631517    0.892930    0.283540    0.000000
    39  Si    c     0.061355    0.736125    0.614722    0.000000
    40  Si    c     0.716587    0.644052    0.448158    0.000000
    41  Ge    c     0.323265    0.072283    0.780937    0.000000
    42  Si    c     0.884162    0.238339    0.113965    0.000000
    43  Si    c     0.309696    0.233165    0.376624    0.000000
    44  Si    c     0.891934    0.657503    0.040327    0.000000
    45  Ge    c     0.722951    0.074988    0.712223    0.000000
    46  Si    c     0.645693    0.737354    0.877754    0.000000
    47  Si    c     0.055991    0.323634    0.543577    0.000000
    48  Si    c     0.224271    0.897080    0.212652    0.000000
    49  Si    c     0.962210    0.112202    0.962810    0.000000
    50  Si    c     0.848307    0.829064    0.297138    0.000000
    51  Si    c     0.128766    0.016700    0.628802    0.000000
    52  Si    c     0.996919    0.862387    0.463487    0.000000
    53  Si    c     0.102867    0.136892    0.796498    0.000000
    54  Si    c     0.825813    0.961873    0.131144    0.000000
    55  Si    c     0.092417    0.952443    0.362638    0.000000
    56  Si    c     0.834416    0.875013    0.029643    0.000000
    57  Si    c     0.008069    0.138108    0.695322    0.000000
    58  Si    c     0.860617    0.016538    0.863097    0.000000
    59  Si    c     0.117926    0.106380    0.528466    0.000000
    60  Si    c     0.944543    0.837411    0.195792    0.000000
    61  O2    c     0.915019    0.997525    0.998339    0.000000
    62  O2    c     0.971595    0.908665    0.329236    0.000000
    63  O2    c     0.059157    0.065455    0.662968    0.000000
    64  O2    c     0.038054    0.984207    0.495894    0.000000
    65  O2    c     0.976429    0.065479    0.827733    0.000000
    66  O2    c     0.906850    0.921988    0.164106    0.000000
    67  O2    c     0.309404    0.558277    0.327834    0.000000
    68  O2    c     0.390649    0.742349    0.661466    0.000000
    69  O2    c     0.220591    0.646362    0.995168    0.000000
    70  O2    c     0.649403    0.411293    0.831687    0.000000
    71  O2    c     0.556532    0.227099    0.169698    0.000000
    72  O2    c     0.728436    0.326499    0.497647    0.000000
    73  O3    c     0.564187    0.333021    0.998533    0.000000
    74  O2    c     0.735868    0.412358    0.664157    0.000000
    75  O2    c     0.632216    0.219273    0.333387    0.000000
    76  O2    c     0.386575    0.642126    0.494401    0.000000
    77  O2    c     0.212947    0.569586    0.162402    0.000000
    78  O2    c     0.322199    0.739155    0.828999    0.000000
    79  O2    c     0.116314    0.201941    0.968884    0.000000
    80  O2    c     0.757209    0.891620    0.303616    0.000000
    81  O2    c     0.062096    0.862449    0.634693    0.000000
    82  O2    c     0.842033    0.771656    0.468269    0.000000
    83  O3    c     0.183510    0.066207    0.802388    0.000000
    84  O2    c     0.886537    0.115774    0.135639    0.000000
    85  O2    c     0.183873    0.105880    0.356408    0.000000
    86  O2    c     0.908342    0.794386    0.025014    0.000000
    87  O3    c     0.855857    0.069402    0.689897    0.000000
    88  O2    c     0.772402    0.862359    0.857280    0.000000
    89  O2    c     0.053434    0.196105    0.523596    0.000000
    90  O2    c     0.099438    0.900048    0.192413    0.000000
    91  O2    c     0.898768    0.842900    0.246163    0.000000
    92  O2    c     0.107775    0.053788    0.578739    0.000000
    93  O2    c     0.922335    0.052964    0.912911    0.000000
    94  O2    c     0.053597    0.131569    0.745650    0.000000
    95  O2    c     0.839595    0.923140    0.080703    0.000000
    96  O2    c     0.038044    0.915458    0.413041    0.000000
    97  O2    c     0.894701    0.196354    0.972621    0.000000
    98  O2    c     0.766573    0.677800    0.308957    0.000000
    99  O2    c     0.282236    0.081169    0.638208    0.000000
   100  O2    c     0.065580    0.780070    0.475717    0.000000
   101  O2    c     0.194235    0.287819    0.808949    0.000000
   102  O2    c     0.674151    0.891674    0.144053    0.000000
   103  O2    c     0.174610    0.882253    0.351687    0.000000
   104  O2    c     0.683478    0.788926    0.016661    0.000000
   105  O2    c     0.069584    0.289366    0.683081    0.000000
   106  O2    c     0.770900    0.080183    0.854859    0.000000
   107  O2    c     0.269323    0.189934    0.515841    0.000000
   108  O2    c     0.875723    0.687967    0.181179    0.000000
   109  O2    c     0.294306    0.629279    0.245628    0.000000
   110  O2    c     0.325025    0.661770    0.577892    0.000000
   111  O2    c     0.304106    0.662975    0.912440    0.000000
   112  O2    c     0.656883    0.341784    0.747676    0.000000
   113  O3    c     0.603681    0.298760    0.084137    0.000000
   114  O2    c     0.648552    0.308634    0.414384    0.000000
   115  O2    c     0.363269    0.322768    0.966948    0.000000
   116  O2    c     0.642559    0.024493    0.302985    0.000000
   117  O2    c     0.929215    0.614485    0.633507    0.000000
   118  O2    c     0.593132    0.654012    0.465446    0.000000
   119  O3    c     0.305354    0.929607    0.801068    0.000000
   120  O2    c     0.015903    0.364158    0.131288    0.000000
   121  O2    c     0.298892    0.353909    0.357471    0.000000
   122  O2    c     0.025248    0.660756    0.025155    0.000000
   123  O3    c     0.597224    0.932903    0.690881    0.000000
   124  O2    c     0.656923    0.615908    0.859722    0.000000
   125  O2    c     0.923313    0.314809    0.525658    0.000000
   126  O2    c     0.348144    0.028998    0.195036    0.000000
   127  O3    c     0.747733    0.278849    0.001999    0.000000
   128  O2    c     0.667605    0.448317    0.340477    0.000000
   129  O2    c     0.509912    0.216533    0.674120    0.000000
   130  O2    c     0.196890    0.679345    0.505625    0.000000
   131  O2    c     0.289471    0.516992    0.839808    0.000000
   132  O2    c     0.440979    0.760007    0.173720    0.000000
   133  O2    c     0.272045    0.749712    0.319191    0.000000
   134  O2    c     0.450988    0.687630    0.985565    0.000000
   135  O2    c     0.201142    0.517746    0.650640    0.000000
   136  O2    c     0.678879    0.215918    0.820035    0.000000
   137  O2    c     0.500641    0.289482    0.485767    0.000000
   138  O2    c     0.742159    0.455385    0.150621    0.000000
   139  O3    c     0.767893    0.543391    0.017984    0.000000
   140  O2    c     0.435865    0.231648    0.357832    0.000000
   141  O3    c     0.730456    0.210804    0.690291    0.000000
   142  O2    c     0.182582    0.447930    0.523503    0.000000
   143  O2    c     0.520379    0.738358    0.857665    0.000000
   144  O2    c     0.220410    0.770204    0.192117    0.000000
   145  O2    c     0.504967    0.766296    0.302142    0.000000
   146  O2    c     0.234114    0.453165    0.968356    0.000000
   147  O2    c     0.187936    0.736116    0.633795    0.000000
   148  O3    c     0.451579    0.207690    0.804216    0.000000
   149  O2    c     0.717868    0.520698    0.468795    0.000000
   150  O2    c     0.760148    0.242330    0.132847    0.000000
   151  O2    c     0.217973    0.311052    0.894490    0.000000
   152  O2    c     0.649815    0.893070    0.229160    0.000000
   153  O2    c     0.062175    0.754021    0.560345    0.000000
   154  O2    c     0.737597    0.658796    0.393812    0.000000
   155  O3    c     0.296690    0.074850    0.723431    0.000000
   156  O2    c     0.884726    0.223170    0.059665    0.000000
   157  O2    c     0.291284    0.215488    0.430919    0.000000
   158  O2    c     0.878462    0.659426    0.095584    0.000000
   159  O3    c     0.750876    0.076783    0.769664    0.000000
   160  O2    c     0.662507    0.758245    0.932130    0.000000
   161  O2    c     0.059038    0.307389    0.597837    0.000000
   162  O2    c     0.204321    0.892687    0.266977    0.000000
   163  O2    c     0.571339    0.550938    0.988342    0.000000
   164  O2    c     0.413665    0.007036    0.323468    0.000000
   165  O2    c     0.943302    0.400372    0.653484    0.000000
   166  O2    c     0.379094    0.425729    0.485562    0.000000
   167  O2    c     0.535740    0.956971    0.820468    0.000000
   168  O2    c     0.997010    0.571085    0.148877    0.000000
   169  O2    c     0.527973    0.567608    0.337807    0.000000
   170  O2    c     0.001680    0.431355    0.005230    0.000000
   171  O2    c     0.392287    0.957260    0.671502    0.000000
   172  O2    c     0.429854    0.398915    0.840810    0.000000
   173  O2    c     0.937863    0.543235    0.505692    0.000000
   174  O2    c     0.565051    0.018329    0.175228    0.000000
   175  O2    c     0.555493    0.147867    0.250717    0.000000
   176  O2    c     0.804119    0.403970    0.580402    0.000000
   177  O2    c     0.574750    0.412913    0.915042    0.000000
   178  O2    c     0.394824    0.818880    0.745564    0.000000
   179  O2    c     0.136349    0.567514    0.078204    0.000000
   180  O2    c     0.383947    0.563784    0.411194    0.000000
   181  F     c     0.423176    0.886746    0.247081    0.000000
   182  F     c     0.066197    0.533982    0.578473    0.000000
   183  F     c     0.435623    0.541336    0.912818    0.000000
   184  F     c     0.526328    0.082267    0.746280    0.000000
   185  F     c     0.844491    0.430027    0.070336    0.000000
   186  F     c     0.516574    0.434958    0.411802    0.000000
   187  O2    s     0.911090    0.996480    0.997899    0.000000
   188  O2    s     0.971244    0.904588    0.329363    0.000000
   189  O2    s     0.061525    0.067885    0.662608    0.000000
   190  O2    s     0.042340    0.984182    0.495893    0.000000
   191  O2    s     0.977137    0.067783    0.828341    0.000000
   192  O2    s     0.902095    0.917046    0.163980    0.000000
   193  O2    s     0.321245    0.566264    0.327941    0.000000
   194  O2    s     0.383271    0.746746    0.661372    0.000000
   195  O2    s     0.215712    0.634787    0.995229    0.000000
   196  O2    s     0.637215    0.403701    0.831606    0.000000
   197  O2    s     0.562546    0.221703    0.168917    0.000000
   198  O2    s     0.732917    0.338421    0.497457    0.000000
   199  O3    s     0.569160    0.344358    0.997561    0.000000
   200  O2    s     0.740416    0.404673    0.663994    0.000000
   201  O2    s     0.620192    0.215159    0.333145    0.000000
   202  O2    s     0.379277    0.630296    0.494506    0.000000
   203  O2    s     0.208294    0.576555    0.162321    0.000000
   204  O2    s     0.334053    0.744267    0.829173    0.000000
   205  O2    s     0.112278    0.205289    0.966201    0.000000
   206  O2    s     0.753787    0.885112    0.300861    0.000000
   207  O2    s     0.068979    0.865481    0.632035    0.000000
   208  O2    s     0.845497    0.768077    0.465700    0.000000
   209  O3    s     0.185559    0.074032    0.800191    0.000000
   210  O2    s     0.879915    0.112315    0.132945    0.000000
   211  O2    s     0.187166    0.102749    0.359128    0.000000
   212  O2    s     0.898786    0.788865    0.027078    0.000000
   213  O3    s     0.861769    0.077010    0.692121    0.000000
   214  O2    s     0.768668    0.865770    0.859978    0.000000
   215  O2    s     0.060488    0.199695    0.526128    0.000000
   216  O2    s     0.095804    0.893041    0.194848    0.000000
   217  O2    s     0.898286    0.840725    0.246193    0.000000
   218  O2    s     0.111274    0.055610    0.578624    0.000000
   219  O2    s     0.919961    0.055591    0.913002    0.000000
   220  O2    s     0.053942    0.132884    0.745641    0.000000
   221  O2    s     0.837429    0.922254    0.080833    0.000000
   222  O2    s     0.039596    0.913689    0.412986    0.000000
   223  O2    s     0.900617    0.196676    0.975620    0.000000
   224  O2    s     0.765239    0.684168    0.311606    0.000000
   225  O2    s     0.275392    0.074362    0.641225    0.000000
   226  O2    s     0.058155    0.778905    0.478310    0.000000
   227  O2    s     0.194677    0.282177    0.811748    0.000000
   228  O2    s     0.680273    0.899124    0.146645    0.000000
   229  O2    s     0.176029    0.889831    0.348902    0.000000
   230  O2    s     0.689923    0.788069    0.014192    0.000000
   231  O2    s     0.063024    0.283756    0.680278    0.000000
   232  O2    s     0.770894    0.073647    0.851719    0.000000
   233  O2    s     0.263095    0.191056    0.513202    0.000000
   234  O2    s     0.882881    0.693794    0.178734    0.000000
   235  O2    s     0.300143    0.641113    0.245731    0.000000
   236  O2    s     0.313059    0.655699    0.577901    0.000000
   237  O2    s     0.310397    0.657078    0.912583    0.000000
   238  O2    s     0.651415    0.330729    0.747618    0.000000
   239  O3    s     0.616451    0.304409    0.086009    0.000000
   240  O2    s     0.642416    0.314274    0.414297    0.000000
   241  O2    s     0.365445    0.332188    0.964874    0.000000
   242  O2    s     0.632469    0.017877    0.300749    0.000000
   243  O2    s     0.935948    0.611230    0.631266    0.000000
   244  O2    s     0.589946    0.643893    0.463300    0.000000
   245  O3    s     0.315699    0.934805    0.799076    0.000000
   246  O2    s     0.009852    0.367355    0.129288    0.000000
   247  O2    s     0.308928    0.357362    0.359790    0.000000
   248  O2    s     0.019010    0.651280    0.026795    0.000000
   249  O3    s     0.591964    0.937876    0.692940    0.000000
   250  O2    s     0.647029    0.612682    0.862062    0.000000
   251  O2    s     0.930274    0.324805    0.527932    0.000000
   252  O2    s     0.351194    0.022189    0.197364    0.000000
   253  O3    s     0.758901    0.285946    0.005112    0.000000
   254  O2    s     0.659931    0.447849    0.343633    0.000000
   255  O2    s     0.510625    0.209639    0.676957    0.000000
   256  O2    s     0.189882    0.671936    0.508822    0.000000
   257  O2    s     0.297106    0.517695    0.843095    0.000000
   258  O2    s     0.440402    0.766688    0.177002    0.000000
   259  O2    s     0.279991    0.757006    0.316218    0.000000
   260  O2    s     0.450250    0.679658    0.982463    0.000000
   261  O2    s     0.193799    0.518247    0.647624    0.000000
   262  O2    s     0.671265    0.209110    0.817234    0.000000
   263  O2    s     0.501314    0.297041    0.482636    0.000000
   264  O2    s     0.748975    0.455415    0.147945    0.000000
   265  O3    s     0.777261    0.545197    0.021389    0.000000
   266  O2    s     0.438501    0.239697    0.360448    0.000000
   267  O3    s     0.722091    0.206905    0.692741    0.000000
   268  O2    s     0.177346    0.450702    0.526093    0.000000
   269  O2    s     0.517697    0.730041    0.860320    0.000000
   270  O2    s     0.228859    0.775583    0.194704    0.000000
   271  O2    s     0.502331    0.771453    0.299570    0.000000
   272  O2    s     0.242442    0.456334    0.965751    0.000000
   273  O2    s     0.182406    0.728159    0.631199    0.000000
   274  O3    s     0.456173    0.204103    0.801724    0.000000
   275  O2    s     0.710053    0.517821    0.466127    0.000000
   276  O2    s     0.764620    0.248298    0.130679    0.000000
   277  O2    s     0.227769    0.320694    0.895331    0.000000
   278  O2    s     0.640218    0.892921    0.230011    0.000000
   279  O2    s     0.062329    0.744600    0.561220    0.000000
   280  O2    s     0.728068    0.649224    0.394686    0.000000
   281  O3    s     0.306760    0.075256    0.723609    0.000000
   282  O2    s     0.884265    0.230875    0.060701    0.000000
   283  O2    s     0.301012    0.224850    0.430013    0.000000
   284  O2    s     0.879233    0.651640    0.095253    0.000000
   285  O3    s     0.741293    0.077064    0.769410    0.000000
   286  O2    s     0.652818    0.748813    0.931208    0.000000
   287  O2    s     0.059522    0.316995    0.596905    0.000000
   288  O2    s     0.213601    0.892267    0.266029    0.000000
   289  O2    s     0.567708    0.551861    0.985015    0.000000
   290  O2    s     0.413386    0.002696    0.320013    0.000000
   291  O2    s     0.948033    0.404746    0.650168    0.000000
   292  O2    s     0.383801    0.425407    0.482238    0.000000
   293  O2    s     0.536487    0.961158    0.817444    0.000000
   294  O2    s     0.993515    0.567520    0.146117    0.000000
   295  O2    s     0.528179    0.563011    0.341226    0.000000
   296  O2    s     0.999021    0.431777    0.008081    0.000000
   297  O2    s     0.395938    0.961499    0.674623    0.000000
   298  O2    s     0.429486    0.403794    0.843999    0.000000
   299  O2    s     0.943151    0.543672    0.509060    0.000000
   300  O2    s     0.559963    0.012887    0.178536    0.000000
   301  O2    s     0.550108    0.136876    0.250592    0.000000
   302  O2    s     0.815253    0.409520    0.580318    0.000000
   303  O2    s     0.569175    0.417563    0.914729    0.000000
   304  O2    s     0.399798    0.828693    0.745571    0.000000
   305  O2    s     0.126857    0.562964    0.078340    0.000000
   306  O2    s     0.389566    0.558425    0.411240    0.000000
   307  F     s     0.422808    0.886209    0.246960    0.000000
   308  F     s     0.066692    0.534296    0.578395    0.000000
   309  F     s     0.435018    0.542119    0.912721    0.000000
   310  F     s     0.526454    0.082713    0.746243    0.000000
   311  F     s     0.833636    0.426075    0.067713    0.000000
   312  F     s     0.516771    0.434737    0.411713    0.000000
--------------------------------------------------------------------------------

  Final Cartesian lattice vectors (Angstroms) :

       11.944772    0.002027    0.002107
       -6.041865   10.395130    0.003488
       -0.016777   -0.160293   29.456382


  Final cell parameters and derivatives :

--------------------------------------------------------------------------------
       a           11.944773 Angstrom     dE/de1(xx)     0.000902 eV/strain
       b           12.023431 Angstrom     dE/de2(yy)    -0.000106 eV/strain
       c           29.456823 Angstrom     dE/de3(zz)     0.000830 eV/strain
       alpha       90.236542 Degrees      dE/de4(yz)     0.000025 eV/strain
       beta        90.022579 Degrees      dE/de5(xz)    -0.000152 eV/strain
       gamma      120.156313 Degrees      dE/de6(xy)     0.000440 eV/strain
--------------------------------------------------------------------------------

  Primitive cell volume =          3657.894140 Angs**3

  Density of cell =      1.749119 g/cm**3

  Non-primitive cell volume =          3657.894140 Angs**3


  Final internal derivatives :

--------------------------------------------------------------------------------
   No.  Atomic          a             b             c           Radius
        Label          (eV)          (eV)          (eV)        (eV/Angs)
--------------------------------------------------------------------------------
      1 Ge    c       0.000000      0.000000      0.000000      0.000000
      2 Si    c       0.000023      0.000043      0.000576      0.000000
      3 Si    c      -0.000015     -0.001070      0.001342      0.000000
      4 Si    c       0.000274      0.000314      0.000036      0.000000
      5 Si    c       0.000267     -0.000026      0.000890      0.000000
      6 Si    c       0.000167      0.000325      0.000456      0.000000
      7 Si    c       0.000215      0.000725      0.000101      0.000000
      8 Si    c       0.000709     -0.000173     -0.000206      0.000000
      9 Si    c      -0.000162      0.000314      0.000225      0.000000
     10 Si    c       0.000226     -0.000389     -0.000410      0.000000
     11 Si    c       0.000095     -0.000361      0.000011      0.000000
     12 Si    c       0.002646      0.000733      0.007884      0.000000
     13 Si    c      -0.000500     -0.001556      0.001140      0.000000
     14 Si    c       0.000126      0.000043      0.000028      0.000000
     15 Si    c       0.000006     -0.000539      0.000622      0.000000
     16 Si    c       0.000314      0.000103      0.000271      0.000000
     17 Si    c       0.000073      0.000458     -0.000144      0.000000
     18 Si    c       0.000676      0.000524      0.000845      0.000000
     19 Si    c       0.000407      0.000352      0.000891      0.000000
     20 Si    c       0.000775     -0.000040      0.000177      0.000000
     21 Si    c      -0.000275      0.000316      0.001020      0.000000
     22 Si    c      -0.000708      0.000095      0.001394      0.000000
     23 Si    c       0.000319     -0.000129      0.000497      0.000000
     24 Si    c      -0.000019     -0.001086      0.001574      0.000000
     25 Si    c       0.000017      0.000277      0.000939      0.000000
     26 Si    c      -0.000039      0.000370     -0.000111      0.000000
     27 Si    c       0.000425     -0.000225      0.000675      0.000000
     28 Si    c       0.000404      0.000291      0.000586      0.000000
     29 Si    c       0.000381     -0.000391      0.000462      0.000000
     30 Si    c       0.002170      0.000929     -0.000773      0.000000
     31 Si    c       0.000215     -0.000426      0.000057      0.000000
     32 Si    c       0.001229     -0.000026     -0.000944      0.000000
     33 Si    c      -0.000639      0.000259     -0.001306      0.000000
     34 Si    c      -0.000051     -0.000126     -0.000971      0.000000
     35 Si    c      -0.000401      0.000365     -0.000446      0.000000
     36 Si    c       0.000274      0.000235     -0.000070      0.000000
     37 Si    c       0.000247     -0.000076     -0.000474      0.000000
     38 Si    c      -0.000175      0.000486     -0.000016      0.000000
     39 Si    c       0.000239     -0.000491     -0.000021      0.000000
     40 Si    c       0.000311     -0.000082     -0.000101      0.000000
     41 Ge    c       0.000097     -0.000391     -0.000401      0.000000
     42 Si    c       0.000856      0.000330     -0.000279      0.000000
     43 Si    c       0.000323     -0.000018      0.000731      0.000000
     44 Si    c       0.001244     -0.000423     -0.002816      0.000000
     45 Ge    c       0.000277      0.000359     -0.000313      0.000000
     46 Si    c      -0.000253      0.000224      0.000684      0.000000
     47 Si    c       0.000041      0.000484      0.000359      0.000000
     48 Si    c       0.000487     -0.000136      0.000376      0.000000
     49 Si    c      -0.000058      0.000206      0.000091      0.000000
     50 Si    c       0.000643      0.000136     -0.000124      0.000000
     51 Si    c       0.000280     -0.000227      0.000146      0.000000
     52 Si    c       0.000328     -0.000120      0.000087      0.000000
     53 Si    c      -0.000320      0.000133      0.001051      0.000000
     54 Si    c      -0.000497      0.000048      0.000262      0.000000
     55 Si    c       0.000211     -0.000038      0.000408      0.000000
     56 Si    c      -0.000535      0.000287     -0.000734      0.000000
     57 Si    c      -0.000002      0.000081     -0.000452      0.000000
     58 Si    c      -0.000500      0.000439      0.000051      0.000000
     59 Si    c       0.000404     -0.000040     -0.000066      0.000000
     60 Si    c       0.000697     -0.000552      0.000779      0.000000
     61 O2    c      -0.000333      0.000063     -0.000393      0.000000
     62 O2    c       0.000311      0.000235      0.000009      0.000000
     63 O2    c      -0.000166     -0.000209     -0.000071      0.000000
     64 O2    c       0.000125     -0.000218      0.000192      0.000000
     65 O2    c      -0.000105      0.000071      0.000252      0.000000
     66 O2    c      -0.000097     -0.000480      0.001171      0.000000
     67 O2    c       0.000312      0.000302      0.000626      0.000000
     68 O2    c      -0.000208      0.000121      0.000310      0.000000
     69 O2    c       0.001131      0.000272      0.000441      0.000000
     70 O2    c      -0.000215      0.000330     -0.000329      0.000000
     71 O2    c      -0.000123     -0.000714      0.002471      0.000000
     72 O2    c       0.000373     -0.000120      0.000051      0.000000
     73 O3    c       0.001817     -0.001411      0.003866      0.000000
     74 O2    c       0.000248     -0.000550     -0.000020      0.000000
     75 O2    c      -0.000041      0.000338      0.000012      0.000000
     76 O2    c       0.000471     -0.000021      0.000201      0.000000
     77 O2    c       0.000285     -0.000067      0.000091      0.000000
     78 O2    c       0.000040      0.000374      0.000293      0.000000
     79 O2    c       0.000126     -0.000160     -0.000057      0.000000
     80 O2    c       0.000296      0.000474      0.000015      0.000000
     81 O2    c       0.000115     -0.000258     -0.000022      0.000000
     82 O2    c       0.000300     -0.000219      0.000028      0.000000
     83 O3    c       0.000296     -0.000365      0.000411      0.000000
     84 O2    c       0.000081     -0.000016      0.000596      0.000000
     85 O2    c       0.000315      0.000180      0.000506      0.000000
     86 O2    c       0.001581      0.000061     -0.002237      0.000000
     87 O3    c      -0.000065     -0.000237     -0.000229      0.000000
     88 O2    c      -0.000249      0.000079      0.000910      0.000000
     89 O2    c       0.000337      0.000254      0.000090      0.000000
     90 O2    c       0.000611     -0.000100      0.000849      0.000000
     91 O2    c       0.000674     -0.000089     -0.000041      0.000000
     92 O2    c       0.000099     -0.000128      0.000955      0.000000
     93 O2    c      -0.000421      0.000142     -0.000056      0.000000
     94 O2    c      -0.000093     -0.000072      0.001234      0.000000
     95 O2    c      -0.000553      0.000353      0.001915      0.000000
     96 O2    c       0.000213     -0.000169      0.000064      0.000000
     97 O2    c       0.000480      0.000011      0.000031      0.000000
     98 O2    c       0.000194      0.000030      0.000798      0.000000
     99 O2    c      -0.000083     -0.000208      0.000495      0.000000
    100 O2    c       0.000359     -0.000056      0.000366      0.000000
    101 O2    c      -0.000271      0.001098      0.000495      0.000000
    102 O2    c      -0.000043      0.000296      0.000283      0.000000
    103 O2    c       0.000192      0.000154     -0.000325      0.000000
    104 O2    c      -0.000661     -0.000200     -0.000206      0.000000
    105 O2    c      -0.000276      0.000145     -0.000288      0.000000
    106 O2    c      -0.000644      0.000531     -0.000154      0.000000
    107 O2    c       0.000333     -0.000259     -0.000290      0.000000
    108 O2    c       0.000900     -0.000683      0.000295      0.000000
    109 O2    c      -0.000002      0.000362      0.000312      0.000000
    110 O2    c      -0.000060      0.000301      0.000269      0.000000
    111 O2    c       0.000719     -0.000075      0.000033      0.000000
    112 O2    c       0.000391      0.000044     -0.000142      0.000000
    113 O3    c      -0.000469     -0.002204      0.007850      0.000000
    114 O2    c      -0.000075     -0.000157      0.000277      0.000000
    115 O2    c      -0.000072     -0.000152     -0.000286      0.000000
    116 O2    c      -0.000073      0.000352     -0.000254      0.000000
    117 O2    c       0.000284     -0.000222     -0.000204      0.000000
    118 O2    c       0.000319     -0.000216      0.000001      0.000000
    119 O3    c       0.000360      0.000074     -0.000089      0.000000
    120 O2    c       0.000785      0.000202      0.000715      0.000000
    121 O2    c       0.000313      0.000314      0.000460      0.000000
    122 O2    c       0.001894      0.001068     -0.001622      0.000000
    123 O3    c      -0.000844      0.000397      0.000728      0.000000
    124 O2    c      -0.000152      0.000266      0.000222      0.000000
    125 O2    c       0.000456      0.000121      0.000324      0.000000
    126 O2    c       0.000607     -0.000037      0.000353      0.000000
    127 O3    c       0.002536     -0.000611     -0.001862      0.000000
    128 O2    c       0.000063      0.000181      0.000575      0.000000
    129 O2    c       0.000122     -0.000320      0.000256      0.000000
    130 O2    c       0.000352      0.000015      0.000624      0.000000
    131 O2    c       0.000058      0.000250      0.000458      0.000000
    132 O2    c       0.000185      0.000246      0.000865      0.000000
    133 O2    c       0.000470      0.000485     -0.000441      0.000000
    134 O2    c       0.000808     -0.000470     -0.000098      0.000000
    135 O2    c      -0.000314      0.000073     -0.000140      0.000000
    136 O2    c       0.000143      0.000290     -0.000155      0.000000
    137 O2    c       0.000297     -0.000193     -0.000291      0.000000
    138 O2    c       0.000929      0.000502      0.000784      0.000000
    139 O3    c      -0.001584     -0.000234     -0.002600      0.000000
    140 O2    c       0.000186      0.000059      0.000460      0.000000
    141 O3    c       0.000373      0.000056      0.000515      0.000000
    142 O2    c       0.000137      0.000229      0.000383      0.000000
    143 O2    c       0.000125     -0.000052      0.000623      0.000000
    144 O2    c       0.000776      0.000027      0.000785      0.000000
    145 O2    c       0.000154      0.000463     -0.000040      0.000000
    146 O2    c       0.000350     -0.000348     -0.000038      0.000000
    147 O2    c       0.000129     -0.000097     -0.000049      0.000000
    148 O3    c       0.001064     -0.001361     -0.001588      0.000000
    149 O2    c       0.000145     -0.000312     -0.000234      0.000000
    150 O2    c       0.000447     -0.000952      0.001141      0.000000
    151 O2    c      -0.000130     -0.000163      0.000349      0.000000
    152 O2    c      -0.000046      0.000498      0.000597      0.000000
    153 O2    c       0.000387     -0.000078      0.000232      0.000000
    154 O2    c       0.000210     -0.000026      0.000596      0.000000
    155 O3    c       0.000653     -0.000325      0.000440      0.000000
    156 O2    c       0.000184     -0.000059     -0.001884      0.000000
    157 O2    c       0.000296     -0.000101      0.000268      0.000000
    158 O2    c       0.001448      0.001577      0.008242      0.000000
    159 O3    c      -0.000374      0.000425      0.000271      0.000000
    160 O2    c       0.000044     -0.000073     -0.000134      0.000000
    161 O2    c      -0.000122      0.000131      0.000080      0.000000
    162 O2    c       0.000522     -0.000075     -0.000313      0.000000
    163 O2    c       0.000459     -0.000639     -0.000540      0.000000
    164 O2    c       0.000198      0.000233     -0.000569      0.000000
    165 O2    c      -0.000133     -0.000168     -0.000273      0.000000
    166 O2    c       0.000213     -0.000186     -0.000203      0.000000
    167 O2    c       0.000020      0.000131      0.000027      0.000000
    168 O2    c       0.001221     -0.000115     -0.000037      0.000000
    169 O2    c       0.000346      0.000205      0.000828      0.000000
    170 O2    c       0.002270     -0.000275     -0.001378      0.000000
    171 O2    c      -0.000103     -0.000469      0.000243      0.000000
    172 O2    c      -0.000529      0.000167      0.000366      0.000000
    173 O2    c       0.000364     -0.000055      0.000344      0.000000
    174 O2    c       0.000368      0.000125      0.000286      0.000000
    175 O2    c       0.000536      0.000169      0.000208      0.000000
    176 O2    c       0.000309     -0.000328     -0.000093      0.000000
    177 O2    c      -0.000353     -0.000229      0.000219      0.000000
    178 O2    c      -0.000138      0.000044      0.000592      0.000000
    179 O2    c       0.001162      0.000654      0.001801      0.000000
    180 O2    c       0.000410      0.000120      0.000455      0.000000
    181 F     c       0.000255      0.000293      0.000237      0.000000
    182 F     c       0.000107      0.000030      0.000110      0.000000
    183 F     c       0.000158     -0.000141     -0.000043      0.000000
    184 F     c       0.001476      0.000465      0.000672      0.000000
    185 F     c      -0.001696      0.000863     -0.005456      0.000000
    186 F     c       0.000173     -0.000087      0.000241      0.000000
    187 O2    s       0.000525     -0.000616     -0.000519      0.000000
    188 O2    s       0.000014      0.000830      0.000036      0.000000
    189 O2    s      -0.000207     -0.000002      0.000168      0.000000
    190 O2    s       0.000119     -0.000094     -0.000057      0.000000
    191 O2    s      -0.000000      0.000072     -0.000008      0.000000
    192 O2    s       0.000128     -0.000896      0.001246      0.000000
    193 O2    s       0.000819      0.000287      0.000271      0.000000
    194 O2    s       0.000114     -0.000406      0.000628      0.000000
    195 O2    s       0.001122      0.000084      0.000334      0.000000
    196 O2    s      -0.000643      0.000282     -0.000530      0.000000
    197 O2    s       0.000952      0.000115      0.005656      0.000000
    198 O2    s       0.000168     -0.000168      0.000174      0.000000
    199 O3    s       0.001933     -0.000706      0.002294      0.000000
    200 O2    s      -0.000252      0.000115     -0.000394      0.000000
    201 O2    s      -0.000160      0.000303     -0.000101      0.000000
    202 O2    s       0.000764     -0.000118      0.000505      0.000000
    203 O2    s       0.000902     -0.000660      0.000164      0.000000
    204 O2    s       0.000262      0.000309      0.000473      0.000000
    205 O2    s       0.000386     -0.000625      0.000045      0.000000
    206 O2    s       0.000348      0.000330     -0.000677      0.000000
    207 O2    s      -0.000070     -0.000016      0.000099      0.000000
    208 O2    s       0.000165     -0.000187      0.000127      0.000000
    209 O3    s       0.000568     -0.000539     -0.000024      0.000000
    210 O2    s       0.001130     -0.000026      0.001650      0.000000
    211 O2    s       0.000288      0.000264      0.000843      0.000000
    212 O2    s       0.001541      0.000014     -0.003401      0.000000
    213 O3    s      -0.000383     -0.000849     -0.000318      0.000000
    214 O2    s      -0.000096      0.000000      0.000869      0.000000
    215 O2    s       0.000717      0.000058      0.000369      0.000000
    216 O2    s       0.000305      0.000354      0.000869      0.000000
    217 O2    s       0.000389      0.000421     -0.000036      0.000000
    218 O2    s       0.000106      0.000120      0.000950      0.000000
    219 O2    s      -0.000151     -0.000200     -0.000317      0.000000
    220 O2    s       0.000013     -0.000340      0.000575      0.000000
    221 O2    s       0.000626     -0.001118      0.002199      0.000000
    222 O2    s       0.000214      0.000021      0.000107      0.000000
    223 O2    s       0.000899      0.000744     -0.000100      0.000000
    224 O2    s      -0.000069      0.000352      0.000972      0.000000
    225 O2    s      -0.000329      0.000094      0.001001      0.000000
    226 O2    s       0.000374      0.000045      0.000736      0.000000
    227 O2    s      -0.000465      0.001159      0.000590      0.000000
    228 O2    s       0.000339     -0.000636      0.001919      0.000000
    229 O2    s       0.000209      0.000249     -0.000382      0.000000
    230 O2    s       0.000217     -0.001302     -0.000683      0.000000
    231 O2    s      -0.000101     -0.000154     -0.000871      0.000000
    232 O2    s      -0.000543      0.000508     -0.001124      0.000000
    233 O2    s       0.000312     -0.000148     -0.000249      0.000000
    234 O2    s       0.000863     -0.000181      0.000054      0.000000
    235 O2    s       0.000803     -0.000074     -0.000267      0.000000
    236 O2    s       0.000539     -0.000035      0.000241      0.000000
    237 O2    s       0.000539      0.000388      0.000089      0.000000
    238 O2    s      -0.000246      0.000678     -0.000245      0.000000
    239 O3    s      -0.001064      0.001697      0.003672      0.000000
    240 O2    s      -0.000261     -0.000208      0.000235      0.000000
    241 O2    s       0.000228     -0.001064      0.000594      0.000000
    242 O2    s       0.000157      0.000234      0.000132      0.000000
    243 O2    s      -0.000054     -0.000001     -0.000347      0.000000
    244 O2    s       0.000411     -0.000393      0.000003      0.000000
    245 O3    s      -0.000007      0.000194      0.000295      0.000000
    246 O2    s       0.001456     -0.000176      0.001295      0.000000
    247 O2    s       0.000733      0.000166      0.000936      0.000000
    248 O2    s       0.001003      0.001086     -0.003711      0.000000
    249 O3    s       0.000331     -0.000454      0.001505      0.000000
    250 O2    s      -0.000143      0.000172      0.000332      0.000000
    251 O2    s       0.000471      0.000003      0.000119      0.000000
    252 O2    s       0.000339      0.000500      0.001040      0.000000
    253 O3    s       0.002979     -0.000989     -0.004044      0.000000
    254 O2    s      -0.000100      0.000292      0.000877      0.000000
    255 O2    s      -0.000527      0.000049      0.000187      0.000000
    256 O2    s       0.000430      0.000033      0.000684      0.000000
    257 O2    s      -0.000049      0.000321      0.000397      0.000000
    258 O2    s       0.000711     -0.000444      0.001359      0.000000
    259 O2    s       0.000597      0.000447      0.000083      0.000000
    260 O2    s       0.000408     -0.000439      0.000156      0.000000
    261 O2    s       0.000040     -0.000140     -0.000240      0.000000
    262 O2    s       0.000075      0.000174      0.000569      0.000000
    263 O2    s       0.000063     -0.000255     -0.000225      0.000000
    264 O2    s       0.000774     -0.000518      0.002612      0.000000
    265 O3    s      -0.002342      0.001586     -0.006248      0.000000
    266 O2    s       0.000017      0.000266      0.000721      0.000000
    267 O3    s       0.000821     -0.000466      0.000051      0.000000
    268 O2    s       0.000805      0.000083      0.000733      0.000000
    269 O2    s       0.000037      0.000253      0.000448      0.000000
    270 O2    s       0.000587      0.000217      0.000792      0.000000
    271 O2    s       0.000604      0.000143     -0.000180      0.000000
    272 O2    s       0.000291     -0.000010      0.000067      0.000000
    273 O2    s      -0.000004     -0.000067      0.000047      0.000000
    274 O3    s       0.000549     -0.000483     -0.002110      0.000000
    275 O2    s       0.000032     -0.000139     -0.000111      0.000000
    276 O2    s       0.000728     -0.000154      0.005624      0.000000
    277 O2    s      -0.000073     -0.000316      0.000217      0.000000
    278 O2    s       0.000726     -0.000263      0.000487      0.000000
    279 O2    s       0.000241      0.000077      0.000118      0.000000
    280 O2    s       0.000103      0.000242      0.000440      0.000000
    281 O3    s       0.000099      0.000386      0.000199      0.000000
    282 O2    s       0.001690      0.000083     -0.000775      0.000000
    283 O2    s       0.000350     -0.000090      0.000190      0.000000
    284 O2    s       0.001316      0.002817      0.006836      0.000000
    285 O3    s       0.000726     -0.000598     -0.000422      0.000000
    286 O2    s       0.000787     -0.000606     -0.000062      0.000000
    287 O2    s       0.000430     -0.000268      0.000040      0.000000
    288 O2    s       0.000470      0.000478     -0.000151      0.000000
    289 O2    s       0.000933     -0.000275      0.000643      0.000000
    290 O2    s       0.000091      0.000656     -0.000296      0.000000
    291 O2    s       0.000095     -0.000293      0.000016      0.000000
    292 O2    s       0.000509     -0.000236     -0.000191      0.000000
    293 O2    s       0.000163     -0.000099      0.000045      0.000000
    294 O2    s       0.001005     -0.000445      0.000484      0.000000
    295 O2    s       0.000376      0.000450      0.001313      0.000000
    296 O2    s       0.003239     -0.000972     -0.001982      0.000000
    297 O2    s      -0.000321     -0.000267      0.000117      0.000000
    298 O2    s      -0.000297     -0.000119      0.000025      0.000000
    299 O2    s       0.000339      0.000052      0.000643      0.000000
    300 O2    s       0.000292      0.000133      0.001051      0.000000
    301 O2    s       0.000303      0.000553      0.000366      0.000000
    302 O2    s      -0.000021     -0.000120     -0.000330      0.000000
    303 O2    s      -0.000212     -0.001036     -0.000294      0.000000
    304 O2    s       0.000226     -0.000342      0.000231      0.000000
    305 O2    s       0.002062      0.000246      0.001189      0.000000
    306 O2    s       0.000995     -0.000002      0.000268      0.000000
    307 F     s       0.000467      0.000354      0.000470      0.000000
    308 F     s       0.000094      0.000001      0.000027      0.000000
    309 F     s       0.000228     -0.000182     -0.000208      0.000000
    310 F     s       0.001350      0.000327      0.001117      0.000000
    311 F     s      -0.002228      0.000164     -0.007587      0.000000
    312 F     s       0.000119     -0.000048      0.000261      0.000000
--------------------------------------------------------------------------------
  Maximum abs         0.003239      0.002817      0.008242      0.000000
--------------------------------------------------------------------------------


  Time to end of optimisation =      55.0578 seconds


  Peak dynamic memory used =      19.13 MB 


  Timing analysis for GULP :

--------------------------------------------------------------------------------
  Task / Subroutine                                          Time (Seconds)
--------------------------------------------------------------------------------
  Calculation of reciprocal space energy and derivatives          1.4369
  Calculation of real space energy and derivatives               47.9155
  Calculation of three-body energy and derivatives                4.8674
  Calculation of matrix inversion                                 0.7440
--------------------------------------------------------------------------------
  Total CPU time                                                 55.0579
--------------------------------------------------------------------------------


  Dump file written as out.res                                                 
  CIF file written as out.cif                                                 


  Job Finished at 10:24.56 10th November   2016                               

