********************************************************************************
*                       GENERAL UTILITY LATTICE PROGRAM                        *
*                                 Julian Gale                                  *
*                      Nanochemistry Research Institute                        *
*                           Department of Chemistry                            *
*                    Curtin University, Western Australia                      *
********************************************************************************
* Version = 4.2.0 * Last modified =  20th January 2014                         *
********************************************************************************
*  optimise     - perform optimisation run                                     *
*  conp         - constant pressure calculation                                *
*  qok          - running with non charge neutral cell is OK                   *
********************************************************************************

  Job Started  at 04:37.30 11th November   2016                               

  Number of CPUs =     1


  Total number of configurations input =   1

********************************************************************************
*  Input for Configuration =   1                                               *
********************************************************************************

  Formula = Ge3Si57O120F6                                               

  Number of irreducible atoms/shells =     312


  Total number atoms/shells =     312

  Dimensionality = 3               :  Bulk   


  Charge on solid   =  -6.000000 =>neutralising background added


  Cartesian lattice vectors (Angstroms) :

       11.975005    0.000000    0.000000
       -6.046438   10.370989    0.000000
       -0.120036   -0.052806   29.473457

  Cell parameters (Angstroms/Degrees):

  a =      11.9750    alpha =  89.9712
  b =      12.0049    beta  =  90.2333
  c =      29.4737    gamma = 120.2428

  Initial cell volume =        3660.386761 Angs**3

  Temperature of configuration =  0.000     K 

  Pressure of configuration =         0.000 GPa 

  Fractional coordinates of asymmetric unit :

--------------------------------------------------------------------------------
   No.  Atomic       x           y          z         Charge      Occupancy
        Label      (Frac)      (Frac)     (Frac)        (e)         (Frac)  
--------------------------------------------------------------------------------
      1 Ge    c    0.699600    0.375700    0.033890     4.00000    1.000000    
      2 Si    c    0.615774 *  0.318745 *  0.367427 *   4.00000    1.000000    
      3 Si    c    0.675947 *  0.296274 *  0.698548 *   4.00000    1.000000    
      4 Si    c    0.293362 *  0.619805 *  0.530537 *   4.00000    1.000000    
      5 Si    c    0.376801 *  0.671312 *  0.862381 *   4.00000    1.000000    
      6 Si    c    0.315115 *  0.699874 *  0.197717 *   4.00000    1.000000    
      7 Si    c    0.363763 *  0.692466 *  0.298635 *   4.00000    1.000000    
      8 Si    c    0.320491 *  0.615940 *  0.962374 *   4.00000    1.000000    
      9 Si    c    0.297056 *  0.675421 *  0.631198 *   4.00000    1.000000    
     10 Si    c    0.619985 *  0.293272 *  0.799008 *   4.00000    1.000000    
     11 Si    c    0.673228 *  0.381045 *  0.467385 *   4.00000    1.000000    
     12 Si    c    0.685286 *  0.316252 *  0.133446 *   4.00000    1.000000    
     13 Si    c    0.525734 *  0.408906 *  0.965966 *   4.00000    1.000000    
     14 Si    c    0.571977 *  0.106294 *  0.303141 *   4.00000    1.000000    
     15 Si    c    0.886816 *  0.469406 *  0.634161 *   4.00000    1.000000    
     16 Si    c    0.464753 *  0.583332 *  0.464836 *   4.00000    1.000000    
     17 Si    c    0.415239 *  0.882393 *  0.797668 *   4.00000    1.000000    
     18 Si    c    0.106122 *  0.529819 *  0.130212 *   4.00000    1.000000    
     19 Si    c    0.409056 *  0.525116 *  0.363329 *   4.00000    1.000000    
     20 Si    c    0.108717 *  0.582816 *  0.026503 *   4.00000    1.000000    
     21 Si    c    0.469178 *  0.886487 *  0.695981 *   4.00000    1.000000    
     22 Si    c    0.580230 *  0.464252 *  0.863827 *   4.00000    1.000000    
     23 Si    c    0.883673 *  0.416828 *  0.532478 *   4.00000    1.000000    
     24 Si    c    0.524501 *  0.108457 *  0.201567 *   4.00000    1.000000    
     25 Si    c    0.299837 *  0.394186 *  0.848047 *   4.00000    1.000000    
     26 Si    c    0.596450 *  0.900814 *  0.186006 *   4.00000    1.000000    
     27 Si    c    0.092002 *  0.696892 *  0.517434 *   4.00000    1.000000    
     28 Si    c    0.688791 *  0.593063 *  0.349521 *   4.00000    1.000000    
     29 Si    c    0.397843 *  0.095124 *  0.682692 *   4.00000    1.000000    
     30 Si    c    0.892658 *  0.295934 *  0.011695 *   4.00000    1.000000    
     31 Si    c    0.393949 *  0.303935 *  0.481408 *   4.00000    1.000000    
     32 Si    c    0.890652 *  0.600997 *  0.145100 *   4.00000    1.000000    
     33 Si    c    0.696872 *  0.092299 *  0.812406 *   4.00000    1.000000    
     34 Si    c    0.597256 *  0.691274 *  0.978360 *   4.00000    1.000000    
     35 Si    c    0.096223 *  0.397643 *  0.647090 *   4.00000    1.000000    
     36 Si    c    0.289733 *  0.894732 *  0.313971 *   4.00000    1.000000    
     37 Si    c    0.247663 *  0.336027 *  0.948193 *   4.00000    1.000000    
     38 Si    c    0.646062 *  0.903724 *  0.287277 *   4.00000    1.000000    
     39 Si    c    0.088175 *  0.748187 *  0.618108 *   4.00000    1.000000    
     40 Si    c    0.743852 *  0.660548 *  0.449428 *   4.00000    1.000000    
     41 Si    c    0.338201 *  0.083862 *  0.783233 *   4.00000    1.000000    
     42 Si    c    0.901736 *  0.248378 *  0.114639 *   4.00000    1.000000    
     43 Si    c    0.335773 *  0.248921 *  0.380893 *   4.00000    1.000000    
     44 Ge    c    0.900723 *  0.659694 *  0.041730 *   4.00000    1.000000    
     45 Si    c    0.748364 *  0.088232 *  0.711820 *   4.00000    1.000000    
     46 Si    c    0.657518 *  0.743114 *  0.877913 *   4.00000    1.000000    
     47 Si    c    0.084501 *  0.338958 *  0.546305 *   4.00000    1.000000    
     48 Si    c    0.243520 *  0.907384 *  0.213113 *   4.00000    1.000000    
     49 Si    c    0.968331 *  0.121096 *  0.962839 *   4.00000    1.000000    
     50 Ge    c    0.869083 *  0.844259 *  0.299148 *   4.00000    1.000000    
     51 Si    c    0.149428 *  0.027782 *  0.632247 *   4.00000    1.000000    
     52 Si    c    0.024546 *  0.877466 *  0.466589 *   4.00000    1.000000    
     53 Si    c    0.120160 *  0.145214 *  0.797685 *   4.00000    1.000000    
     54 Si    c    0.841276 *  0.969923 *  0.131494 *   4.00000    1.000000    
     55 Si    c    0.117685 *  0.968857 *  0.365678 *   4.00000    1.000000    
     56 Si    c    0.844044 *  0.881991 *  0.029745 *   4.00000    1.000000    
     57 Si    c    0.027940 *  0.149079 *  0.696909 *   4.00000    1.000000    
     58 Si    c    0.876366 *  0.022476 *  0.862480 *   4.00000    1.000000    
     59 Si    c    0.145995 *  0.121367 *  0.531662 *   4.00000    1.000000    
     60 Si    c    0.966221 *  0.850406 *  0.195811 *   4.00000    1.000000    
     61 O2    c    0.916999 *  0.006957 *  0.998587 *   0.87073    1.000000    
     62 O3    c    0.998721 *  0.934946 *  0.333660 *   1.33043    1.000000    
     63 O2    c    0.068863 *  0.069437 *  0.664148 *   0.87073    1.000000    
     64 O2    c    0.066397 *  0.999694 *  0.498874 *   0.87073    1.000000    
     65 O2    c    0.998097 *  0.064591 *  0.830011 *   0.87073    1.000000    
     66 O2    c    0.927809 *  0.929840 *  0.161255 *   0.87073    1.000000    
     67 O2    c    0.327941 *  0.568767 *  0.330625 *   0.87073    1.000000    
     68 O2    c    0.421760 *  0.761780 *  0.663260 *   0.87073    1.000000    
     69 O2    c    0.236481 *  0.654096 *  0.995422 *   0.87073    1.000000    
     70 O2    c    0.657638 *  0.415162 *  0.832064 *   0.87073    1.000000    
     71 O2    c    0.575940 *  0.236483 *  0.171041 *   0.87073    1.000000    
     72 O2    c    0.756054 *  0.342100 *  0.500595 *   0.87073    1.000000    
     73 O3    c    0.564107 *  0.329041 *  0.998250 *   1.33043    1.000000    
     74 O2    c    0.762064 *  0.421043 *  0.666684 *   0.87073    1.000000    
     75 O2    c    0.651269 *  0.229898 *  0.336076 *   0.87073    1.000000    
     76 O2    c    0.415099 *  0.659188 *  0.496989 *   0.87073    1.000000    
     77 O2    c    0.230485 *  0.579686 *  0.163288 *   0.87073    1.000000    
     78 O2    c    0.338856 *  0.756086 *  0.829492 *   0.87073    1.000000    
     79 O2    c    0.122667 *  0.208704 *  0.968577 *   0.87073    1.000000    
     80 O3    c    0.768825 *  0.905665 *  0.309160 *   1.33043    1.000000    
     81 O2    c    0.087896 *  0.873990 *  0.638098 *   0.87073    1.000000    
     82 O2    c    0.869406 *  0.787616 *  0.469872 *   0.87073    1.000000    
     83 O2    c    0.211053 *  0.082149 *  0.803057 *   0.87073    1.000000    
     84 O2    c    0.902813 *  0.124590 *  0.135957 *   0.87073    1.000000    
     85 O2    c    0.211832 *  0.122232 *  0.360446 *   0.87073    1.000000    
     86 O3    c    0.922035 *  0.808812 *  0.024885 *   1.33043    1.000000    
     87 O2    c    0.873838 *  0.087972 *  0.691290 *   0.87073    1.000000    
     88 O2    c    0.784756 *  0.868280 *  0.857526 *   0.87073    1.000000    
     89 O2    c    0.081983 *  0.211362 *  0.526508 *   0.87073    1.000000    
     90 O2    c    0.120968 *  0.911329 *  0.191519 *   0.87073    1.000000    
     91 O3    c    0.926474 *  0.871242 *  0.244811 *   1.33043    1.000000    
     92 O2    c    0.134347 *  0.066294 *  0.581691 *   0.87073    1.000000    
     93 O2    c    0.929371 *  0.060977 *  0.913135 *   0.87073    1.000000    
     94 O2    c    0.066540 *  0.132287 *  0.747170 *   0.87073    1.000000    
     95 O2    c    0.843585 *  0.930076 *  0.080421 *   0.87073    1.000000    
     96 O2    c    0.067815 *  0.930125 *  0.416440 *   0.87073    1.000000    
     97 O2    c    0.904161 *  0.208390 *  0.972513 *   0.87073    1.000000    
     98 O3    c    0.784828 *  0.681712 *  0.309877 *   1.33043    1.000000    
     99 O2    c    0.301514 *  0.098383 *  0.644277 *   0.87073    1.000000    
    100 O2    c    0.092294 *  0.794757 *  0.479354 *   0.87073    1.000000    
    101 O2    c    0.202615 *  0.296823 *  0.809338 *   0.87073    1.000000    
    102 O2    c    0.692718 *  0.899635 *  0.147786 *   0.87073    1.000000    
    103 O2    c    0.191953 *  0.892393 *  0.352276 *   0.87073    1.000000    
    104 O2    c    0.693180 *  0.787772 *  0.017281 *   0.87073    1.000000    
    105 O2    c    0.099090 *  0.301102 *  0.685172 *   0.87073    1.000000    
    106 O2    c    0.794862 *  0.092399 *  0.850675 *   0.87073    1.000000    
    107 O2    c    0.297918 *  0.206541 *  0.519912 *   0.87073    1.000000    
    108 O2    c    0.896718 *  0.697403 *  0.185397 *   0.87073    1.000000    
    109 O2    c    0.310590 *  0.637972 *  0.247506 *   0.87073    1.000000    
    110 O2    c    0.353039 *  0.676475 *  0.580675 *   0.87073    1.000000    
    111 O2    c    0.317045 *  0.671869 *  0.912141 *   0.87073    1.000000    
    112 O2    c    0.676894 *  0.352483 *  0.748969 *   0.87073    1.000000    
    113 O3    c    0.616833 *  0.306460 *  0.085991 *   1.33043    1.000000    
    114 O2    c    0.673201 *  0.321017 *  0.417756 *   0.87073    1.000000    
    115 O2    c    0.368135 *  0.324371 *  0.965983 *   0.87073    1.000000    
    116 O2    c    0.657210 *  0.036400 *  0.305108 *   0.87073    1.000000    
    117 O2    c    0.956238 *  0.625666 *  0.636768 *   0.87073    1.000000    
    118 O2    c    0.621477 *  0.671068 *  0.467297 *   0.87073    1.000000    
    119 O2    c    0.328042 *  0.951107 *  0.800885 *   0.87073    1.000000    
    120 O2    c    0.032714 *  0.373859 *  0.132655 *   0.87073    1.000000    
    121 O2    c    0.323557 *  0.368770 *  0.361445 *   0.87073    1.000000    
    122 O3    c    0.046171 *  0.672515 *  0.024913 *   1.33043    1.000000    
    123 O2    c    0.625688 *  0.956099 *  0.693087 *   0.87073    1.000000    
    124 O2    c    0.666337 *  0.620452 *  0.859703 *   0.87073    1.000000    
    125 O2    c    0.951389 *  0.328941 *  0.528360 *   0.87073    1.000000    
    126 O2    c    0.368527 *  0.039133 *  0.195967 *   0.87073    1.000000    
    127 O3    c    0.756411 *  0.284182 *  0.004637 *   1.33043    1.000000    
    128 O2    c    0.690150 *  0.459601 *  0.343712 *   0.87073    1.000000    
    129 O2    c    0.532720 *  0.229142 *  0.675612 *   0.87073    1.000000    
    130 O2    c    0.224672 *  0.695095 *  0.508844 *   0.87073    1.000000    
    131 O2    c    0.302546 *  0.528833 *  0.839085 *   0.87073    1.000000    
    132 O2    c    0.459694 *  0.769561 *  0.176445 *   0.87073    1.000000    
    133 O2    c    0.286850 *  0.759064 *  0.320331 *   0.87073    1.000000    
    134 O2    c    0.463914 *  0.693639 *  0.984867 *   0.87073    1.000000    
    135 O2    c    0.230635 *  0.532509 *  0.653730 *   0.87073    1.000000    
    136 O2    c    0.695806 *  0.225157 *  0.820778 *   0.87073    1.000000    
    137 O2    c    0.529523 *  0.307666 *  0.489375 *   0.87073    1.000000    
    138 O2    c    0.759961 *  0.464043 *  0.153112 *   0.87073    1.000000    
    139 O1    c    0.765727 *  0.541052 *  0.017804 *   1.73396    1.000000    
    140 O2    c    0.459945 *  0.245080 *  0.362179 *   0.87073    1.000000    
    141 O2    c    0.750566 *  0.215428 *  0.692855 *   0.87073    1.000000    
    142 O2    c    0.210723 *  0.463524 *  0.525987 *   0.87073    1.000000    
    143 O2    c    0.533526 *  0.747093 *  0.858286 *   0.87073    1.000000    
    144 O2    c    0.239557 *  0.779921 *  0.193238 *   0.87073    1.000000    
    145 O2    c    0.518956 *  0.776160 *  0.305168 *   0.87073    1.000000    
    146 O2    c    0.244494 *  0.460084 *  0.968075 *   0.87073    1.000000    
    147 O2    c    0.215221 *  0.749044 *  0.636853 *   0.87073    1.000000    
    148 O2    c    0.463618 *  0.209691 *  0.803401 *   0.87073    1.000000    
    149 O2    c    0.746918 *  0.537334 *  0.469929 *   0.87073    1.000000    
    150 O2    c    0.777636 *  0.252462 *  0.132768 *   0.87073    1.000000    
    151 O2    c    0.225599 *  0.319814 *  0.893864 *   0.87073    1.000000    
    152 O2    c    0.666756 *  0.899666 *  0.232898 *   0.87073    1.000000    
    153 O2    c    0.089156 *  0.767290 *  0.563822 *   0.87073    1.000000    
    154 O2    c    0.762771 *  0.676291 *  0.394804 *   0.87073    1.000000    
    155 O2    c    0.321976 *  0.088064 *  0.728897 *   0.87073    1.000000    
    156 O2    c    0.902791 *  0.236146 *  0.060333 *   0.87073    1.000000    
    157 O2    c    0.318874 *  0.232317 *  0.435203 *   0.87073    1.000000    
    158 O3    c    0.891283 *  0.675181 *  0.100599 *   1.33043    1.000000    
    159 O2    c    0.767880 *  0.089474 *  0.766116 *   0.87073    1.000000    
    160 O2    c    0.674975 *  0.760962 *  0.932305 *   0.87073    1.000000    
    161 O2    c    0.088749 *  0.322516 *  0.600543 *   0.87073    1.000000    
    162 O2    c    0.220830 *  0.902171 *  0.267397 *   0.87073    1.000000    
    163 O2    c    0.577740 *  0.551141 *  0.988126 *   0.87073    1.000000    
    164 O2    c    0.429091 *  0.019113 *  0.324565 *   0.87073    1.000000    
    165 O2    c    0.972177 *  0.413055 *  0.656650 *   0.87073    1.000000    
    166 O2    c    0.408447 *  0.443566 *  0.488734 *   0.87073    1.000000    
    167 O2    c    0.557058 *  0.966713 *  0.820694 *   0.87073    1.000000    
    168 O2    c    0.014747 *  0.581979 *  0.148943 *   0.87073    1.000000    
    169 O2    c    0.549888 *  0.580945 *  0.339942 *   0.87073    1.000000    
    170 O2    c    0.012144 *  0.441946 *  0.005349 *   0.87073    1.000000    
    171 O2    c    0.411582 *  0.970261 *  0.673055 *   0.87073    1.000000    
    172 O2    c    0.438576 *  0.405651 *  0.840513 *   0.87073    1.000000    
    173 O2    c    0.965627 *  0.557544 *  0.508943 *   0.87073    1.000000    
    174 O2    c    0.587099 *  0.029244 *  0.178702 *   0.87073    1.000000    
    175 O2    c    0.572844 *  0.161004 *  0.252683 *   0.87073    1.000000    
    176 O2    c    0.832078 *  0.415820 *  0.583433 *   0.87073    1.000000    
    177 O2    c    0.581204 *  0.414898 *  0.914830 *   0.87073    1.000000    
    178 O2    c    0.415437 *  0.831767 *  0.746499 *   0.87073    1.000000    
    179 O2    c    0.151445 *  0.575784 *  0.078710 *   0.87073    1.000000    
    180 O2    c    0.410723 *  0.580851 *  0.413822 *   0.87073    1.000000    
    181 F     c    0.440695 *  0.897708 *  0.249221 *   0.56000    1.000000    
    182 F     c    0.093835 *  0.546767 *  0.581596 *   0.56000    1.000000    
    183 F     c    0.444695 *  0.545570 *  0.912462 *   0.56000    1.000000    
    184 F     c    0.547856 *  0.094238 *  0.747115 *   0.56000    1.000000    
    185 F     c    0.856953 *  0.446786 *  0.070715 *   0.56000    1.000000    
    186 F     c    0.544794 *  0.452899 *  0.414427 *   0.56000    1.000000    
    187 O2    s    0.914630 *  0.006023 *  0.997974 *  -2.87073    1.000000    
    188 O3    s    0.000291 *  0.930661 *  0.334117 *  -3.33043    1.000000    
    189 O2    s    0.073333 *  0.073662 *  0.664225 *  -2.87073    1.000000    
    190 O2    s    0.070584 *  0.999610 *  0.498929 *  -2.87073    1.000000    
    191 O2    s    0.998107 *  0.068870 *  0.830031 *  -2.87073    1.000000    
    192 O2    s    0.922374 *  0.925709 *  0.161687 *  -2.87073    1.000000    
    193 O2    s    0.339764 *  0.577018 *  0.330637 *  -2.87073    1.000000    
    194 O2    s    0.413729 *  0.765652 *  0.663294 *  -2.87073    1.000000    
    195 O2    s    0.231499 *  0.642661 *  0.995341 *  -2.87073    1.000000    
    196 O2    s    0.645846 *  0.407559 *  0.831877 *  -2.87073    1.000000    
    197 O2    s    0.582010 *  0.231292 *  0.170308 *  -2.87073    1.000000    
    198 O2    s    0.760576 *  0.353866 *  0.500409 *  -2.87073    1.000000    
    199 O3    s    0.569659 *  0.340818 *  0.997372 *  -3.33043    1.000000    
    200 O2    s    0.766195 *  0.413305 *  0.666578 *  -2.87073    1.000000    
    201 O2    s    0.639365 *  0.226179 *  0.335883 *  -2.87073    1.000000    
    202 O2    s    0.407823 *  0.647359 *  0.497099 *  -2.87073    1.000000    
    203 O2    s    0.225961 *  0.586525 *  0.163293 *  -2.87073    1.000000    
    204 O2    s    0.350644 *  0.760568 *  0.829545 *  -2.87073    1.000000    
    205 O2    s    0.118826 *  0.212305 *  0.965889 *  -2.87073    1.000000    
    206 O3    s    0.764528 *  0.900415 *  0.306125 *  -3.33043    1.000000    
    207 O2    s    0.094435 *  0.877237 *  0.635437 *  -2.87073    1.000000    
    208 O2    s    0.872901 *  0.784023 *  0.467431 *  -2.87073    1.000000    
    209 O2    s    0.214563 *  0.088986 *  0.800467 *  -2.87073    1.000000    
    210 O2    s    0.896316 *  0.121476 *  0.133292 *  -2.87073    1.000000    
    211 O2    s    0.215013 *  0.119334 *  0.363177 *  -2.87073    1.000000    
    212 O3    s    0.912235 *  0.805241 *  0.026649 *  -3.33043    1.000000    
    213 O2    s    0.877292 *  0.094513 *  0.693980 *  -2.87073    1.000000    
    214 O2    s    0.781441 *  0.871838 *  0.860121 *  -2.87073    1.000000    
    215 O2    s    0.089008 *  0.214934 *  0.529057 *  -2.87073    1.000000    
    216 O2    s    0.117559 *  0.904535 *  0.194195 *  -2.87073    1.000000    
    217 O3    s    0.925759 *  0.866636 *  0.244256 *  -3.33043    1.000000    
    218 O2    s    0.137364 *  0.068214 *  0.581698 *  -2.87073    1.000000    
    219 O2    s    0.927796 *  0.063437 *  0.913039 *  -2.87073    1.000000    
    220 O2    s    0.068199 *  0.135660 *  0.747151 *  -2.87073    1.000000    
    221 O2    s    0.843386 *  0.929444 *  0.080809 *  -2.87073    1.000000    
    222 O2    s    0.068513 *  0.928473 *  0.416429 *  -2.87073    1.000000    
    223 O2    s    0.909932 *  0.208205 *  0.975597 *  -2.87073    1.000000    
    224 O3    s    0.782701 *  0.686752 *  0.312742 *  -3.33043    1.000000    
    225 O2    s    0.295099 *  0.090538 *  0.646890 *  -2.87073    1.000000    
    226 O2    s    0.085002 *  0.793543 *  0.481909 *  -2.87073    1.000000    
    227 O2    s    0.203695 *  0.290502 *  0.812036 *  -2.87073    1.000000    
    228 O2    s    0.698524 *  0.907234 *  0.150035 *  -2.87073    1.000000    
    229 O2    s    0.194278 *  0.900606 *  0.349697 *  -2.87073    1.000000    
    230 O2    s    0.699073 *  0.787654 *  0.014569 *  -2.87073    1.000000    
    231 O2    s    0.091310 *  0.294952 *  0.682520 *  -2.87073    1.000000    
    232 O2    s    0.793482 *  0.084951 *  0.848004 *  -2.87073    1.000000    
    233 O2    s    0.291734 *  0.207577 *  0.517182 *  -2.87073    1.000000    
    234 O2    s    0.903322 *  0.703716 *  0.182529 *  -2.87073    1.000000    
    235 O2    s    0.316353 *  0.649676 *  0.247589 *  -2.87073    1.000000    
    236 O2    s    0.341255 *  0.670567 *  0.580678 *  -2.87073    1.000000    
    237 O2    s    0.323383 *  0.666137 *  0.912216 *  -2.87073    1.000000    
    238 O2    s    0.670999 *  0.340689 *  0.748894 *  -2.87073    1.000000    
    239 O3    s    0.629459 *  0.312221 *  0.087269 *  -3.33043    1.000000    
    240 O2    s    0.667278 *  0.326915 *  0.417613 *  -2.87073    1.000000    
    241 O2    s    0.370683 *  0.334203 *  0.963988 *  -2.87073    1.000000    
    242 O2    s    0.646943 *  0.029797 *  0.302993 *  -2.87073    1.000000    
    243 O2    s    0.962932 *  0.622438 *  0.634533 *  -2.87073    1.000000    
    244 O2    s    0.618085 *  0.660933 *  0.465164 *  -2.87073    1.000000    
    245 O2    s    0.338032 *  0.957947 *  0.798700 *  -2.87073    1.000000    
    246 O2    s    0.026716 *  0.376992 *  0.130529 *  -2.87073    1.000000    
    247 O2    s    0.333690 *  0.372442 *  0.363683 *  -2.87073    1.000000    
    248 O3    s    0.041284 *  0.662403 *  0.026373 *  -3.33043    1.000000    
    249 O2    s    0.622422 *  0.962804 *  0.695364 *  -2.87073    1.000000    
    250 O2    s    0.656586 *  0.617316 *  0.862041 *  -2.87073    1.000000    
    251 O2    s    0.958296 *  0.338994 *  0.530656 *  -2.87073    1.000000    
    252 O2    s    0.371412 *  0.032307 *  0.198375 *  -2.87073    1.000000    
    253 O3    s    0.766920 *  0.291801 *  0.007489 *  -3.33043    1.000000    
    254 O2    s    0.682219 *  0.458897 *  0.346846 *  -2.87073    1.000000    
    255 O2    s    0.533238 *  0.221939 *  0.678742 *  -2.87073    1.000000    
    256 O2    s    0.217784 *  0.687549 *  0.512002 *  -2.87073    1.000000    
    257 O2    s    0.309860 *  0.529299 *  0.842436 *  -2.87073    1.000000    
    258 O2    s    0.458878 *  0.775927 *  0.179666 *  -2.87073    1.000000    
    259 O2    s    0.295030 *  0.766325 *  0.317394 *  -2.87073    1.000000    
    260 O2    s    0.462927 *  0.685371 *  0.981826 *  -2.87073    1.000000    
    261 O2    s    0.223291 *  0.532968 *  0.650682 *  -2.87073    1.000000    
    262 O2    s    0.688146 *  0.218189 *  0.817634 *  -2.87073    1.000000    
    263 O2    s    0.530001 *  0.314864 *  0.486228 *  -2.87073    1.000000    
    264 O2    s    0.766334 *  0.463875 *  0.150292 *  -2.87073    1.000000    
    265 O1    s    0.773205 *  0.540793 *  0.020784 *  -3.73396    1.000000    
    266 O2    s    0.462913 *  0.253382 *  0.364741 *  -2.87073    1.000000    
    267 O2    s    0.742484 *  0.209987 *  0.695464 *  -2.87073    1.000000    
    268 O2    s    0.205615 *  0.466324 *  0.528614 *  -2.87073    1.000000    
    269 O2    s    0.530639 *  0.738707 *  0.860809 *  -2.87073    1.000000    
    270 O2    s    0.247937 *  0.785203 *  0.195809 *  -2.87073    1.000000    
    271 O2    s    0.516204 *  0.781153 *  0.302559 *  -2.87073    1.000000    
    272 O2    s    0.252728 *  0.463073 *  0.965410 *  -2.87073    1.000000    
    273 O2    s    0.209802 *  0.741203 *  0.634256 *  -2.87073    1.000000    
    274 O2    s    0.466317 *  0.204647 *  0.800778 *  -2.87073    1.000000    
    275 O2    s    0.738755 *  0.534217 *  0.467465 *  -2.87073    1.000000    
    276 O2    s    0.782022 *  0.258571 *  0.130824 *  -2.87073    1.000000    
    277 O2    s    0.235658 *  0.329312 *  0.894779 *  -2.87073    1.000000    
    278 O2    s    0.657306 *  0.900130 *  0.233533 *  -2.87073    1.000000    
    279 O2    s    0.089347 *  0.757838 *  0.564688 *  -2.87073    1.000000    
    280 O2    s    0.753439 *  0.666421 *  0.395868 *  -2.87073    1.000000    
    281 O2    s    0.331647 *  0.088352 *  0.729792 *  -2.87073    1.000000    
    282 O2    s    0.901686 *  0.243415 *  0.061358 *  -2.87073    1.000000    
    283 O2    s    0.328577 *  0.241646 *  0.434289 *  -2.87073    1.000000    
    284 O3    s    0.891834 *  0.666167 *  0.100854 *  -3.33043    1.000000    
    285 O2    s    0.758391 *  0.089635 *  0.765188 *  -2.87073    1.000000    
    286 O2    s    0.665111 *  0.751877 *  0.931318 *  -2.87073    1.000000    
    287 O2    s    0.089073 *  0.332130 *  0.599642 *  -2.87073    1.000000    
    288 O2    s    0.230235 *  0.901915 *  0.266521 *  -2.87073    1.000000    
    289 O2    s    0.574345 *  0.552163 *  0.984788 *  -2.87073    1.000000    
    290 O2    s    0.429082 *  0.014691 *  0.321159 *  -2.87073    1.000000    
    291 O2    s    0.976803 *  0.417458 *  0.653266 *  -2.87073    1.000000    
    292 O2    s    0.412935 *  0.443054 *  0.485434 *  -2.87073    1.000000    
    293 O2    s    0.557320 *  0.971642 *  0.817375 *  -2.87073    1.000000    
    294 O2    s    0.011408 *  0.578231 *  0.146507 *  -2.87073    1.000000    
    295 O2    s    0.549938 *  0.576283 *  0.343383 *  -2.87073    1.000000    
    296 O2    s    0.009761 *  0.441716 *  0.008270 *  -2.87073    1.000000    
    297 O2    s    0.416262 *  0.975140 *  0.676474 *  -2.87073    1.000000    
    298 O2    s    0.438417 *  0.410692 *  0.843758 *  -2.87073    1.000000    
    299 O2    s    0.970876 *  0.557887 *  0.512320 *  -2.87073    1.000000    
    300 O2    s    0.581493 *  0.023577 *  0.181850 *  -2.87073    1.000000    
    301 O2    s    0.567630 *  0.149735 *  0.252589 *  -2.87073    1.000000    
    302 O2    s    0.843142 *  0.421465 *  0.583358 *  -2.87073    1.000000    
    303 O2    s    0.575599 *  0.419562 *  0.914531 *  -2.87073    1.000000    
    304 O2    s    0.420987 *  0.842692 *  0.746551 *  -2.87073    1.000000    
    305 O2    s    0.142390 *  0.571581 *  0.078983 *  -2.87073    1.000000    
    306 O2    s    0.416110 *  0.575373 *  0.413858 *  -2.87073    1.000000    
    307 F     s    0.440362 *  0.897294 *  0.249133 *  -1.56000    1.000000    
    308 F     s    0.094231 *  0.546938 *  0.581535 *  -1.56000    1.000000    
    309 F     s    0.443987 *  0.546114 *  0.912370 *  -1.56000    1.000000    
    310 F     s    0.548156 *  0.094755 *  0.747049 *  -1.56000    1.000000    
    311 F     s    0.848586 *  0.444583 *  0.068648 *  -1.56000    1.000000    
    312 F     s    0.545216 *  0.452923 *  0.414290 *  -1.56000    1.000000    
--------------------------------------------------------------------------------



********************************************************************************
*  General input information                                                   *
********************************************************************************

  Species output for all configurations : 

--------------------------------------------------------------------------------
  Species    Type    Atomic    Atomic    Charge       Radii (Angs)     Library
                     Number     Mass       (e)     Cova   Ionic  VDW   Symbol
--------------------------------------------------------------------------------
    Si       Core       14      28.09   4.000000   1.200  0.000  2.100          
    O1       Core        8      16.00   1.733957   0.730  0.000  1.360          
    O1       Shell       8       0.00  -3.733957   0.730  0.000  1.360          
    O2       Core        8      16.00   0.870733   0.730  0.000  1.360          
    O2       Shell       8       0.00  -2.870733   0.730  0.000  1.360          
    O3       Core        8      16.00   1.330431   0.730  0.000  1.360          
    O3       Shell       8       0.00  -3.330431   0.730  0.000  1.360          
    F        Core        9      19.00   0.560000   0.710  0.000  1.300          
    F        Shell       9       0.00  -1.560000   0.710  0.000  1.300          
    Ge       Core       32      72.61   4.000000   1.170  0.000  1.750          
--------------------------------------------------------------------------------


  Lattice summation method               =    Ewald          (3-D)
                                         =    Parry          (2-D)
                                         =    Saunders et al (1-D)
  Accuracy factor for lattice sums       =   12.000


  Time limit = Infinity

  Maximum range for interatomic potentials =        16.000000 Angstroms

  Taper potentials to zero over   1.0000 Angstroms using polynomial

  General interatomic potentials :

--------------------------------------------------------------------------------
Atom  Types   Potential         A         B         C         D     Cutoffs(Ang)
  1     2                                                            Min    Max 
--------------------------------------------------------------------------------
Si   c O1   s Buckingham    0.132E+04 0.318      10.1      0.00     0.000 16.000
Si   c O2   s Buckingham    0.132E+04 0.318      10.1      0.00     0.000 16.000
Si   c O3   s Buckingham    0.132E+04 0.318      10.1      0.00     0.000 16.000
Ge   c O1   s Buckingham    0.150E+04 0.326      16.8      0.00     0.000 16.000
Ge   c O2   s Buckingham    0.150E+04 0.326      16.8      0.00     0.000 16.000
Ge   c O3   s Buckingham    0.150E+04 0.326      16.8      0.00     0.000 16.000
O1   s O1   s Buckingham    0.228E+05 0.149      10.9      0.00     0.000 16.000
O1   s O2   s Buckingham    0.228E+05 0.149      10.9      0.00     0.000 16.000
O1   s O3   s Buckingham    0.228E+05 0.149      10.9      0.00     0.000 16.000
O2   s O2   s Buckingham    0.228E+05 0.149      10.9      0.00     0.000 16.000
O2   s O3   s Buckingham    0.228E+05 0.149      10.9      0.00     0.000 16.000
O3   s O3   s Buckingham    0.228E+05 0.149      10.9      0.00     0.000 16.000
Si   c F    s Buckingham     977.     0.282      0.00      0.00     0.000 16.000
Ge   c F    s Buckingham     681.     0.320      0.00      0.00     0.000 16.000
F    s F    s Buckingham     540.     0.262      0.00      0.00     0.000 16.000
O1   s F    s Buckingham    0.168E+04 0.268      0.00      0.00     0.000 16.000
O2   s F    s Buckingham    0.168E+04 0.268      0.00      0.00     0.000 16.000
O3   s F    s Buckingham    0.168E+04 0.268      0.00      0.00     0.000 16.000
O2   c O2   s Spring (c-s)   76.0      0.00      0.00      0.00     0.000  0.800
O3   c O3   s Spring (c-s)   128.      0.00      0.00      0.00     0.000  0.800
O1   c O1   s Spring (c-s)   180.      0.00      0.00      0.00     0.000  0.800
F    c F    s Spring (c-s)   33.5      0.00      0.00      0.00     0.000  0.800
--------------------------------------------------------------------------------

  General Three-body potentials :

  Harmonic form:

--------------------------------------------------------------------------------
Atom    Atom    Atom           Force Constants            Theta     Cutoffs  
  1       2       3     (eVrad**-2/eVrad**-3/eVrad**-4)   (deg)  1-2  1-3  2-3
--------------------------------------------------------------------------------
Si    c O1    s O1    s  1.261        0.0000    0.0000   109.470 0.00 0.00 0.00
                                                                 1.90 1.90 3.50
Si    c O1    s O2    s  1.261        0.0000    0.0000   109.470 0.00 0.00 0.00
                                                                 1.90 1.90 3.50
Si    c O2    s O2    s  1.261        0.0000    0.0000   109.470 0.00 0.00 0.00
                                                                 1.90 1.90 3.50
--------------------------------------------------------------------------------

********************************************************************************
*  Output for configuration   1                                                *
********************************************************************************


  Components of energy : 

--------------------------------------------------------------------------------
  Interatomic potentials     =        2060.94444207 eV
  Three-body potentials      =           0.45940496 eV
  Monopole - monopole (real) =       -6610.28715106 eV
  Monopole - monopole (recip)=       -3170.65322270 eV
  Monopole - monopole (total)=       -9780.94037376 eV
  Neutralising energy        =          -6.45792435 eV
--------------------------------------------------------------------------------
  Total lattice energy       =       -7725.99445109 eV
--------------------------------------------------------------------------------
  Total lattice energy       =         -745440.3619 kJ/(mole unit cells)
--------------------------------------------------------------------------------


  Number of variables =      939

  Maximum number of calculations  =          5000
  Maximum Hessian update interval =            10
  Maximum step size               =   0.100000000
  Maximum parameter tolerance     =   0.000010000
  Maximum function  tolerance     =   0.000010000
  Maximum gradient  tolerance     =   0.001000000
  Maximum gradient  component     =   0.010000000

  Symmetry not applied to optimisation

  Cell parameters to be optimised using strains

  Newton-Raphson optimiser to be used

  BFGS hessian update to be used

  Dumpfile to be written after every cycle

  Start of bulk optimisation :

  Cycle:      0 Energy:     -7725.994451  Gnorm:      0.000442  CPU:    2.049
  ** Hessian calculated **
  Cycle:      1 Energy:     -7726.005347  Gnorm:      0.000390  CPU:    6.609
  Cycle:      2 Energy:     -7726.017916  Gnorm:      0.000479  CPU:   10.793
  Cycle:      3 Energy:     -7726.030606  Gnorm:      0.000886  CPU:   14.975
  Cycle:      4 Energy:     -7726.035378  Gnorm:      0.000876  CPU:   19.157
  Cycle:      5 Energy:     -7726.036547  Gnorm:      0.000569  CPU:   23.342
  Cycle:      6 Energy:     -7726.036840  Gnorm:      0.000324  CPU:   27.525
  Cycle:      7 Energy:     -7726.036914  Gnorm:      0.000173  CPU:   31.708
  Cycle:      8 Energy:     -7726.036927  Gnorm:      0.000123  CPU:   34.536
  Cycle:      9 Energy:     -7726.036933  Gnorm:      0.000087  CPU:   37.363
  Cycle:     10 Energy:     -7726.036936  Gnorm:      0.000061  CPU:   40.189
  ** Hessian calculated **
  Cycle:     11 Energy:     -7726.036936  Gnorm:      0.000031  CPU:   44.711


  **** Optimisation achieved ****


  Final energy =   -7726.03693599 eV
  Final Gnorm  =       0.00002264

  Components of energy : 

--------------------------------------------------------------------------------
  Interatomic potentials     =        2061.11098872 eV
  Three-body potentials      =           0.45451170 eV
  Monopole - monopole (real) =       -6611.40175820 eV
  Monopole - monopole (recip)=       -3169.74460325 eV
  Monopole - monopole (total)=       -9781.14636145 eV
  Neutralising energy        =          -6.45607496 eV
--------------------------------------------------------------------------------
  Total lattice energy       =       -7726.03693599 eV
--------------------------------------------------------------------------------
  Total lattice energy       =         -745444.4610 kJ/(mole unit cells)
--------------------------------------------------------------------------------

  Final fractional coordinates of atoms :

--------------------------------------------------------------------------------
   No.  Atomic        x           y          z          Radius
        Label       (Frac)      (Frac)     (Frac)       (Angs) 
--------------------------------------------------------------------------------
     1  Ge    c     0.699600    0.375700    0.033890    0.000000
     2  Si    c     0.596699    0.306164    0.367540    0.000000
     3  Si    c     0.657945    0.280710    0.698469    0.000000
     4  Si    c     0.274815    0.605592    0.531275    0.000000
     5  Si    c     0.363992    0.659314    0.863324    0.000000
     6  Si    c     0.300808    0.689687    0.198755    0.000000
     7  Si    c     0.347661    0.681893    0.299741    0.000000
     8  Si    c     0.311407    0.604317    0.963538    0.000000
     9  Si    c     0.278448    0.661039    0.631978    0.000000
    10  Si    c     0.604297    0.280137    0.799037    0.000000
    11  Si    c     0.654416    0.366878    0.467568    0.000000
    12  Si    c     0.672625    0.306997    0.133025    0.000000
    13  Si    c     0.517616    0.398285    0.966036    0.000000
    14  Si    c     0.555109    0.095469    0.302944    0.000000
    15  Si    c     0.868223    0.454502    0.634094    0.000000
    16  Si    c     0.446308    0.569144    0.465789    0.000000
    17  Si    c     0.399572    0.869456    0.798624    0.000000
    18  Si    c     0.093495    0.519189    0.131480    0.000000
    19  Si    c     0.390421    0.512359    0.364285    0.000000
    20  Si    c     0.102073    0.575989    0.027886    0.000000
    21  Si    c     0.451426    0.871590    0.696853    0.000000
    22  Si    c     0.567853    0.453316    0.863587    0.000000
    23  Si    c     0.865319    0.402428    0.532443    0.000000
    24  Si    c     0.509488    0.098273    0.201127    0.000000
    25  Si    c     0.287310    0.382640    0.848438    0.000000
    26  Si    c     0.581425    0.890268    0.186513    0.000000
    27  Si    c     0.073559    0.682481    0.517797    0.000000
    28  Si    c     0.669895    0.580733    0.349898    0.000000
    29  Si    c     0.379759    0.079775    0.683135    0.000000
    30  Si    c     0.886652    0.289743    0.011815    0.000000
    31  Si    c     0.375397    0.289678    0.481944    0.000000
    32  Si    c     0.878592    0.591024    0.145880    0.000000
    33  Si    c     0.681122    0.079218    0.813020    0.000000
    34  Si    c     0.588533    0.680143    0.978678    0.000000
    35  Si    c     0.077506    0.382978    0.647339    0.000000
    36  Si    c     0.273200    0.884063    0.314293    0.000000
    37  Si    c     0.239078    0.324853    0.948862    0.000000
    38  Si    c     0.629522    0.893080    0.287907    0.000000
    39  Si    c     0.069275    0.733339    0.618460    0.000000
    40  Si    c     0.725256    0.646639    0.449940    0.000000
    41  Si    c     0.322482    0.070627    0.783816    0.000000
    42  Si    c     0.889240    0.238569    0.114921    0.000000
    43  Si    c     0.316959    0.236177    0.381397    0.000000
    44  Ge    c     0.898000    0.658449    0.042640    0.000000
    45  Si    c     0.730709    0.073125    0.712331    0.000000
    46  Si    c     0.645118    0.731681    0.878032    0.000000
    47  Si    c     0.066088    0.324564    0.546570    0.000000
    48  Si    c     0.228674    0.896818    0.213233    0.000000
    49  Si    c     0.958971    0.112635    0.962986    0.000000
    50  Ge    c     0.851288    0.832034    0.299508    0.000000
    51  Si    c     0.131005    0.012843    0.632783    0.000000
    52  Si    c     0.006137    0.863356    0.467060    0.000000
    53  Si    c     0.106025    0.134036    0.798177    0.000000
    54  Si    c     0.826543    0.959596    0.132168    0.000000
    55  Si    c     0.099763    0.956233    0.366195    0.000000
    56  Si    c     0.834073    0.874675    0.030493    0.000000
    57  Si    c     0.010629    0.134901    0.697500    0.000000
    58  Si    c     0.862542    0.011662    0.863060    0.000000
    59  Si    c     0.127459    0.106860    0.532144    0.000000
    60  Si    c     0.951136    0.839144    0.196434    0.000000
    61  O2    c     0.903960    0.999677    0.999316    0.000000
    62  O3    c     0.980418    0.921275    0.334305    0.000000
    63  O2    c     0.051332    0.054851    0.664931    0.000000
    64  O2    c     0.047645    0.985102    0.499482    0.000000
    65  O2    c     0.984151    0.054645    0.830592    0.000000
    66  O2    c     0.912204    0.918307    0.161878    0.000000
    67  O2    c     0.310424    0.557899    0.331777    0.000000
    68  O2    c     0.402805    0.746609    0.664245    0.000000
    69  O2    c     0.230315    0.644738    0.997101    0.000000
    70  O2    c     0.643656    0.403265    0.831497    0.000000
    71  O2    c     0.561652    0.225707    0.170099    0.000000
    72  O2    c     0.737822    0.327868    0.500520    0.000000
    73  O3    c     0.562239    0.323873    0.998128    0.000000
    74  O2    c     0.743134    0.405275    0.666425    0.000000
    75  O2    c     0.633278    0.218902    0.335891    0.000000
    76  O2    c     0.397026    0.644999    0.498001    0.000000
    77  O2    c     0.216734    0.568199    0.164923    0.000000
    78  O2    c     0.324399    0.743677    0.830809    0.000000
    79  O2    c     0.113585    0.196480    0.968703    0.000000
    80  O3    c     0.752359    0.894794    0.309654    0.000000
    81  O2    c     0.068805    0.858944    0.638430    0.000000
    82  O2    c     0.851041    0.773425    0.470276    0.000000
    83  O2    c     0.195924    0.069931    0.803659    0.000000
    84  O2    c     0.888673    0.114193    0.136544    0.000000
    85  O2    c     0.192800    0.109716    0.361030    0.000000
    86  O3    c     0.918231    0.807352    0.026579    0.000000
    87  O2    c     0.856361    0.072694    0.692121    0.000000
    88  O2    c     0.771948    0.857596    0.857831    0.000000
    89  O2    c     0.063790    0.197142    0.526841    0.000000
    90  O2    c     0.105817    0.900637    0.191797    0.000000
    91  O3    c     0.910493    0.859149    0.245395    0.000000
    92  O2    c     0.115826    0.052128    0.582293    0.000000
    93  O2    c     0.916488    0.050750    0.913649    0.000000
    94  O2    c     0.051622    0.120742    0.747743    0.000000
    95  O2    c     0.828770    0.920618    0.080994    0.000000
    96  O2    c     0.049949    0.916515    0.416952    0.000000
    97  O2    c     0.899690    0.204250    0.972363    0.000000
    98  O3    c     0.765457    0.669490    0.310161    0.000000
    99  O2    c     0.282987    0.082486    0.644755    0.000000
   100  O2    c     0.073881    0.780597    0.479746    0.000000
   101  O2    c     0.189310    0.285480    0.809873    0.000000
   102  O2    c     0.678058    0.889416    0.148418    0.000000
   103  O2    c     0.175264    0.881315    0.352542    0.000000
   104  O2    c     0.685053    0.776132    0.017484    0.000000
   105  O2    c     0.080629    0.286498    0.685402    0.000000
   106  O2    c     0.779742    0.080314    0.851307    0.000000
   107  O2    c     0.279316    0.191665    0.520354    0.000000
   108  O2    c     0.882568    0.686251    0.186174    0.000000
   109  O2    c     0.295587    0.627724    0.248585    0.000000
   110  O2    c     0.334221    0.662197    0.581427    0.000000
   111  O2    c     0.305699    0.659557    0.913363    0.000000
   112  O2    c     0.659821    0.337716    0.748739    0.000000
   113  O3    c     0.609916    0.302816    0.085153    0.000000
   114  O2    c     0.653951    0.307430    0.417838    0.000000
   115  O2    c     0.359774    0.313125    0.966523    0.000000
   116  O2    c     0.640653    0.025949    0.305307    0.000000
   117  O2    c     0.937259    0.610614    0.636930    0.000000
   118  O2    c     0.602993    0.656765    0.468089    0.000000
   119  O2    c     0.312200    0.937994    0.801788    0.000000
   120  O2    c     0.019510    0.363316    0.133632    0.000000
   121  O2    c     0.304505    0.356141    0.362099    0.000000
   122  O3    c     0.042466    0.668572    0.026363    0.000000
   123  O2    c     0.607895    0.940902    0.693772    0.000000
   124  O2    c     0.653969    0.609520    0.859371    0.000000
   125  O2    c     0.933178    0.314690    0.528430    0.000000
   126  O2    c     0.353416    0.028398    0.195707    0.000000
   127  O3    c     0.752257    0.280964    0.004401    0.000000
   128  O2    c     0.670929    0.447281    0.344023    0.000000
   129  O2    c     0.514594    0.213383    0.675686    0.000000
   130  O2    c     0.206355    0.680919    0.509354    0.000000
   131  O2    c     0.289421    0.517143    0.839953    0.000000
   132  O2    c     0.444923    0.758965    0.177138    0.000000
   133  O2    c     0.270641    0.748720    0.320999    0.000000
   134  O2    c     0.455274    0.682235    0.985529    0.000000
   135  O2    c     0.211617    0.517767    0.654218    0.000000
   136  O2    c     0.680115    0.212122    0.820923    0.000000
   137  O2    c     0.510960    0.293247    0.489733    0.000000
   138  O2    c     0.747945    0.454138    0.153400    0.000000
   139  O1    c     0.764680    0.540025    0.017658    0.000000
   140  O2    c     0.440884    0.232443    0.362383    0.000000
   141  O2    c     0.732521    0.199807    0.692949    0.000000
   142  O2    c     0.192400    0.449450    0.526507    0.000000
   143  O2    c     0.520616    0.735443    0.858789    0.000000
   144  O2    c     0.224820    0.769295    0.193615    0.000000
   145  O2    c     0.502781    0.765920    0.306269    0.000000
   146  O2    c     0.235776    0.448386    0.969242    0.000000
   147  O2    c     0.196168    0.734161    0.637394    0.000000
   148  O2    c     0.448072    0.196563    0.803730    0.000000
   149  O2    c     0.728106    0.523047    0.470196    0.000000
   150  O2    c     0.764516    0.242520    0.132248    0.000000
   151  O2    c     0.215390    0.308549    0.894596    0.000000
   152  O2    c     0.650908    0.888714    0.233578    0.000000
   153  O2    c     0.070452    0.752644    0.564161    0.000000
   154  O2    c     0.743650    0.662941    0.395301    0.000000
   155  O2    c     0.305028    0.073788    0.729484    0.000000
   156  O2    c     0.893919    0.228313    0.060597    0.000000
   157  O2    c     0.300147    0.218739    0.435708    0.000000
   158  O3    c     0.882403    0.667553    0.101438    0.000000
   159  O2    c     0.750900    0.075233    0.766622    0.000000
   160  O2    c     0.664503    0.749635    0.932363    0.000000
   161  O2    c     0.070090    0.308012    0.600824    0.000000
   162  O2    c     0.205285    0.891564    0.267479    0.000000
   163  O2    c     0.569233    0.540308    0.988242    0.000000
   164  O2    c     0.412461    0.008571    0.324506    0.000000
   165  O2    c     0.953309    0.398039    0.656783    0.000000
   166  O2    c     0.390027    0.429179    0.489597    0.000000
   167  O2    c     0.541399    0.954000    0.821566    0.000000
   168  O2    c     0.002273    0.571601    0.150022    0.000000
   169  O2    c     0.530855    0.568363    0.340647    0.000000
   170  O2    c     0.005706    0.436295    0.006254    0.000000
   171  O2    c     0.393296    0.954779    0.673781    0.000000
   172  O2    c     0.426113    0.394981    0.840386    0.000000
   173  O2    c     0.947388    0.543328    0.509023    0.000000
   174  O2    c     0.572061    0.018554    0.178869    0.000000
   175  O2    c     0.556713    0.150345    0.252364    0.000000
   176  O2    c     0.813578    0.401211    0.583363    0.000000
   177  O2    c     0.570221    0.403955    0.914444    0.000000
   178  O2    c     0.398701    0.817684    0.747562    0.000000
   179  O2    c     0.141589    0.566840    0.080302    0.000000
   180  O2    c     0.391947    0.567183    0.414856    0.000000
   181  F     c     0.425118    0.886766    0.249508    0.000000
   182  F     c     0.074864    0.532209    0.581853    0.000000
   183  F     c     0.433982    0.534049    0.912879    0.000000
   184  F     c     0.530421    0.079332    0.747522    0.000000
   185  F     c     0.850965    0.441251    0.071264    0.000000
   186  F     c     0.525129    0.438936    0.414999    0.000000
   187  O2    s     0.902305    0.998480    0.998663    0.000000
   188  O3    s     0.982105    0.917228    0.334729    0.000000
   189  O2    s     0.055729    0.059071    0.664957    0.000000
   190  O2    s     0.051890    0.985088    0.499508    0.000000
   191  O2    s     0.984148    0.058716    0.830607    0.000000
   192  O2    s     0.906899    0.914353    0.162309    0.000000
   193  O2    s     0.322300    0.566012    0.331763    0.000000
   194  O2    s     0.394938    0.750570    0.664240    0.000000
   195  O2    s     0.224870    0.633298    0.996963    0.000000
   196  O2    s     0.631853    0.395613    0.831396    0.000000
   197  O2    s     0.567731    0.220714    0.169495    0.000000
   198  O2    s     0.742270    0.339614    0.500365    0.000000
   199  O3    s     0.566811    0.335542    0.997108    0.000000
   200  O2    s     0.747412    0.397629    0.666355    0.000000
   201  O2    s     0.621358    0.215015    0.335720    0.000000
   202  O2    s     0.389672    0.633167    0.498076    0.000000
   203  O2    s     0.212217    0.575261    0.164817    0.000000
   204  O2    s     0.336223    0.748156    0.830785    0.000000
   205  O2    s     0.109692    0.200483    0.966097    0.000000
   206  O3    s     0.747962    0.889466    0.306624    0.000000
   207  O2    s     0.075428    0.862227    0.635795    0.000000
   208  O2    s     0.854491    0.769861    0.467853    0.000000
   209  O2    s     0.199470    0.076775    0.801058    0.000000
   210  O2    s     0.882280    0.111108    0.133858    0.000000
   211  O2    s     0.196107    0.106769    0.363740    0.000000
   212  O3    s     0.908001    0.802962    0.028194    0.000000
   213  O2    s     0.859810    0.079358    0.694749    0.000000
   214  O2    s     0.768578    0.861083    0.860436    0.000000
   215  O2    s     0.070750    0.200671    0.529395    0.000000
   216  O2    s     0.102434    0.893807    0.194488    0.000000
   217  O3    s     0.909718    0.854633    0.244829    0.000000
   218  O2    s     0.118851    0.053921    0.582278    0.000000
   219  O2    s     0.915239    0.053361    0.913544    0.000000
   220  O2    s     0.053098    0.123855    0.747718    0.000000
   221  O2    s     0.829129    0.920099    0.081385    0.000000
   222  O2    s     0.050581    0.914921    0.416940    0.000000
   223  O2    s     0.904782    0.203421    0.975530    0.000000
   224  O3    s     0.763488    0.674498    0.313046    0.000000
   225  O2    s     0.276625    0.074795    0.647371    0.000000
   226  O2    s     0.066588    0.779371    0.482306    0.000000
   227  O2    s     0.190377    0.279168    0.812544    0.000000
   228  O2    s     0.683842    0.896980    0.150655    0.000000
   229  O2    s     0.177500    0.889427    0.349989    0.000000
   230  O2    s     0.690866    0.776612    0.014843    0.000000
   231  O2    s     0.072912    0.280363    0.682779    0.000000
   232  O2    s     0.778450    0.072909    0.848639    0.000000
   233  O2    s     0.273143    0.192795    0.517644    0.000000
   234  O2    s     0.889285    0.692668    0.183292    0.000000
   235  O2    s     0.301361    0.639484    0.248673    0.000000
   236  O2    s     0.322491    0.656295    0.581435    0.000000
   237  O2    s     0.312126    0.653919    0.913396    0.000000
   238  O2    s     0.653943    0.325953    0.748710    0.000000
   239  O3    s     0.622359    0.308085    0.086807    0.000000
   240  O2    s     0.648090    0.313378    0.417715    0.000000
   241  O2    s     0.362210    0.322897    0.964513    0.000000
   242  O2    s     0.630377    0.019273    0.303195    0.000000
   243  O2    s     0.944010    0.607439    0.634692    0.000000
   244  O2    s     0.599616    0.646696    0.465945    0.000000
   245  O2    s     0.322197    0.944823    0.799581    0.000000
   246  O2    s     0.013671    0.366558    0.131464    0.000000
   247  O2    s     0.314693    0.359802    0.364346    0.000000
   248  O3    s     0.037265    0.658517    0.027777    0.000000
   249  O2    s     0.604654    0.947617    0.696041    0.000000
   250  O2    s     0.644254    0.606362    0.861757    0.000000
   251  O2    s     0.940042    0.324701    0.530731    0.000000
   252  O2    s     0.356368    0.021710    0.198123    0.000000
   253  O3    s     0.763115    0.288460    0.007302    0.000000
   254  O2    s     0.663041    0.446569    0.347147    0.000000
   255  O2    s     0.515118    0.206228    0.678839    0.000000
   256  O2    s     0.199438    0.673353    0.512519    0.000000
   257  O2    s     0.296827    0.517576    0.843261    0.000000
   258  O2    s     0.444193    0.765436    0.180375    0.000000
   259  O2    s     0.278818    0.755936    0.318068    0.000000
   260  O2    s     0.454228    0.673955    0.982497    0.000000
   261  O2    s     0.204360    0.518297    0.651171    0.000000
   262  O2    s     0.672445    0.205114    0.817815    0.000000
   263  O2    s     0.511421    0.300481    0.486592    0.000000
   264  O2    s     0.754407    0.454254    0.150585    0.000000
   265  O1    s     0.771918    0.539509    0.020747    0.000000
   266  O2    s     0.443889    0.240737    0.364965    0.000000
   267  O2    s     0.724497    0.194422    0.695582    0.000000
   268  O2    s     0.187242    0.452174    0.529129    0.000000
   269  O2    s     0.517820    0.727065    0.861311    0.000000
   270  O2    s     0.233199    0.774670    0.196220    0.000000
   271  O2    s     0.499989    0.770821    0.303615    0.000000
   272  O2    s     0.243949    0.451446    0.966541    0.000000
   273  O2    s     0.190840    0.726368    0.634802    0.000000
   274  O2    s     0.450747    0.191520    0.801108    0.000000
   275  O2    s     0.719974    0.520001    0.467750    0.000000
   276  O2    s     0.769105    0.248660    0.130402    0.000000
   277  O2    s     0.225397    0.318054    0.895453    0.000000
   278  O2    s     0.641476    0.889250    0.234175    0.000000
   279  O2    s     0.070653    0.743202    0.565039    0.000000
   280  O2    s     0.734384    0.653100    0.396347    0.000000
   281  O2    s     0.314720    0.074076    0.730357    0.000000
   282  O2    s     0.892727    0.235496    0.061613    0.000000
   283  O2    s     0.309864    0.228088    0.434795    0.000000
   284  O3    s     0.883104    0.658833    0.101626    0.000000
   285  O2    s     0.741455    0.075423    0.765714    0.000000
   286  O2    s     0.654582    0.740530    0.931427    0.000000
   287  O2    s     0.070435    0.317629    0.599913    0.000000
   288  O2    s     0.214692    0.891308    0.266647    0.000000
   289  O2    s     0.565900    0.541545    0.984923    0.000000
   290  O2    s     0.412412    0.004081    0.321122    0.000000
   291  O2    s     0.958001    0.402489    0.653391    0.000000
   292  O2    s     0.394500    0.428707    0.486276    0.000000
   293  O2    s     0.541688    0.958897    0.818230    0.000000
   294  O2    s     0.998920    0.567873    0.147573    0.000000
   295  O2    s     0.530994    0.563713    0.344082    0.000000
   296  O2    s     0.003463    0.436056    0.009165    0.000000
   297  O2    s     0.398054    0.959732    0.677185    0.000000
   298  O2    s     0.425907    0.399890    0.843671    0.000000
   299  O2    s     0.952591    0.543616    0.512418    0.000000
   300  O2    s     0.566445    0.012989    0.182000    0.000000
   301  O2    s     0.551559    0.139150    0.252261    0.000000
   302  O2    s     0.824667    0.406858    0.583289    0.000000
   303  O2    s     0.564742    0.408687    0.914160    0.000000
   304  O2    s     0.404260    0.828632    0.747569    0.000000
   305  O2    s     0.132521    0.562673    0.080485    0.000000
   306  O2    s     0.397391    0.561727    0.414866    0.000000
   307  F     s     0.424790    0.886288    0.249405    0.000000
   308  F     s     0.075216    0.532374    0.581782    0.000000
   309  F     s     0.433278    0.534586    0.912789    0.000000
   310  F     s     0.530662    0.079778    0.747446    0.000000
   311  F     s     0.841923    0.438819    0.068916    0.000000
   312  F     s     0.525460    0.438907    0.414869    0.000000
--------------------------------------------------------------------------------

  Final Cartesian lattice vectors (Angstroms) :

       11.979643    0.001407   -0.005717
       -6.047562   10.377195    0.012391
       -0.134158   -0.025845   29.467764


  Final cell parameters and derivatives :

--------------------------------------------------------------------------------
       a           11.979645 Angstrom     dE/de1(xx)     0.001973 eV/strain
       b           12.010800 Angstrom     dE/de2(yy)     0.001115 eV/strain
       c           29.468080 Angstrom     dE/de3(zz)     0.002297 eV/strain
       alpha       89.852969 Degrees      dE/de4(yz)    -0.000347 eV/strain
       beta        90.288197 Degrees      dE/de5(xz)     0.000104 eV/strain
       gamma      120.225814 Degrees      dE/de6(xy)     0.000224 eV/strain
--------------------------------------------------------------------------------

  Primitive cell volume =          3663.533289 Angs**3

  Density of cell =      1.746427 g/cm**3

  Non-primitive cell volume =          3663.533289 Angs**3


  Final internal derivatives :

--------------------------------------------------------------------------------
   No.  Atomic          a             b             c           Radius
        Label          (eV)          (eV)          (eV)        (eV/Angs)
--------------------------------------------------------------------------------
      1 Ge    c       0.000000      0.000000      0.000000      0.000000
      2 Si    c      -0.000021      0.000252      0.000512      0.000000
      3 Si    c       0.000042      0.000041     -0.000466      0.000000
      4 Si    c       0.000135      0.000067      0.000068      0.000000
      5 Si    c       0.000193      0.000008      0.000047      0.000000
      6 Si    c       0.000323     -0.000014      0.000526      0.000000
      7 Si    c       0.000271      0.000171     -0.000275      0.000000
      8 Si    c       0.000683     -0.000345     -0.000722      0.000000
      9 Si    c       0.000123      0.000083     -0.000213      0.000000
     10 Si    c      -0.000069     -0.000346     -0.000375      0.000000
     11 Si    c       0.000101      0.000028      0.000106      0.000000
     12 Si    c       0.000688     -0.000417      0.008062      0.000000
     13 Si    c      -0.002210      0.001985     -0.005991      0.000000
     14 Si    c      -0.000051     -0.000047     -0.000232      0.000000
     15 Si    c       0.000018     -0.000082     -0.000072      0.000000
     16 Si    c       0.000152      0.000052     -0.000028      0.000000
     17 Si    c       0.000146      0.000162      0.000311      0.000000
     18 Si    c       0.000432     -0.000012      0.001315      0.000000
     19 Si    c       0.000241      0.000148      0.000290      0.000000
     20 Si    c      -0.000200     -0.000742     -0.000137      0.000000
     21 Si    c       0.000145      0.000078      0.000138      0.000000
     22 Si    c      -0.000346      0.000346     -0.000385      0.000000
     23 Si    c       0.000064      0.000027      0.000004      0.000000
     24 Si    c      -0.000172     -0.000124      0.000803      0.000000
     25 Si    c       0.000202     -0.000113     -0.000328      0.000000
     26 Si    c       0.000248     -0.000113     -0.000009      0.000000
     27 Si    c       0.000139      0.000131     -0.000025      0.000000
     28 Si    c       0.000193      0.000194     -0.000158      0.000000
     29 Si    c      -0.000025      0.000056     -0.000171      0.000000
     30 Si    c       0.000764      0.000247     -0.000948      0.000000
     31 Si    c       0.000119     -0.000065      0.000051      0.000000
     32 Si    c       0.000368     -0.000158      0.001811      0.000000
     33 Si    c       0.000035     -0.000096      0.000246      0.000000
     34 Si    c      -0.000439      0.000101     -0.000753      0.000000
     35 Si    c       0.000031     -0.000079     -0.000126      0.000000
     36 Si    c       0.000091      0.000179     -0.000164      0.000000
     37 Si    c      -0.000086      0.000070      0.000094      0.000000
     38 Si    c       0.000104     -0.000016     -0.000173      0.000000
     39 Si    c       0.000128     -0.000042     -0.000322      0.000000
     40 Si    c       0.000124      0.000106     -0.000107      0.000000
     41 Si    c       0.000058      0.000105      0.000165      0.000000
     42 Si    c       0.000785     -0.000501      0.001356      0.000000
     43 Si    c       0.000167     -0.000009      0.000246      0.000000
     44 Ge    c      -0.000213     -0.000554     -0.004237      0.000000
     45 Si    c       0.000052     -0.000021      0.000046      0.000000
     46 Si    c      -0.000014      0.000176     -0.000223      0.000000
     47 Si    c       0.000046      0.000070      0.000212      0.000000
     48 Si    c      -0.000028      0.000125      0.000188      0.000000
     49 Si    c       0.000035      0.000068     -0.001121      0.000000
     50 Ge    c       0.000170      0.000050      0.000175      0.000000
     51 Si    c       0.000126      0.000096     -0.000208      0.000000
     52 Si    c       0.000112      0.000000     -0.000246      0.000000
     53 Si    c       0.000141     -0.000039      0.000343      0.000000
     54 Si    c      -0.000170      0.000247      0.000814      0.000000
     55 Si    c       0.000058      0.000076      0.000308      0.000000
     56 Si    c      -0.000336      0.001680      0.000621      0.000000
     57 Si    c       0.000001      0.000047     -0.000786      0.000000
     58 Si    c       0.000154      0.000131     -0.000432      0.000000
     59 Si    c       0.000202      0.000060      0.000250      0.000000
     60 Si    c       0.000170      0.000201     -0.000128      0.000000
     61 O2    c       0.000105     -0.000105      0.000681      0.000000
     62 O3    c       0.000247      0.000136     -0.000011      0.000000
     63 O2    c       0.000080      0.000007     -0.000003      0.000000
     64 O2    c       0.000164      0.000055      0.000070      0.000000
     65 O2    c       0.000073     -0.000083      0.000081      0.000000
     66 O2    c       0.000077      0.000094      0.000260      0.000000
     67 O2    c       0.000137      0.000134     -0.000114      0.000000
     68 O2    c      -0.000070      0.000009     -0.000025      0.000000
     69 O2    c       0.000225      0.000512     -0.000374      0.000000
     70 O2    c       0.000127      0.000184      0.000095      0.000000
     71 O2    c      -0.000407     -0.000309      0.001232      0.000000
     72 O2    c       0.000212      0.000131      0.000090      0.000000
     73 O3    c      -0.001075     -0.003468      0.001944      0.000000
     74 O2    c       0.000197     -0.000095     -0.000014      0.000000
     75 O2    c       0.000131      0.000033     -0.000078      0.000000
     76 O2    c       0.000091     -0.000048      0.000107      0.000000
     77 O2    c       0.000059     -0.000135     -0.000491      0.000000
     78 O2    c      -0.000005      0.000192     -0.000287      0.000000
     79 O2    c       0.001408     -0.000063      0.000121      0.000000
     80 O3    c      -0.000101      0.000210     -0.000349      0.000000
     81 O2    c       0.000113     -0.000074     -0.000155      0.000000
     82 O2    c       0.000262      0.000017     -0.000136      0.000000
     83 O2    c       0.000082      0.000096     -0.000227      0.000000
     84 O2    c       0.000082     -0.000190      0.000002      0.000000
     85 O2    c       0.000189      0.000165      0.000129      0.000000
     86 O3    c       0.004719     -0.003594     -0.001670      0.000000
     87 O2    c      -0.000074      0.000031      0.000077      0.000000
     88 O2    c       0.000085      0.000019      0.000148      0.000000
     89 O2    c       0.000201      0.000045      0.000174      0.000000
     90 O2    c       0.000150     -0.000013      0.000456      0.000000
     91 O3    c       0.000299     -0.000073     -0.000639      0.000000
     92 O2    c       0.000099      0.000069     -0.000016      0.000000
     93 O2    c       0.000026     -0.000341     -0.002757      0.000000
     94 O2    c       0.000223     -0.000121      0.001203      0.000000
     95 O2    c      -0.000539      0.001094      0.005299      0.000000
     96 O2    c       0.000114      0.000016      0.000252      0.000000
     97 O2    c      -0.001769      0.001497     -0.000181      0.000000
     98 O3    c       0.000080     -0.000170      0.000448      0.000000
     99 O2    c       0.000052     -0.000049      0.000217      0.000000
    100 O2    c       0.000042      0.000030      0.000362      0.000000
    101 O2    c       0.000083     -0.000028     -0.000043      0.000000
    102 O2    c       0.000187      0.000198      0.000059      0.000000
    103 O2    c       0.000345     -0.000040     -0.000276      0.000000
    104 O2    c      -0.003436      0.000459     -0.000940      0.000000
    105 O2    c       0.000024      0.000171     -0.000377      0.000000
    106 O2    c      -0.000007      0.000062     -0.000188      0.000000
    107 O2    c       0.000028      0.000110     -0.000296      0.000000
    108 O2    c       0.000167      0.000109      0.000328      0.000000
    109 O2    c       0.000080      0.000166     -0.000052      0.000000
    110 O2    c      -0.000053     -0.000005      0.000198      0.000000
    111 O2    c       0.000177     -0.000057     -0.000112      0.000000
    112 O2    c       0.000090      0.000013     -0.000231      0.000000
    113 O3    c      -0.003481     -0.001176     -0.000451      0.000000
    114 O2    c       0.000013      0.000155     -0.000122      0.000000
    115 O2    c      -0.001236      0.000370     -0.000222      0.000000
    116 O2    c       0.000077      0.000135      0.000010      0.000000
    117 O2    c       0.000175      0.000004     -0.000181      0.000000
    118 O2    c       0.000089     -0.000033     -0.000099      0.000000
    119 O2    c       0.000140      0.000044     -0.000171      0.000000
    120 O2    c       0.000593      0.000083      0.000512      0.000000
    121 O2    c       0.000208     -0.000025      0.000123      0.000000
    122 O3    c       0.000230      0.001206     -0.000923      0.000000
    123 O2    c      -0.000045      0.000071      0.000128      0.000000
    124 O2    c      -0.000023     -0.000082      0.000286      0.000000
    125 O2    c       0.000208      0.000120      0.000198      0.000000
    126 O2    c       0.000137     -0.000065      0.000273      0.000000
    127 O3    c       0.000035     -0.000690     -0.000958      0.000000
    128 O2    c       0.000041      0.000142      0.000149      0.000000
    129 O2    c       0.000155     -0.000068      0.000277      0.000000
    130 O2    c       0.000031     -0.000012      0.000295      0.000000
    131 O2    c       0.000113      0.000139      0.000184      0.000000
    132 O2    c       0.000099      0.000137      0.000238      0.000000
    133 O2    c       0.000160      0.000159     -0.000063      0.000000
    134 O2    c       0.000577     -0.000238     -0.000115      0.000000
    135 O2    c      -0.000006      0.000052     -0.000217      0.000000
    136 O2    c       0.000067      0.000053     -0.000136      0.000000
    137 O2    c       0.000153      0.000148     -0.000303      0.000000
    138 O2    c      -0.000077      0.000559     -0.000137      0.000000
    139 O1    c      -0.001583     -0.001480     -0.001875      0.000000
    140 O2    c       0.000187      0.000137      0.000126      0.000000
    141 O2    c      -0.000015      0.000009      0.000142      0.000000
    142 O2    c       0.000034      0.000050      0.000201      0.000000
    143 O2    c       0.000147     -0.000098      0.000232      0.000000
    144 O2    c       0.000098      0.000137      0.000209      0.000000
    145 O2    c       0.000017      0.000134     -0.000034      0.000000
    146 O2    c       0.000188     -0.000043     -0.000062      0.000000
    147 O2    c      -0.000008     -0.000030     -0.000189      0.000000
    148 O2    c       0.000161      0.000038     -0.000165      0.000000
    149 O2    c       0.000057      0.000057     -0.000135      0.000000
    150 O2    c       0.000191     -0.000237      0.000171      0.000000
    151 O2    c       0.000107     -0.000052      0.000647      0.000000
    152 O2    c      -0.000010      0.000151     -0.000128      0.000000
    153 O2    c       0.000123     -0.000113      0.000342      0.000000
    154 O2    c       0.000071     -0.000025      0.000178      0.000000
    155 O2    c       0.000134     -0.000021      0.000134      0.000000
    156 O2    c       0.000452     -0.000544     -0.001506      0.000000
    157 O2    c       0.000206      0.000133     -0.000201      0.000000
    158 O3    c      -0.000206      0.001248      0.004323      0.000000
    159 O2    c      -0.000021      0.000079     -0.000231      0.000000
    160 O2    c      -0.000029      0.000088      0.000295      0.000000
    161 O2    c       0.000050      0.000147     -0.000243      0.000000
    162 O2    c       0.000201      0.000018     -0.000157      0.000000
    163 O2    c      -0.000122      0.000741      0.000124      0.000000
    164 O2    c       0.000239      0.000074     -0.000149      0.000000
    165 O2    c       0.000153      0.000019     -0.000324      0.000000
    166 O2    c       0.000141      0.000190     -0.000204      0.000000
    167 O2    c       0.000033      0.000091     -0.000273      0.000000
    168 O2    c       0.000275      0.000006      0.000456      0.000000
    169 O2    c       0.000207     -0.000021      0.000304      0.000000
    170 O2    c       0.000383     -0.000200     -0.000695      0.000000
    171 O2    c       0.000101      0.000001      0.000200      0.000000
    172 O2    c       0.000237      0.000034      0.000452      0.000000
    173 O2    c       0.000149     -0.000051      0.000281      0.000000
    174 O2    c       0.000166     -0.000075      0.000156      0.000000
    175 O2    c       0.000122     -0.000013      0.000088      0.000000
    176 O2    c       0.000230      0.000036     -0.000074      0.000000
    177 O2    c      -0.000081      0.000397     -0.002104      0.000000
    178 O2    c       0.000068      0.000064     -0.000132      0.000000
    179 O2    c       0.000654     -0.000092      0.000676      0.000000
    180 O2    c       0.000233     -0.000022      0.000296      0.000000
    181 F     c       0.000147      0.000065     -0.000022      0.000000
    182 F     c       0.000090      0.000025     -0.000003      0.000000
    183 F     c       0.000209     -0.000098      0.000129      0.000000
    184 F     c       0.000061      0.000021     -0.000057      0.000000
    185 F     c       0.000004      0.000284     -0.001183      0.000000
    186 F     c       0.000151      0.000078      0.000003      0.000000
    187 O2    s       0.001068     -0.000097      0.000136      0.000000
    188 O3    s       0.000155      0.000171      0.000270      0.000000
    189 O2    s       0.000084     -0.000006     -0.000495      0.000000
    190 O2    s       0.000269      0.000005      0.000028      0.000000
    191 O2    s       0.000073      0.000094     -0.000094      0.000000
    192 O2    s       0.000175     -0.000022      0.000245      0.000000
    193 O2    s       0.000350      0.000110     -0.000162      0.000000
    194 O2    s      -0.000081      0.000174     -0.000133      0.000000
    195 O2    s       0.000050     -0.000120     -0.000826      0.000000
    196 O2    s       0.000122      0.000090      0.000384      0.000000
    197 O2    s       0.000321     -0.000216      0.002095      0.000000
    198 O2    s       0.000110      0.000143      0.000088      0.000000
    199 O3    s       0.001423      0.002677      0.002028      0.000000
    200 O2    s       0.000241     -0.000183      0.000013      0.000000
    201 O2    s       0.000077      0.000056     -0.000069      0.000000
    202 O2    s       0.000138      0.000042     -0.000103      0.000000
    203 O2    s       0.000143      0.000123     -0.000019      0.000000
    204 O2    s       0.000073      0.000105     -0.000228      0.000000
    205 O2    s       0.001483      0.000145     -0.000744      0.000000
    206 O3    s       0.000085      0.000191     -0.000149      0.000000
    207 O2    s       0.000207     -0.000080     -0.000292      0.000000
    208 O2    s       0.000253     -0.000032     -0.000253      0.000000
    209 O2    s       0.000083      0.000055     -0.000029      0.000000
    210 O2    s       0.000149     -0.000088      0.001133      0.000000
    211 O2    s       0.000212      0.000125      0.000269      0.000000
    212 O3    s       0.001951     -0.001143     -0.002769      0.000000
    213 O2    s      -0.000116      0.000038     -0.000125      0.000000
    214 O2    s       0.000131      0.000025     -0.000020      0.000000
    215 O2    s       0.000221      0.000013      0.000311      0.000000
    216 O2    s       0.000069      0.000075      0.000217      0.000000
    217 O3    s       0.000203      0.000212     -0.000378      0.000000
    218 O2    s       0.000164      0.000077     -0.000116      0.000000
    219 O2    s       0.000036     -0.000398     -0.001985      0.000000
    220 O2    s       0.000114      0.000050      0.000610      0.000000
    221 O2    s       0.000266      0.000956      0.003675      0.000000
    222 O2    s       0.000181     -0.000033      0.000152      0.000000
    223 O2    s      -0.001347      0.001573     -0.000167      0.000000
    224 O3    s       0.000082      0.000048      0.000593      0.000000
    225 O2    s       0.000090     -0.000067      0.000083      0.000000
    226 O2    s       0.000093      0.000085      0.000137      0.000000
    227 O2    s      -0.000075      0.000103     -0.000260      0.000000
    228 O2    s       0.000107      0.000002      0.000589      0.000000
    229 O2    s       0.000210      0.000035     -0.000131      0.000000
    230 O2    s      -0.002202     -0.000289     -0.001735      0.000000
    231 O2    s      -0.000051      0.000170     -0.000524      0.000000
    232 O2    s       0.000028      0.000078     -0.000302      0.000000
    233 O2    s       0.000077      0.000080     -0.000096      0.000000
    234 O2    s       0.000147      0.000142      0.000622      0.000000
    235 O2    s       0.000217      0.000173     -0.000079      0.000000
    236 O2    s      -0.000058      0.000112      0.000020      0.000000
    237 O2    s       0.000066      0.000087     -0.000566      0.000000
    238 O2    s       0.000213     -0.000122     -0.000301      0.000000
    239 O3    s       0.002220      0.001368     -0.002054      0.000000
    240 O2    s       0.000047      0.000201      0.000102      0.000000
    241 O2    s      -0.000206      0.000237     -0.000303      0.000000
    242 O2    s       0.000085      0.000132     -0.000197      0.000000
    243 O2    s       0.000262     -0.000142     -0.000206      0.000000
    244 O2    s       0.000144      0.000046     -0.000112      0.000000
    245 O2    s       0.000180      0.000049     -0.000234      0.000000
    246 O2    s      -0.000029      0.000359      0.000781      0.000000
    247 O2    s       0.000355     -0.000008      0.000276      0.000000
    248 O3    s       0.000024     -0.000359     -0.001020      0.000000
    249 O2    s      -0.000021      0.000151      0.000125      0.000000
    250 O2    s       0.000279     -0.000146     -0.000287      0.000000
    251 O2    s       0.000105      0.000099      0.000289      0.000000
    252 O2    s       0.000300      0.000035      0.000369      0.000000
    253 O3    s       0.000389      0.000145      0.000189      0.000000
    254 O2    s       0.000051      0.000207      0.000311      0.000000
    255 O2    s       0.000164     -0.000103      0.000146      0.000000
    256 O2    s       0.000108      0.000010      0.000345      0.000000
    257 O2    s      -0.000055      0.000142     -0.000366      0.000000
    258 O2    s       0.000179      0.000163      0.000512      0.000000
    259 O2    s       0.000200      0.000157     -0.000308      0.000000
    260 O2    s       0.000077     -0.000001      0.000192      0.000000
    261 O2    s      -0.000086      0.000087     -0.000286      0.000000
    262 O2    s       0.000027      0.000016     -0.000298      0.000000
    263 O2    s       0.000088      0.000097     -0.000137      0.000000
    264 O2    s       0.000456     -0.000187      0.000654      0.000000
    265 O1    s       0.000154      0.000248     -0.000393      0.000000
    266 O2    s       0.000111      0.000190      0.000312      0.000000
    267 O2    s      -0.000015      0.000039      0.000196      0.000000
    268 O2    s       0.000042      0.000118      0.000287      0.000000
    269 O2    s       0.000048      0.000116     -0.000323      0.000000
    270 O2    s       0.000206      0.000188      0.000271      0.000000
    271 O2    s       0.000113      0.000066     -0.000267      0.000000
    272 O2    s       0.000111      0.000217     -0.000343      0.000000
    273 O2    s       0.000080     -0.000096     -0.000412      0.000000
    274 O2    s       0.000160     -0.000181     -0.000065      0.000000
    275 O2    s       0.000126      0.000057     -0.000161      0.000000
    276 O2    s      -0.000400      0.000171      0.001623      0.000000
    277 O2    s      -0.000037      0.000183      0.000225      0.000000
    278 O2    s       0.000054      0.000123      0.000060      0.000000
    279 O2    s       0.000264     -0.000124      0.000025      0.000000
    280 O2    s       0.000087     -0.000016     -0.000019      0.000000
    281 O2    s       0.000274     -0.000097     -0.000034      0.000000
    282 O2    s      -0.000347      0.000534     -0.000299      0.000000
    283 O2    s       0.000261      0.000134     -0.000100      0.000000
    284 O3    s       0.000240     -0.000192      0.001628      0.000000
    285 O2    s      -0.000014      0.000068     -0.000179      0.000000
    286 O2    s       0.000221     -0.000340      0.000014      0.000000
    287 O2    s      -0.000010      0.000162      0.000024      0.000000
    288 O2    s       0.000430      0.000059     -0.000021      0.000000
    289 O2    s      -0.000052     -0.000592     -0.000954      0.000000
    290 O2    s       0.000153      0.000094     -0.000375      0.000000
    291 O2    s       0.000077      0.000023     -0.000400      0.000000
    292 O2    s       0.000196      0.000055     -0.000275      0.000000
    293 O2    s       0.000059      0.000068     -0.000186      0.000000
    294 O2    s       0.000068     -0.000060     -0.000081      0.000000
    295 O2    s       0.000213      0.000037      0.000431      0.000000
    296 O2    s      -0.000053     -0.000069      0.000393      0.000000
    297 O2    s       0.000146     -0.000028      0.000252      0.000000
    298 O2    s       0.000270     -0.000083     -0.000530      0.000000
    299 O2    s       0.000229      0.000001      0.000336      0.000000
    300 O2    s       0.000167      0.000099      0.000194      0.000000
    301 O2    s       0.000205      0.000002     -0.000054      0.000000
    302 O2    s       0.000276     -0.000046      0.000069      0.000000
    303 O2    s       0.000536      0.000155     -0.001220      0.000000
    304 O2    s       0.000085      0.000184     -0.000096      0.000000
    305 O2    s      -0.000017      0.000020      0.000880      0.000000
    306 O2    s       0.000339     -0.000003      0.000040      0.000000
    307 F     s       0.000141      0.000075     -0.000082      0.000000
    308 F     s       0.000058      0.000008      0.000013      0.000000
    309 F     s       0.000090      0.000018      0.000341      0.000000
    310 F     s       0.000096      0.000045     -0.000104      0.000000
    311 F     s      -0.000913     -0.000714     -0.000335      0.000000
    312 F     s       0.000143      0.000063      0.000042      0.000000
--------------------------------------------------------------------------------
  Maximum abs         0.004719      0.003594      0.008062      0.000000
--------------------------------------------------------------------------------


  Time to end of optimisation =      47.5399 seconds


  Peak dynamic memory used =      19.13 MB 


  Timing analysis for GULP :

--------------------------------------------------------------------------------
  Task / Subroutine                                          Time (Seconds)
--------------------------------------------------------------------------------
  Calculation of reciprocal space energy and derivatives          1.3109
  Calculation of real space energy and derivatives               41.1139
  Calculation of three-body energy and derivatives                4.2728
  Calculation of matrix inversion                                 0.7469
  Global summation overhead                                       0.0001
--------------------------------------------------------------------------------
  Total CPU time                                                 47.5399
--------------------------------------------------------------------------------


  Dump file written as out.res                                                 
  CIF file written as out.cif                                                 


  Job Finished at 04:38.17 11th November   2016                               

