********************************************************************************
*                       GENERAL UTILITY LATTICE PROGRAM                        *
*                                 Julian Gale                                  *
*                      Nanochemistry Research Institute                        *
*                           Department of Chemistry                            *
*                    Curtin University, Western Australia                      *
********************************************************************************
* Version = 4.2.0 * Last modified =  20th January 2014                         *
********************************************************************************
*  optimise     - perform optimisation run                                     *
*  conp         - constant pressure calculation                                *
*  qok          - running with non charge neutral cell is OK                   *
********************************************************************************

  Job Started  at 17:18.18 11th November   2016                               

  Number of CPUs =     1


  Total number of configurations input =   1

********************************************************************************
*  Input for Configuration =   1                                               *
********************************************************************************

  Formula = Ge3Si57O120F6                                               

  Number of irreducible atoms/shells =     312


  Total number atoms/shells =     312

  Dimensionality = 3               :  Bulk   


  Charge on solid   =  -6.000000 =>neutralising background added


  Cartesian lattice vectors (Angstroms) :

       11.944389    0.000000    0.000000
       -6.136579   10.379160    0.000000
       -0.080433   -0.064659   29.499390

  Cell parameters (Angstroms/Degrees):

  a =      11.9444    alpha =  90.0286
  b =      12.0576    beta  =  90.1562
  c =      29.4996    gamma = 120.5933

  Initial cell volume =        3657.119755 Angs**3

  Temperature of configuration =  0.000     K 

  Pressure of configuration =         0.000 GPa 

  Fractional coordinates of asymmetric unit :

--------------------------------------------------------------------------------
   No.  Atomic       x           y          z         Charge      Occupancy
        Label      (Frac)      (Frac)     (Frac)        (e)         (Frac)  
--------------------------------------------------------------------------------
      1 Ge    c    0.699600    0.375700    0.033890     4.00000    1.000000    
      2 Si    c    0.616762 *  0.318980 *  0.363715 *   4.00000    1.000000    
      3 Si    c    0.677578 *  0.297333 *  0.697832 *   4.00000    1.000000    
      4 Si    c    0.290773 *  0.620761 *  0.525752 *   4.00000    1.000000    
      5 Si    c    0.372340 *  0.677970 *  0.857299 *   4.00000    1.000000    
      6 Si    c    0.316324 *  0.703607 *  0.194229 *   4.00000    1.000000    
      7 Si    c    0.368636 *  0.692936 *  0.294490 *   4.00000    1.000000    
      8 Si    c    0.318111 *  0.626466 *  0.960124 *   4.00000    1.000000    
      9 Si    c    0.298619 *  0.673244 *  0.626542 *   4.00000    1.000000    
     10 Si    c    0.613684 *  0.285102 *  0.797519 *   4.00000    1.000000    
     11 Si    c    0.669437 *  0.379708 *  0.464046 *   4.00000    1.000000    
     12 Si    c    0.682795 *  0.316870 *  0.132354 *   4.00000    1.000000    
     13 Si    c    0.531661 *  0.422180 *  0.966647 *   4.00000    1.000000    
     14 Si    c    0.578981 *  0.104809 *  0.301400 *   4.00000    1.000000    
     15 Si    c    0.885931 *  0.465777 *  0.631383 *   4.00000    1.000000    
     16 Si    c    0.459442 *  0.580406 *  0.460150 *   4.00000    1.000000    
     17 Si    c    0.401957 *  0.878785 *  0.792395 *   4.00000    1.000000    
     18 Si    c    0.105354 *  0.535044 *  0.126554 *   4.00000    1.000000    
     19 Si    c    0.408463 *  0.521312 *  0.358608 *   4.00000    1.000000    
     20 Si    c    0.098692 *  0.581692 *  0.023349 *   4.00000    1.000000    
     21 Si    c    0.464892 *  0.884970 *  0.691587 *   4.00000    1.000000    
     22 Si    c    0.588477 *  0.465931 *  0.862689 *   4.00000    1.000000    
     23 Si    c    0.880099 *  0.417772 *  0.529557 *   4.00000    1.000000    
     24 Si    c    0.526051 *  0.109855 *  0.200325 *   4.00000    1.000000    
     25 Si    c    0.302896 *  0.397173 *  0.845759 *   4.00000    1.000000    
     26 Si    c    0.598319 *  0.905756 *  0.181869 *   4.00000    1.000000    
     27 Si    c    0.090094 *  0.699480 *  0.514664 *   4.00000    1.000000    
     28 Si    c    0.691089 *  0.593574 *  0.346481 *   4.00000    1.000000    
     29 Si    c    0.400557 *  0.096978 *  0.678435 *   4.00000    1.000000    
     30 Si    c    0.885753 *  0.291790 *  0.009820 *   4.00000    1.000000    
     31 Si    c    0.388681 *  0.301710 *  0.476566 *   4.00000    1.000000    
     32 Si    c    0.889106 *  0.603404 *  0.140530 *   4.00000    1.000000    
     33 Si    c    0.686941 *  0.081820 *  0.811668 *   4.00000    1.000000    
     34 Si    c    0.600344 *  0.707061 *  0.979945 *   4.00000    1.000000    
     35 Si    c    0.096998 *  0.395075 *  0.641977 *   4.00000    1.000000    
     36 Si    c    0.294353 *  0.893211 *  0.312300 *   4.00000    1.000000    
     37 Si    c    0.248698 *  0.342461 *  0.947431 *   4.00000    1.000000    
     38 Si    c    0.653756 *  0.904565 *  0.282538 *   4.00000    1.000000    
     39 Si    c    0.088565 *  0.744877 *  0.615865 *   4.00000    1.000000    
     40 Si    c    0.740204 *  0.657717 *  0.446627 *   4.00000    1.000000    
     41 Si    c    0.329481 *  0.081744 *  0.777727 *   4.00000    1.000000    
     42 Si    c    0.900170 *  0.251501 *  0.112938 *   4.00000    1.000000    
     43 Si    c    0.333393 *  0.245248 *  0.375974 *   4.00000    1.000000    
     44 Si    c    0.894913 *  0.661698 *  0.037906 *   4.00000    1.000000    
     45 Si    c    0.743922 *  0.086462 *  0.711014 *   4.00000    1.000000    
     46 Ge    c    0.639163 *  0.729398 *  0.880202 *   4.00000    1.000000    
     47 Si    c    0.081503 *  0.339850 *  0.540884 *   4.00000    1.000000    
     48 Si    c    0.243998 *  0.908356 *  0.212142 *   4.00000    1.000000    
     49 Si    c    0.967048 *  0.120484 *  0.961375 *   4.00000    1.000000    
     50 Si    c    0.870657 *  0.840806 *  0.295991 *   4.00000    1.000000    
     51 Ge    c    0.147712 *  0.027088 *  0.628927 *   4.00000    1.000000    
     52 Si    c    0.020991 *  0.876723 *  0.462340 *   4.00000    1.000000    
     53 Si    c    0.114791 *  0.146780 *  0.796065 *   4.00000    1.000000    
     54 Si    c    0.847955 *  0.977651 *  0.130660 *   4.00000    1.000000    
     55 Si    c    0.115736 *  0.963164 *  0.361263 *   4.00000    1.000000    
     56 Si    c    0.846998 *  0.886045 *  0.029912 *   4.00000    1.000000    
     57 Si    c    0.024352 *  0.149988 *  0.694936 *   4.00000    1.000000    
     58 Si    c    0.868521 *  0.013381 *  0.861812 *   4.00000    1.000000    
     59 Si    c    0.138495 *  0.121618 *  0.526423 *   4.00000    1.000000    
     60 Si    c    0.964757 *  0.851026 *  0.194512 *   4.00000    1.000000    
     61 O2    c    0.925459 *  0.007388 *  0.997469 *   0.87073    1.000000    
     62 O2    c    0.995539 *  0.921816 *  0.327532 *   0.87073    1.000000    
     63 O3    c    0.058512 *  0.062750 *  0.664954 *   1.33043    1.000000    
     64 O2    c    0.061930 *  0.001428 *  0.492607 *   0.87073    1.000000    
     65 O2    c    0.994360 *  0.069407 *  0.829070 *   0.87073    1.000000    
     66 O2    c    0.929616 *  0.939589 *  0.164050 *   0.87073    1.000000    
     67 O2    c    0.330838 *  0.567313 *  0.325309 *   0.87073    1.000000    
     68 O2    c    0.423431 *  0.761742 *  0.658667 *   0.87073    1.000000    
     69 O2    c    0.225499 *  0.657644 *  0.991255 *   0.87073    1.000000    
     70 O2    c    0.654354 *  0.401844 *  0.832918 *   0.87073    1.000000    
     71 O2    c    0.576416 *  0.240117 *  0.171294 *   0.87073    1.000000    
     72 O2    c    0.751900 *  0.341997 *  0.497695 *   0.87073    1.000000    
     73 O3    c    0.565034 *  0.340121 *  0.999462 *   1.33043    1.000000    
     74 O2    c    0.765159 *  0.421068 *  0.665765 *   0.87073    1.000000    
     75 O2    c    0.655763 *  0.230057 *  0.333899 *   0.87073    1.000000    
     76 O2    c    0.411226 *  0.658651 *  0.491393 *   0.87073    1.000000    
     77 O2    c    0.231221 *  0.585509 *  0.159006 *   0.87073    1.000000    
     78 O2    c    0.321287 *  0.751298 *  0.823996 *   0.87073    1.000000    
     79 O2    c    0.122287 *  0.216862 *  0.967507 *   0.87073    1.000000    
     80 O2    c    0.779114 *  0.902397 *  0.302517 *   0.87073    1.000000    
     81 O3    c    0.085656 *  0.864678 *  0.637340 *   1.33043    1.000000    
     82 O2    c    0.865590 *  0.785239 *  0.467166 *   0.87073    1.000000    
     83 O2    c    0.202933 *  0.080395 *  0.798100 *   0.87073    1.000000    
     84 O2    c    0.906889 *  0.131548 *  0.134736 *   0.87073    1.000000    
     85 O2    c    0.208277 *  0.116930 *  0.355551 *   0.87073    1.000000    
     86 O2    c    0.913219 *  0.799425 *  0.022574 *   0.87073    1.000000    
     87 O2    c    0.869904 *  0.089797 *  0.689775 *   0.87073    1.000000    
     88 O3    c    0.784804 *  0.864401 *  0.857553 *   1.33043    1.000000    
     89 O2    c    0.077200 *  0.213393 *  0.519678 *   0.87073    1.000000    
     90 O2    c    0.119945 *  0.912099 *  0.191540 *   0.87073    1.000000    
     91 O2    c    0.919117 *  0.854021 *  0.244889 *   0.87073    1.000000    
     92 O3    c    0.117869 *  0.064528 *  0.575873 *   1.33043    1.000000    
     93 O2    c    0.930288 *  0.063830 *  0.911626 *   0.87073    1.000000    
     94 O2    c    0.062496 *  0.143275 *  0.746180 *   0.87073    1.000000    
     95 O2    c    0.865802 *  0.939205 *  0.080792 *   0.87073    1.000000    
     96 O2    c    0.060917 *  0.924097 *  0.411356 *   0.87073    1.000000    
     97 O2    c    0.897137 *  0.201554 *  0.972035 *   0.87073    1.000000    
     98 O2    c    0.789966 *  0.689315 *  0.307811 *   0.87073    1.000000    
     99 O3    c    0.312088 *  0.105056 *  0.638547 *   1.33043    1.000000    
    100 O2    c    0.090920 *  0.797648 *  0.476784 *   0.87073    1.000000    
    101 O2    c    0.204587 *  0.297905 *  0.808326 *   0.87073    1.000000    
    102 O2    c    0.695321 *  0.906350 *  0.143203 *   0.87073    1.000000    
    103 O2    c    0.196275 *  0.891681 *  0.350575 *   0.87073    1.000000    
    104 O2    c    0.691815 *  0.800027 *  0.021418 *   0.87073    1.000000    
    105 O2    c    0.101366 *  0.299720 *  0.679690 *   0.87073    1.000000    
    106 O2    c    0.780433 *  0.078502 *  0.850586 *   0.87073    1.000000    
    107 O2    c    0.292471 *  0.205882 *  0.515519 *   0.87073    1.000000    
    108 O2    c    0.893286 *  0.702443 *  0.178550 *   0.87073    1.000000    
    109 O2    c    0.313085 *  0.640094 *  0.243404 *   0.87073    1.000000    
    110 O2    c    0.353910 *  0.676609 *  0.575651 *   0.87073    1.000000    
    111 O2    c    0.318924 *  0.676210 *  0.908919 *   0.87073    1.000000    
    112 O2    c    0.675373 *  0.350514 *  0.748430 *   0.87073    1.000000    
    113 O3    c    0.611326 *  0.302057 *  0.085252 *   1.33043    1.000000    
    114 O2    c    0.673057 *  0.322634 *  0.414288 *   0.87073    1.000000    
    115 O2    c    0.372870 *  0.338542 *  0.965352 *   0.87073    1.000000    
    116 O2    c    0.665390 *  0.035328 *  0.302743 *   0.87073    1.000000    
    117 O2    c    0.955756 *  0.620887 *  0.633542 *   0.87073    1.000000    
    118 O2    c    0.616896 *  0.668413 *  0.463153 *   0.87073    1.000000    
    119 O2    c    0.314821 *  0.947066 *  0.794690 *   0.87073    1.000000    
    120 O2    c    0.033295 *  0.379639 *  0.128530 *   0.87073    1.000000    
    121 O2    c    0.322112 *  0.364820 *  0.356076 *   0.87073    1.000000    
    122 O2    c    0.028045 *  0.665536 *  0.021650 *   0.87073    1.000000    
    123 O2    c    0.622222 *  0.956413 *  0.690349 *   0.87073    1.000000    
    124 O3    c    0.677643 *  0.617339 *  0.856465 *   1.33043    1.000000    
    125 O2    c    0.947698 *  0.330723 *  0.524209 *   0.87073    1.000000    
    126 O2    c    0.369120 *  0.041204 *  0.195314 *   0.87073    1.000000    
    127 O3    c    0.750501 *  0.282326 *  0.001809 *   1.33043    1.000000    
    128 O2    c    0.691786 *  0.460222 *  0.339766 *   0.87073    1.000000    
    129 O2    c    0.536329 *  0.231668 *  0.673284 *   0.87073    1.000000    
    130 O2    c    0.222354 *  0.696811 *  0.504972 *   0.87073    1.000000    
    131 O2    c    0.304944 *  0.530870 *  0.838005 *   0.87073    1.000000    
    132 O2    c    0.461192 *  0.773885 *  0.172401 *   0.87073    1.000000    
    133 O2    c    0.292196 *  0.758229 *  0.317542 *   0.87073    1.000000    
    134 O2    c    0.461657 *  0.703838 *  0.982976 *   0.87073    1.000000    
    135 O2    c    0.233061 *  0.529863 *  0.648365 *   0.87073    1.000000    
    136 O2    c    0.686663 *  0.214832 *  0.818938 *   0.87073    1.000000    
    137 O2    c    0.523867 *  0.304503 *  0.485141 *   0.87073    1.000000    
    138 O2    c    0.757812 *  0.467383 *  0.149498 *   0.87073    1.000000    
    139 O3    c    0.768922 *  0.545601 *  0.017260 *   1.33043    1.000000    
    140 O2    c    0.459709 *  0.243306 *  0.357723 *   0.87073    1.000000    
    141 O2    c    0.751665 *  0.216726 *  0.693532 *   0.87073    1.000000    
    142 O2    c    0.207887 *  0.464899 *  0.520475 *   0.87073    1.000000    
    143 O3    c    0.526237 *  0.759206 *  0.851565 *   1.33043    1.000000    
    144 O2    c    0.239473 *  0.782281 *  0.191052 *   0.87073    1.000000    
    145 O2    c    0.525574 *  0.776601 *  0.300151 *   0.87073    1.000000    
    146 O2    c    0.253616 *  0.472296 *  0.964050 *   0.87073    1.000000    
    147 O2    c    0.216428 *  0.745230 *  0.633529 *   0.87073    1.000000    
    148 O2    c    0.455677 *  0.205805 *  0.799257 *   0.87073    1.000000    
    149 O2    c    0.741985 *  0.535387 *  0.467781 *   0.87073    1.000000    
    150 O2    c    0.777369 *  0.255325 *  0.132988 *   0.87073    1.000000    
    151 O2    c    0.235924 *  0.331464 *  0.893273 *   0.87073    1.000000    
    152 O2    c    0.671868 *  0.906977 *  0.228175 *   0.87073    1.000000    
    153 O2    c    0.091606 *  0.770002 *  0.561549 *   0.87073    1.000000    
    154 O2    c    0.762261 *  0.672006 *  0.392360 *   0.87073    1.000000    
    155 O2    c    0.315285 *  0.087201 *  0.723098 *   0.87073    1.000000    
    156 O2    c    0.893761 *  0.232355 *  0.058798 *   0.87073    1.000000    
    157 O2    c    0.314270 *  0.228994 *  0.430223 *   0.87073    1.000000    
    158 O2    c    0.888894 *  0.668458 *  0.093222 *   0.87073    1.000000    
    159 O2    c    0.757999 *  0.079973 *  0.765187 *   0.87073    1.000000    
    160 O3    c    0.685212 *  0.784104 *  0.937155 *   1.33043    1.000000    
    161 O2    c    0.089034 *  0.321639 *  0.594954 *   0.87073    1.000000    
    162 O2    c    0.224454 *  0.902264 *  0.266380 *   0.87073    1.000000    
    163 O2    c    0.577215 *  0.564147 *  0.987429 *   0.87073    1.000000    
    164 O2    c    0.435896 *  0.015900 *  0.323148 *   0.87073    1.000000    
    165 O2    c    0.972239 *  0.408864 *  0.652158 *   0.87073    1.000000    
    166 O2    c    0.402717 *  0.440719 *  0.483860 *   0.87073    1.000000    
    167 O2    c    0.541732 *  0.960808 *  0.817312 *   0.87073    1.000000    
    168 O2    c    0.013625 *  0.585882 *  0.146137 *   0.87073    1.000000    
    169 O2    c    0.551358 *  0.579040 *  0.336143 *   0.87073    1.000000    
    170 O2    c    0.008957 *  0.437954 *  0.003465 *   0.87073    1.000000    
    171 O2    c    0.409778 *  0.969929 *  0.668257 *   0.87073    1.000000    
    172 O2    c    0.443984 *  0.413087 *  0.840549 *   0.87073    1.000000    
    173 O2    c    0.961375 *  0.560172 *  0.507030 *   0.87073    1.000000    
    174 O2    c    0.586828 *  0.032448 *  0.174988 *   0.87073    1.000000    
    175 O2    c    0.578695 *  0.159494 *  0.251233 *   0.87073    1.000000    
    176 O2    c    0.828204 *  0.412542 *  0.580825 *   0.87073    1.000000    
    177 O2    c    0.586020 *  0.425494 *  0.915714 *   0.87073    1.000000    
    178 O2    c    0.405780 *  0.828553 *  0.741526 *   0.87073    1.000000    
    179 O2    c    0.148482 *  0.581637 *  0.074824 *   0.87073    1.000000    
    180 O2    c    0.406758 *  0.576146 *  0.408838 *   0.87073    1.000000    
    181 F     c    0.444002 *  0.898669 *  0.246023 *   0.56000    1.000000    
    182 F     c    0.093812 *  0.546329 *  0.577394 *   0.56000    1.000000    
    183 F     c    0.487829 *  0.585312 *  0.906550 *   0.56000    1.000000    
    184 F     c    0.537481 *  0.090943 *  0.743068 *   0.56000    1.000000    
    185 F     c    0.850735 *  0.436401 *  0.068591 *   0.56000    1.000000    
    186 F     c    0.541091 *  0.448724 *  0.410367 *   0.56000    1.000000    
    187 O2    s    0.921228 *  0.006355 *  0.997098 *  -2.87073    1.000000    
    188 O2    s    0.994868 *  0.917278 *  0.327742 *  -2.87073    1.000000    
    189 O3    s    0.062587 *  0.069109 *  0.665061 *  -3.33043    1.000000    
    190 O2    s    0.065717 *  0.000507 *  0.492889 *  -2.87073    1.000000    
    191 O2    s    0.995033 *  0.072453 *  0.828705 *  -2.87073    1.000000    
    192 O2    s    0.924537 *  0.934034 *  0.163741 *  -2.87073    1.000000    
    193 O2    s    0.342550 *  0.575588 *  0.325486 *  -2.87073    1.000000    
    194 O2    s    0.414775 *  0.765130 *  0.658694 *  -2.87073    1.000000    
    195 O2    s    0.221867 *  0.646567 *  0.991380 *  -2.87073    1.000000    
    196 O2    s    0.643094 *  0.396266 *  0.832314 *  -2.87073    1.000000    
    197 O2    s    0.582367 *  0.234480 *  0.170230 *  -2.87073    1.000000    
    198 O2    s    0.756468 *  0.353779 *  0.497440 *  -2.87073    1.000000    
    199 O3    s    0.571379 *  0.351476 *  0.998508 *  -3.33043    1.000000    
    200 O2    s    0.768757 *  0.413002 *  0.665487 *  -2.87073    1.000000    
    201 O2    s    0.643863 *  0.226056 *  0.333551 *  -2.87073    1.000000    
    202 O2    s    0.403969 *  0.646692 *  0.491654 *  -2.87073    1.000000    
    203 O2    s    0.226441 *  0.592021 *  0.159117 *  -2.87073    1.000000    
    204 O2    s    0.334314 *  0.756667 *  0.824171 *  -2.87073    1.000000    
    205 O2    s    0.119590 *  0.220224 *  0.964749 *  -2.87073    1.000000    
    206 O2    s    0.775699 *  0.896101 *  0.299763 *  -2.87073    1.000000    
    207 O3    s    0.091038 *  0.865805 *  0.634481 *  -3.33043    1.000000    
    208 O2    s    0.869115 *  0.781702 *  0.464531 *  -2.87073    1.000000    
    209 O2    s    0.206781 *  0.087567 *  0.795781 *  -2.87073    1.000000    
    210 O2    s    0.900039 *  0.127898 *  0.132078 *  -2.87073    1.000000    
    211 O2    s    0.211395 *  0.113843 *  0.358255 *  -2.87073    1.000000    
    212 O2    s    0.904339 *  0.794510 *  0.024900 *  -2.87073    1.000000    
    213 O2    s    0.873152 *  0.095959 *  0.692571 *  -2.87073    1.000000    
    214 O3    s    0.784856 *  0.872608 *  0.859489 *  -3.33043    1.000000    
    215 O2    s    0.084019 *  0.216817 *  0.522534 *  -2.87073    1.000000    
    216 O2    s    0.116162 *  0.905143 *  0.193975 *  -2.87073    1.000000    
    217 O2    s    0.918870 *  0.852187 *  0.244899 *  -2.87073    1.000000    
    218 O3    s    0.122670 *  0.067497 *  0.575058 *  -3.33043    1.000000    
    219 O2    s    0.928113 *  0.065183 *  0.912221 *  -2.87073    1.000000    
    220 O2    s    0.064169 *  0.144448 *  0.746068 *  -2.87073    1.000000    
    221 O2    s    0.861656 *  0.937753 *  0.080899 *  -2.87073    1.000000    
    222 O2    s    0.062708 *  0.923226 *  0.411356 *  -2.87073    1.000000    
    223 O2    s    0.903540 *  0.202441 *  0.974928 *  -2.87073    1.000000    
    224 O2    s    0.788560 *  0.695767 *  0.310465 *  -2.87073    1.000000    
    225 O3    s    0.306712 *  0.097830 *  0.641473 *  -3.33043    1.000000    
    226 O2    s    0.083355 *  0.796041 *  0.479123 *  -2.87073    1.000000    
    227 O2    s    0.205712 *  0.292641 *  0.811061 *  -2.87073    1.000000    
    228 O2    s    0.701545 *  0.913825 *  0.145827 *  -2.87073    1.000000    
    229 O2    s    0.197909 *  0.899319 *  0.347749 *  -2.87073    1.000000    
    230 O2    s    0.699052 *  0.799938 *  0.018319 *  -2.87073    1.000000    
    231 O2    s    0.092920 *  0.293999 *  0.677355 *  -2.87073    1.000000    
    232 O2    s    0.779280 *  0.072455 *  0.847596 *  -2.87073    1.000000    
    233 O2    s    0.286312 *  0.206944 *  0.512669 *  -2.87073    1.000000    
    234 O2    s    0.900476 *  0.707978 *  0.176284 *  -2.87073    1.000000    
    235 O2    s    0.318951 *  0.651824 *  0.243508 *  -2.87073    1.000000    
    236 O2    s    0.341904 *  0.670582 *  0.575728 *  -2.87073    1.000000    
    237 O2    s    0.324007 *  0.671240 *  0.909276 *  -2.87073    1.000000    
    238 O2    s    0.669400 *  0.338534 *  0.748162 *  -2.87073    1.000000    
    239 O3    s    0.624487 *  0.308425 *  0.086662 *  -3.33043    1.000000    
    240 O2    s    0.666856 *  0.328107 *  0.414122 *  -2.87073    1.000000    
    241 O2    s    0.374657 *  0.347334 *  0.963448 *  -2.87073    1.000000    
    242 O2    s    0.655332 *  0.028874 *  0.300503 *  -2.87073    1.000000    
    243 O2    s    0.962403 *  0.617501 *  0.631413 *  -2.87073    1.000000    
    244 O2    s    0.613599 *  0.658161 *  0.461080 *  -2.87073    1.000000    
    245 O2    s    0.325369 *  0.954069 *  0.792661 *  -2.87073    1.000000    
    246 O2    s    0.026962 *  0.382589 *  0.126688 *  -2.87073    1.000000    
    247 O2    s    0.332129 *  0.368475 *  0.358403 *  -2.87073    1.000000    
    248 O2    s    0.022498 *  0.656232 *  0.023434 *  -2.87073    1.000000    
    249 O2    s    0.618629 *  0.962716 *  0.692678 *  -2.87073    1.000000    
    250 O3    s    0.665705 *  0.609650 *  0.858799 *  -3.33043    1.000000    
    251 O2    s    0.954806 *  0.340680 *  0.526526 *  -2.87073    1.000000    
    252 O2    s    0.372032 *  0.034125 *  0.197635 *  -2.87073    1.000000    
    253 O3    s    0.761449 *  0.289537 *  0.004858 *  -3.33043    1.000000    
    254 O2    s    0.684055 *  0.459647 *  0.342931 *  -2.87073    1.000000    
    255 O2    s    0.536580 *  0.224143 *  0.676441 *  -2.87073    1.000000    
    256 O2    s    0.215580 *  0.689265 *  0.508151 *  -2.87073    1.000000    
    257 O2    s    0.311557 *  0.531558 *  0.840802 *  -2.87073    1.000000    
    258 O2    s    0.460499 *  0.780357 *  0.175675 *  -2.87073    1.000000    
    259 O2    s    0.300209 *  0.765640 *  0.314602 *  -2.87073    1.000000    
    260 O2    s    0.460392 *  0.696156 *  0.980282 *  -2.87073    1.000000    
    261 O2    s    0.225574 *  0.530498 *  0.645409 *  -2.87073    1.000000    
    262 O2    s    0.679058 *  0.208166 *  0.815899 *  -2.87073    1.000000    
    263 O2    s    0.524627 *  0.312012 *  0.482004 *  -2.87073    1.000000    
    264 O2    s    0.764500 *  0.467211 *  0.146826 *  -2.87073    1.000000    
    265 O3    s    0.778826 *  0.548380 *  0.020447 *  -3.33043    1.000000    
    266 O2    s    0.462509 *  0.251485 *  0.360273 *  -2.87073    1.000000    
    267 O2    s    0.742846 *  0.211036 *  0.695877 *  -2.87073    1.000000    
    268 O2    s    0.202754 *  0.467609 *  0.523201 *  -2.87073    1.000000    
    269 O3    s    0.518634 *  0.748573 *  0.854208 *  -3.33043    1.000000    
    270 O2    s    0.248015 *  0.787561 *  0.193613 *  -2.87073    1.000000    
    271 O2    s    0.523049 *  0.781847 *  0.297663 *  -2.87073    1.000000    
    272 O2    s    0.259959 *  0.474781 *  0.961878 *  -2.87073    1.000000    
    273 O2    s    0.211069 *  0.737539 *  0.630903 *  -2.87073    1.000000    
    274 O2    s    0.458568 *  0.200663 *  0.796769 *  -2.87073    1.000000    
    275 O2    s    0.734030 *  0.532273 *  0.465105 *  -2.87073    1.000000    
    276 O2    s    0.781555 *  0.261157 *  0.130704 *  -2.87073    1.000000    
    277 O2    s    0.244458 *  0.339683 *  0.894129 *  -2.87073    1.000000    
    278 O2    s    0.662205 *  0.906597 *  0.229040 *  -2.87073    1.000000    
    279 O2    s    0.091192 *  0.760154 *  0.562152 *  -2.87073    1.000000    
    280 O2    s    0.752485 *  0.662287 *  0.393265 *  -2.87073    1.000000    
    281 O2    s    0.325103 *  0.087541 *  0.724248 *  -2.87073    1.000000    
    282 O2    s    0.893630 *  0.240261 *  0.059796 *  -2.87073    1.000000    
    283 O2    s    0.324047 *  0.238305 *  0.429293 *  -2.87073    1.000000    
    284 O2    s    0.889451 *  0.660533 *  0.092992 *  -2.87073    1.000000    
    285 O2    s    0.749081 *  0.080828 *  0.764230 *  -2.87073    1.000000    
    286 O3    s    0.673401 *  0.772505 *  0.937570 *  -3.33043    1.000000    
    287 O2    s    0.089101 *  0.331150 *  0.594166 *  -2.87073    1.000000    
    288 O2    s    0.233788 *  0.901973 *  0.265356 *  -2.87073    1.000000    
    289 O2    s    0.574802 *  0.564856 *  0.984483 *  -2.87073    1.000000    
    290 O2    s    0.435737 *  0.011874 *  0.319685 *  -2.87073    1.000000    
    291 O2    s    0.976875 *  0.413510 *  0.648851 *  -2.87073    1.000000    
    292 O2    s    0.407323 *  0.440359 *  0.480577 *  -2.87073    1.000000    
    293 O2    s    0.542678 *  0.965483 *  0.814056 *  -2.87073    1.000000    
    294 O2    s    0.010081 *  0.582194 *  0.143434 *  -2.87073    1.000000    
    295 O2    s    0.551369 *  0.574388 *  0.339597 *  -2.87073    1.000000    
    296 O2    s    0.006063 *  0.438693 *  0.006248 *  -2.87073    1.000000    
    297 O2    s    0.414657 *  0.974693 *  0.671755 *  -2.87073    1.000000    
    298 O2    s    0.442735 *  0.416732 *  0.843319 *  -2.87073    1.000000    
    299 O2    s    0.966918 *  0.560354 *  0.510191 *  -2.87073    1.000000    
    300 O2    s    0.581658 *  0.026700 *  0.178319 *  -2.87073    1.000000    
    301 O2    s    0.573102 *  0.148402 *  0.251114 *  -2.87073    1.000000    
    302 O2    s    0.839502 *  0.418518 *  0.580686 *  -2.87073    1.000000    
    303 O2    s    0.580800 *  0.429293 *  0.915554 *  -2.87073    1.000000    
    304 O2    s    0.411451 *  0.839540 *  0.741625 *  -2.87073    1.000000    
    305 O2    s    0.138928 *  0.576760 *  0.075036 *  -2.87073    1.000000    
    306 O2    s    0.412346 *  0.570904 *  0.408921 *  -2.87073    1.000000    
    307 F     s    0.443629 *  0.898241 *  0.245871 *  -1.56000    1.000000    
    308 F     s    0.094344 *  0.546532 *  0.577302 *  -1.56000    1.000000    
    309 F     s    0.496676 *  0.594178 *  0.905043 *  -1.56000    1.000000    
    310 F     s    0.537287 *  0.091454 *  0.742865 *  -1.56000    1.000000    
    311 F     s    0.839847 *  0.432046 *  0.066219 *  -1.56000    1.000000    
    312 F     s    0.541394 *  0.448583 *  0.410242 *  -1.56000    1.000000    
--------------------------------------------------------------------------------



********************************************************************************
*  General input information                                                   *
********************************************************************************

  Species output for all configurations : 

--------------------------------------------------------------------------------
  Species    Type    Atomic    Atomic    Charge       Radii (Angs)     Library
                     Number     Mass       (e)     Cova   Ionic  VDW   Symbol
--------------------------------------------------------------------------------
    Si       Core       14      28.09   4.000000   1.200  0.000  2.100          
    O1       Core        8      16.00   1.733957   0.730  0.000  1.360          
    O1       Shell       8       0.00  -3.733957   0.730  0.000  1.360          
    O2       Core        8      16.00   0.870733   0.730  0.000  1.360          
    O2       Shell       8       0.00  -2.870733   0.730  0.000  1.360          
    O3       Core        8      16.00   1.330431   0.730  0.000  1.360          
    O3       Shell       8       0.00  -3.330431   0.730  0.000  1.360          
    F        Core        9      19.00   0.560000   0.710  0.000  1.300          
    F        Shell       9       0.00  -1.560000   0.710  0.000  1.300          
    Ge       Core       32      72.61   4.000000   1.170  0.000  1.750          
--------------------------------------------------------------------------------


  Lattice summation method               =    Ewald          (3-D)
                                         =    Parry          (2-D)
                                         =    Saunders et al (1-D)
  Accuracy factor for lattice sums       =   12.000


  Time limit = Infinity

  Maximum range for interatomic potentials =        16.000000 Angstroms

  Taper potentials to zero over   1.0000 Angstroms using polynomial

  General interatomic potentials :

--------------------------------------------------------------------------------
Atom  Types   Potential         A         B         C         D     Cutoffs(Ang)
  1     2                                                            Min    Max 
--------------------------------------------------------------------------------
Si   c O1   s Buckingham    0.132E+04 0.318      10.1      0.00     0.000 16.000
Si   c O2   s Buckingham    0.132E+04 0.318      10.1      0.00     0.000 16.000
Si   c O3   s Buckingham    0.132E+04 0.318      10.1      0.00     0.000 16.000
Ge   c O1   s Buckingham    0.150E+04 0.326      16.8      0.00     0.000 16.000
Ge   c O2   s Buckingham    0.150E+04 0.326      16.8      0.00     0.000 16.000
Ge   c O3   s Buckingham    0.150E+04 0.326      16.8      0.00     0.000 16.000
O1   s O1   s Buckingham    0.228E+05 0.149      10.9      0.00     0.000 16.000
O1   s O2   s Buckingham    0.228E+05 0.149      10.9      0.00     0.000 16.000
O1   s O3   s Buckingham    0.228E+05 0.149      10.9      0.00     0.000 16.000
O2   s O2   s Buckingham    0.228E+05 0.149      10.9      0.00     0.000 16.000
O2   s O3   s Buckingham    0.228E+05 0.149      10.9      0.00     0.000 16.000
O3   s O3   s Buckingham    0.228E+05 0.149      10.9      0.00     0.000 16.000
Si   c F    s Buckingham     977.     0.282      0.00      0.00     0.000 16.000
Ge   c F    s Buckingham     681.     0.320      0.00      0.00     0.000 16.000
F    s F    s Buckingham     540.     0.262      0.00      0.00     0.000 16.000
O1   s F    s Buckingham    0.168E+04 0.268      0.00      0.00     0.000 16.000
O2   s F    s Buckingham    0.168E+04 0.268      0.00      0.00     0.000 16.000
O3   s F    s Buckingham    0.168E+04 0.268      0.00      0.00     0.000 16.000
O2   c O2   s Spring (c-s)   76.0      0.00      0.00      0.00     0.000  0.800
O3   c O3   s Spring (c-s)   128.      0.00      0.00      0.00     0.000  0.800
O1   c O1   s Spring (c-s)   180.      0.00      0.00      0.00     0.000  0.800
F    c F    s Spring (c-s)   33.5      0.00      0.00      0.00     0.000  0.800
--------------------------------------------------------------------------------

  General Three-body potentials :

  Harmonic form:

--------------------------------------------------------------------------------
Atom    Atom    Atom           Force Constants            Theta     Cutoffs  
  1       2       3     (eVrad**-2/eVrad**-3/eVrad**-4)   (deg)  1-2  1-3  2-3
--------------------------------------------------------------------------------
Si    c O1    s O1    s  1.261        0.0000    0.0000   109.470 0.00 0.00 0.00
                                                                 1.90 1.90 3.50
Si    c O1    s O2    s  1.261        0.0000    0.0000   109.470 0.00 0.00 0.00
                                                                 1.90 1.90 3.50
Si    c O2    s O2    s  1.261        0.0000    0.0000   109.470 0.00 0.00 0.00
                                                                 1.90 1.90 3.50
--------------------------------------------------------------------------------

********************************************************************************
*  Output for configuration   1                                                *
********************************************************************************


  Components of energy : 

--------------------------------------------------------------------------------
  Interatomic potentials     =        2063.09705388 eV
  Three-body potentials      =           0.46730022 eV
  Monopole - monopole (real) =       -6612.43770067 eV
  Monopole - monopole (recip)=       -3171.25860745 eV
  Monopole - monopole (total)=       -9783.69630812 eV
  Neutralising energy        =          -6.45984679 eV
--------------------------------------------------------------------------------
  Total lattice energy       =       -7726.59180080 eV
--------------------------------------------------------------------------------
  Total lattice energy       =         -745497.9970 kJ/(mole unit cells)
--------------------------------------------------------------------------------


  Number of variables =      939

  Maximum number of calculations  =          5000
  Maximum Hessian update interval =            10
  Maximum step size               =   0.100000000
  Maximum parameter tolerance     =   0.000010000
  Maximum function  tolerance     =   0.000010000
  Maximum gradient  tolerance     =   0.001000000
  Maximum gradient  component     =   0.010000000

  Symmetry not applied to optimisation

  Cell parameters to be optimised using strains

  Newton-Raphson optimiser to be used

  BFGS hessian update to be used

  Dumpfile to be written after every cycle

  Start of bulk optimisation :

  Cycle:      0 Energy:     -7726.591801  Gnorm:      0.000534  CPU:    2.009
  ** Hessian calculated **
  Cycle:      1 Energy:     -7726.607193  Gnorm:      0.000486  CPU:    6.694
  Cycle:      2 Energy:     -7726.625957  Gnorm:      0.000509  CPU:   11.002
  Cycle:      3 Energy:     -7726.647525  Gnorm:      0.000791  CPU:   15.311
  Cycle:      4 Energy:     -7726.664657  Gnorm:      0.001237  CPU:   19.621
  Cycle:      5 Energy:     -7726.668930  Gnorm:      0.000953  CPU:   23.933
  Cycle:      6 Energy:     -7726.669996  Gnorm:      0.000571  CPU:   28.247
  Cycle:      7 Energy:     -7726.670266  Gnorm:      0.000316  CPU:   32.562
  Cycle:      8 Energy:     -7726.670334  Gnorm:      0.000166  CPU:   36.875
  Cycle:      9 Energy:     -7726.670345  Gnorm:      0.000118  CPU:   39.779
  Cycle:     10 Energy:     -7726.670351  Gnorm:      0.000083  CPU:   42.685
  ** Hessian calculated **
  Cycle:     11 Energy:     -7726.670351  Gnorm:      0.000044  CPU:   47.278
  Cycle:     12 Energy:     -7726.670351  Gnorm:      0.000032  CPU:   50.184


  **** Optimisation achieved ****


  Final energy =   -7726.67035103 eV
  Final Gnorm  =       0.00002379

  Components of energy : 

--------------------------------------------------------------------------------
  Interatomic potentials     =        2063.21627752 eV
  Three-body potentials      =           0.46495137 eV
  Monopole - monopole (real) =       -6614.40286916 eV
  Monopole - monopole (recip)=       -3169.49246017 eV
  Monopole - monopole (total)=       -9783.89532933 eV
  Neutralising energy        =          -6.45625060 eV
--------------------------------------------------------------------------------
  Total lattice energy       =       -7726.67035103 eV
--------------------------------------------------------------------------------
  Total lattice energy       =         -745505.5759 kJ/(mole unit cells)
--------------------------------------------------------------------------------

  Final fractional coordinates of atoms :

--------------------------------------------------------------------------------
   No.  Atomic        x           y          z          Radius
        Label       (Frac)      (Frac)     (Frac)       (Angs) 
--------------------------------------------------------------------------------
     1  Ge    c     0.699600    0.375700    0.033890    0.000000
     2  Si    c     0.592885    0.301243    0.363735    0.000000
     3  Si    c     0.653621    0.274466    0.697460    0.000000
     4  Si    c     0.265890    0.599828    0.526274    0.000000
     5  Si    c     0.356475    0.661192    0.857907    0.000000
     6  Si    c     0.300074    0.690983    0.195307    0.000000
     7  Si    c     0.349158    0.678239    0.295596    0.000000
     8  Si    c     0.307696    0.611349    0.961117    0.000000
     9  Si    c     0.273690    0.652316    0.627108    0.000000
    10  Si    c     0.592472    0.265097    0.797314    0.000000
    11  Si    c     0.644671    0.359468    0.464163    0.000000
    12  Si    c     0.669461    0.306022    0.132015    0.000000
    13  Si    c     0.520730    0.407218    0.966372    0.000000
    14  Si    c     0.558544    0.089584    0.301176    0.000000
    15  Si    c     0.861212    0.444116    0.631047    0.000000
    16  Si    c     0.435188    0.559965    0.460937    0.000000
    17  Si    c     0.380885    0.859850    0.793111    0.000000
    18  Si    c     0.091702    0.521851    0.127959    0.000000
    19  Si    c     0.385174    0.503286    0.359374    0.000000
    20  Si    c     0.091869    0.573053    0.024880    0.000000
    21  Si    c     0.441410    0.863220    0.692247    0.000000
    22  Si    c     0.572719    0.449761    0.861909    0.000000
    23  Si    c     0.855451    0.396606    0.529314    0.000000
    24  Si    c     0.509005    0.097156    0.199816    0.000000
    25  Si    c     0.287226    0.380864    0.845945    0.000000
    26  Si    c     0.581156    0.892483    0.182392    0.000000
    27  Si    c     0.065246    0.678102    0.514778    0.000000
    28  Si    c     0.667575    0.576096    0.346674    0.000000
    29  Si    c     0.376587    0.074663    0.678630    0.000000
    30  Si    c     0.879044    0.284289    0.010098    0.000000
    31  Si    c     0.364067    0.281143    0.476955    0.000000
    32  Si    c     0.876751    0.591552    0.141650    0.000000
    33  Si    c     0.665564    0.061853    0.812161    0.000000
    34  Si    c     0.590205    0.691985    0.979979    0.000000
    35  Si    c     0.072053    0.373733    0.641946    0.000000
    36  Si    c     0.274368    0.878395    0.312723    0.000000
    37  Si    c     0.237575    0.327295    0.948041    0.000000
    38  Si    c     0.633813    0.889646    0.283185    0.000000
    39  Si    c     0.063151    0.723230    0.615918    0.000000
    40  Si    c     0.715863    0.637782    0.447015    0.000000
    41  Si    c     0.308164    0.062191    0.778143    0.000000
    42  Si    c     0.886552    0.239455    0.113339    0.000000
    43  Si    c     0.309795    0.227269    0.376284    0.000000
    44  Si    c     0.892359    0.658372    0.039266    0.000000
    45  Si    c     0.720472    0.064099    0.711340    0.000000
    46  Ge    c     0.623559    0.712507    0.879993    0.000000
    47  Si    c     0.056783    0.318781    0.540904    0.000000
    48  Si    c     0.227106    0.895247    0.212346    0.000000
    49  Si    c     0.954551    0.108929    0.961441    0.000000
    50  Si    c     0.849107    0.823937    0.296496    0.000000
    51  Ge    c     0.123388    0.005613    0.629458    0.000000
    52  Si    c     0.996795    0.856325    0.462802    0.000000
    53  Si    c     0.096247    0.130894    0.796575    0.000000
    54  Si    c     0.831297    0.964596    0.131397    0.000000
    55  Si    c     0.093556    0.945432    0.361911    0.000000
    56  Si    c     0.835204    0.875280    0.030661    0.000000
    57  Si    c     0.001754    0.129700    0.695649    0.000000
    58  Si    c     0.850434    0.997762    0.862547    0.000000
    59  Si    c     0.113832    0.100635    0.526922    0.000000
    60  Si    c     0.947634    0.837222    0.195389    0.000000
    61  O2    c     0.909652    0.996786    0.998141    0.000000
    62  O2    c     0.972913    0.902515    0.328458    0.000000
    63  O3    c     0.036593    0.041833    0.666403    0.000000
    64  O2    c     0.036931    0.979601    0.493647    0.000000
    65  O2    c     0.976379    0.055671    0.829897    0.000000
    66  O2    c     0.911753    0.925045    0.164761    0.000000
    67  O2    c     0.309326    0.551855    0.326301    0.000000
    68  O2    c     0.398081    0.739684    0.659406    0.000000
    69  O2    c     0.219012    0.646129    0.992918    0.000000
    70  O2    c     0.635848    0.383531    0.831966    0.000000
    71  O2    c     0.560610    0.227026    0.170251    0.000000
    72  O2    c     0.727354    0.321276    0.497532    0.000000
    73  O3    c     0.562493    0.332557    0.999149    0.000000
    74  O2    c     0.740020    0.398187    0.665261    0.000000
    75  O2    c     0.633711    0.214347    0.333727    0.000000
    76  O2    c     0.387019    0.637949    0.492224    0.000000
    77  O2    c     0.216286    0.571533    0.160707    0.000000
    78  O2    c     0.302269    0.732944    0.825203    0.000000
    79  O2    c     0.110362    0.200793    0.967396    0.000000
    80  O2    c     0.758873    0.886874    0.303084    0.000000
    81  O3    c     0.059918    0.842821    0.637292    0.000000
    82  O2    c     0.841401    0.765021    0.467337    0.000000
    83  O2    c     0.182361    0.062355    0.798445    0.000000
    84  O2    c     0.890981    0.118443    0.135366    0.000000
    85  O2    c     0.184625    0.099189    0.355994    0.000000
    86  O2    c     0.909756    0.795857    0.024384    0.000000
    87  O2    c     0.847042    0.067509    0.690614    0.000000
    88  O3    c     0.769166    0.848959    0.857977    0.000000
    89  O2    c     0.052814    0.192549    0.519784    0.000000
    90  O2    c     0.102865    0.899463    0.192200    0.000000
    91  O2    c     0.899991    0.838727    0.245619    0.000000
    92  O3    c     0.093524    0.045200    0.576716    0.000000
    93  O2    c     0.912779    0.050229    0.912164    0.000000
    94  O2    c     0.042532    0.127613    0.746932    0.000000
    95  O2    c     0.848958    0.927025    0.081439    0.000000
    96  O2    c     0.038745    0.905728    0.412045    0.000000
    97  O2    c     0.890632    0.195396    0.971994    0.000000
    98  O2    c     0.766389    0.672257    0.307993    0.000000
    99  O3    c     0.287643    0.081840    0.638767    0.000000
   100  O2    c     0.066127    0.776503    0.476920    0.000000
   101  O2    c     0.187896    0.281570    0.808849    0.000000
   102  O2    c     0.678799    0.893666    0.143884    0.000000
   103  O2    c     0.175679    0.875843    0.350946    0.000000
   104  O2    c     0.681465    0.783798    0.021516    0.000000
   105  O2    c     0.076937    0.278525    0.679590    0.000000
   106  O2    c     0.759572    0.059782    0.851134    0.000000
   107  O2    c     0.267574    0.184305    0.515740    0.000000
   108  O2    c     0.878263    0.688793    0.179724    0.000000
   109  O2    c     0.295335    0.626609    0.244433    0.000000
   110  O2    c     0.328550    0.655618    0.576154    0.000000
   111  O2    c     0.305965    0.660037    0.909932    0.000000
   112  O2    c     0.652320    0.328509    0.747854    0.000000
   113  O3    c     0.604917    0.297959    0.084351    0.000000
   114  O2    c     0.648333    0.303449    0.414305    0.000000
   115  O2    c     0.361682    0.323001    0.965995    0.000000
   116  O2    c     0.645262    0.020504    0.302998    0.000000
   117  O2    c     0.930408    0.599026    0.633483    0.000000
   118  O2    c     0.592518    0.647877    0.463843    0.000000
   119  O2    c     0.293092    0.927453    0.795428    0.000000
   120  O2    c     0.019194    0.366541    0.129616    0.000000
   121  O2    c     0.298346    0.346981    0.356482    0.000000
   122  O2    c     0.024522    0.660318    0.023198    0.000000
   123  O2    c     0.598708    0.934132    0.690773    0.000000
   124  O3    c     0.661993    0.601066    0.855544    0.000000
   125  O2    c     0.923195    0.309697    0.524049    0.000000
   126  O2    c     0.352009    0.027952    0.195101    0.000000
   127  O3    c     0.746549    0.279288    0.001830    0.000000
   128  O2    c     0.667900    0.442766    0.339966    0.000000
   129  O2    c     0.512423    0.208698    0.673073    0.000000
   130  O2    c     0.197685    0.675808    0.505224    0.000000
   131  O2    c     0.288378    0.514197    0.838741    0.000000
   132  O2    c     0.444418    0.760787    0.173066    0.000000
   133  O2    c     0.272568    0.743735    0.318238    0.000000
   134  O2    c     0.451544    0.688551    0.983345    0.000000
   135  O2    c     0.207584    0.508484    0.648562    0.000000
   136  O2    c     0.665459    0.194989    0.818805    0.000000
   137  O2    c     0.499247    0.283913    0.485380    0.000000
   138  O2    c     0.745008    0.455812    0.149927    0.000000
   139  O3    c     0.767061    0.543501    0.017530    0.000000
   140  O2    c     0.435948    0.225520    0.357734    0.000000
   141  O2    c     0.727627    0.193751    0.693368    0.000000
   142  O2    c     0.183274    0.444183    0.520762    0.000000
   143  O3    c     0.510075    0.742035    0.851463    0.000000
   144  O2    c     0.222751    0.769267    0.191383    0.000000
   145  O2    c     0.505927    0.762059    0.301243    0.000000
   146  O2    c     0.242783    0.456973    0.965034    0.000000
   147  O2    c     0.190879    0.723648    0.633753    0.000000
   148  O2    c     0.434613    0.185990    0.799471    0.000000
   149  O2    c     0.717164    0.514967    0.467982    0.000000
   150  O2    c     0.763261    0.243522    0.132633    0.000000
   151  O2    c     0.223713    0.315967    0.893953    0.000000
   152  O2    c     0.653229    0.892581    0.228882    0.000000
   153  O2    c     0.066301    0.748378    0.561598    0.000000
   154  O2    c     0.737813    0.652987    0.392746    0.000000
   155  O2    c     0.292854    0.066481    0.723526    0.000000
   156  O2    c     0.883776    0.222766    0.059130    0.000000
   157  O2    c     0.290121    0.209627    0.430513    0.000000
   158  O2    c     0.880983    0.660041    0.094460    0.000000
   159  O2    c     0.734893    0.058228    0.765512    0.000000
   160  O3    c     0.672658    0.768229    0.936751    0.000000
   161  O2    c     0.064091    0.300498    0.594978    0.000000
   162  O2    c     0.206239    0.888297    0.266535    0.000000
   163  O2    c     0.566697    0.549139    0.987085    0.000000
   164  O2    c     0.415738    0.001030    0.323150    0.000000
   165  O2    c     0.947100    0.387028    0.652064    0.000000
   166  O2    c     0.378177    0.419981    0.484561    0.000000
   167  O2    c     0.520263    0.941700    0.818124    0.000000
   168  O2    c     0.000224    0.572802    0.147622    0.000000
   169  O2    c     0.527754    0.561261    0.336654    0.000000
   170  O2    c     0.002261    0.430568    0.004455    0.000000
   171  O2    c     0.385745    0.947561    0.668809    0.000000
   172  O2    c     0.428392    0.397854    0.839922    0.000000
   173  O2    c     0.936815    0.539111    0.506833    0.000000
   174  O2    c     0.569808    0.019130    0.175159    0.000000
   175  O2    c     0.559751    0.145274    0.250951    0.000000
   176  O2    c     0.803456    0.391161    0.580564    0.000000
   177  O2    c     0.571238    0.409453    0.914869    0.000000
   178  O2    c     0.383444    0.807874    0.742439    0.000000
   179  O2    c     0.138166    0.570534    0.076578    0.000000
   180  O2    c     0.382709    0.556698    0.409695    0.000000
   181  F     c     0.425646    0.884218    0.246300    0.000000
   182  F     c     0.068117    0.524905    0.577371    0.000000
   183  F     c     0.474367    0.569330    0.906646    0.000000
   184  F     c     0.513986    0.068694    0.743362    0.000000
   185  F     c     0.846234    0.431351    0.069416    0.000000
   186  F     c     0.515864    0.429034    0.410764    0.000000
   187  O2    s     0.906165    0.995518    0.997730    0.000000
   188  O2    s     0.972427    0.898412    0.328590    0.000000
   189  O3    s     0.040384    0.048190    0.666347    0.000000
   190  O2    s     0.040857    0.978967    0.493808    0.000000
   191  O2    s     0.976986    0.058300    0.829484    0.000000
   192  O2    s     0.906872    0.919746    0.164468    0.000000
   193  O2    s     0.321089    0.559967    0.326467    0.000000
   194  O2    s     0.389675    0.743202    0.659402    0.000000
   195  O2    s     0.214786    0.634912    0.992998    0.000000
   196  O2    s     0.624575    0.378014    0.831459    0.000000
   197  O2    s     0.566576    0.221636    0.169350    0.000000
   198  O2    s     0.731896    0.333055    0.497300    0.000000
   199  O3    s     0.567602    0.343819    0.998020    0.000000
   200  O2    s     0.743808    0.390220    0.665011    0.000000
   201  O2    s     0.621764    0.210180    0.333390    0.000000
   202  O2    s     0.379693    0.625990    0.492450    0.000000
   203  O2    s     0.211417    0.578259    0.160704    0.000000
   204  O2    s     0.315416    0.738414    0.825275    0.000000
   205  O2    s     0.107653    0.204658    0.964747    0.000000
   206  O2    s     0.755374    0.880508    0.300336    0.000000
   207  O3    s     0.065444    0.844016    0.634496    0.000000
   208  O2    s     0.844896    0.761490    0.464756    0.000000
   209  O2    s     0.186352    0.069594    0.796152    0.000000
   210  O2    s     0.884287    0.114888    0.132696    0.000000
   211  O2    s     0.187881    0.096059    0.358699    0.000000
   212  O2    s     0.900192    0.790010    0.026561    0.000000
   213  O2    s     0.850218    0.073847    0.693334    0.000000
   214  O3    s     0.768959    0.857068    0.859903    0.000000
   215  O2    s     0.059563    0.195935    0.522664    0.000000
   216  O2    s     0.099095    0.892352    0.194603    0.000000
   217  O2    s     0.899703    0.836897    0.245622    0.000000
   218  O3    s     0.098281    0.047792    0.575848    0.000000
   219  O2    s     0.911167    0.051630    0.912752    0.000000
   220  O2    s     0.044064    0.128227    0.746785    0.000000
   221  O2    s     0.845384    0.925605    0.081550    0.000000
   222  O2    s     0.040303    0.904703    0.412020    0.000000
   223  O2    s     0.896388    0.195594    0.974953    0.000000
   224  O2    s     0.765191    0.678653    0.310680    0.000000
   225  O3    s     0.282347    0.074848    0.641723    0.000000
   226  O2    s     0.058615    0.774964    0.479291    0.000000
   227  O2    s     0.188925    0.276355    0.811535    0.000000
   228  O2    s     0.684976    0.901059    0.146496    0.000000
   229  O2    s     0.177219    0.883402    0.348155    0.000000
   230  O2    s     0.688731    0.784461    0.018471    0.000000
   231  O2    s     0.068570    0.272835    0.677332    0.000000
   232  O2    s     0.758630    0.053927    0.848164    0.000000
   233  O2    s     0.261462    0.185519    0.512943    0.000000
   234  O2    s     0.885522    0.694495    0.177412    0.000000
   235  O2    s     0.301249    0.638413    0.244568    0.000000
   236  O2    s     0.316644    0.649617    0.576246    0.000000
   237  O2    s     0.311043    0.655100    0.910251    0.000000
   238  O2    s     0.646395    0.316557    0.747648    0.000000
   239  O3    s     0.617758    0.303768    0.086147    0.000000
   240  O2    s     0.642207    0.308985    0.414161    0.000000
   241  O2    s     0.363427    0.331749    0.964024    0.000000
   242  O2    s     0.635209    0.014003    0.300750    0.000000
   243  O2    s     0.937131    0.595713    0.631338    0.000000
   244  O2    s     0.589274    0.637721    0.461751    0.000000
   245  O2    s     0.303714    0.934497    0.793370    0.000000
   246  O2    s     0.012979    0.369617    0.127736    0.000000
   247  O2    s     0.308408    0.350614    0.358827    0.000000
   248  O2    s     0.018565    0.650987    0.024969    0.000000
   249  O2    s     0.595140    0.940427    0.693098    0.000000
   250  O3    s     0.650119    0.593320    0.857920    0.000000
   251  O2    s     0.930252    0.319620    0.526370    0.000000
   252  O2    s     0.354991    0.021037    0.197416    0.000000
   253  O3    s     0.757760    0.286239    0.004915    0.000000
   254  O2    s     0.660209    0.442209    0.343115    0.000000
   255  O2    s     0.512630    0.201218    0.676256    0.000000
   256  O2    s     0.190874    0.668237    0.508416    0.000000
   257  O2    s     0.295149    0.514860    0.841466    0.000000
   258  O2    s     0.443831    0.767377    0.176371    0.000000
   259  O2    s     0.280579    0.751107    0.315311    0.000000
   260  O2    s     0.450151    0.680855    0.980668    0.000000
   261  O2    s     0.200229    0.509210    0.645616    0.000000
   262  O2    s     0.657818    0.188292    0.815819    0.000000
   263  O2    s     0.500002    0.291455    0.482253    0.000000
   264  O2    s     0.751817    0.455866    0.147276    0.000000
   265  O3    s     0.776594    0.545471    0.020864    0.000000
   266  O2    s     0.438753    0.233678    0.360312    0.000000
   267  O2    s     0.718900    0.188136    0.695740    0.000000
   268  O2    s     0.178082    0.446797    0.523483    0.000000
   269  O3    s     0.502531    0.731507    0.854149    0.000000
   270  O2    s     0.231267    0.774624    0.193996    0.000000
   271  O2    s     0.503373    0.767226    0.298715    0.000000
   272  O2    s     0.249087    0.459448    0.962839    0.000000
   273  O2    s     0.185649    0.716008    0.631145    0.000000
   274  O2    s     0.437483    0.180891    0.796973    0.000000
   275  O2    s     0.709282    0.511947    0.465319    0.000000
   276  O2    s     0.767636    0.249383    0.130437    0.000000
   277  O2    s     0.232029    0.324169    0.894744    0.000000
   278  O2    s     0.643568    0.892266    0.229713    0.000000
   279  O2    s     0.065928    0.738556    0.562225    0.000000
   280  O2    s     0.728137    0.643321    0.393621    0.000000
   281  O2    s     0.302663    0.066789    0.724645    0.000000
   282  O2    s     0.883594    0.230590    0.060132    0.000000
   283  O2    s     0.299924    0.218974    0.429603    0.000000
   284  O2    s     0.881600    0.652307    0.094132    0.000000
   285  O2    s     0.726103    0.059202    0.764578    0.000000
   286  O3    s     0.660824    0.756604    0.937318    0.000000
   287  O2    s     0.064184    0.310017    0.594179    0.000000
   288  O2    s     0.215569    0.888007    0.265569    0.000000
   289  O2    s     0.564322    0.550059    0.984183    0.000000
   290  O2    s     0.415511    0.996927    0.319705    0.000000
   291  O2    s     0.951833    0.391742    0.648738    0.000000
   292  O2    s     0.382801    0.419662    0.481261    0.000000
   293  O2    s     0.521318    0.946340    0.814831    0.000000
   294  O2    s     0.996686    0.569244    0.144868    0.000000
   295  O2    s     0.527863    0.556630    0.340100    0.000000
   296  O2    s     0.999417    0.431264    0.007242    0.000000
   297  O2    s     0.390698    0.952384    0.672285    0.000000
   298  O2    s     0.427058    0.401272    0.842760    0.000000
   299  O2    s     0.942310    0.539234    0.510022    0.000000
   300  O2    s     0.564600    0.013500    0.178470    0.000000
   301  O2    s     0.554220    0.134289    0.250794    0.000000
   302  O2    s     0.814802    0.397150    0.580416    0.000000
   303  O2    s     0.566303    0.413376    0.914731    0.000000
   304  O2    s     0.389141    0.818925    0.742466    0.000000
   305  O2    s     0.128559    0.565689    0.076683    0.000000
   306  O2    s     0.388370    0.551483    0.409752    0.000000
   307  F     s     0.425261    0.883691    0.246128    0.000000
   308  F     s     0.068563    0.525088    0.577262    0.000000
   309  F     s     0.483454    0.578470    0.905040    0.000000
   310  F     s     0.513705    0.069080    0.743166    0.000000
   311  F     s     0.835187    0.427301    0.066808    0.000000
   312  F     s     0.516054    0.428840    0.410643    0.000000
--------------------------------------------------------------------------------

  Final Cartesian lattice vectors (Angstroms) :

       11.952174    0.004402    0.001904
       -6.136754   10.387299    0.015227
       -0.075806   -0.018696   29.499868


  Final cell parameters and derivatives :

--------------------------------------------------------------------------------
       a           11.952175 Angstrom     dE/de1(xx)     0.001474 eV/strain
       b           12.064657 Angstrom     dE/de2(yy)     0.000901 eV/strain
       c           29.499972 Angstrom     dE/de3(zz)     0.001530 eV/strain
       alpha       89.884059 Degrees      dE/de4(yz)    -0.000326 eV/strain
       beta        90.138118 Degrees      dE/de5(xz)     0.000093 eV/strain
       gamma      120.553197 Degrees      dE/de6(xy)     0.000301 eV/strain
--------------------------------------------------------------------------------

  Primitive cell volume =          3663.234310 Angs**3

  Density of cell =      1.746569 g/cm**3

  Non-primitive cell volume =          3663.234310 Angs**3


  Final internal derivatives :

--------------------------------------------------------------------------------
   No.  Atomic          a             b             c           Radius
        Label          (eV)          (eV)          (eV)        (eV/Angs)
--------------------------------------------------------------------------------
      1 Ge    c       0.000000      0.000000      0.000000      0.000000
      2 Si    c      -0.000049      0.000353      0.000365      0.000000
      3 Si    c       0.000142     -0.000029     -0.000514      0.000000
      4 Si    c       0.000119      0.000160      0.000010      0.000000
      5 Si    c      -0.000133      0.000298     -0.000440      0.000000
      6 Si    c       0.000172      0.000117      0.000145      0.000000
      7 Si    c       0.000331      0.000310     -0.000340      0.000000
      8 Si    c       0.000175      0.000481      0.000116      0.000000
      9 Si    c       0.000008      0.000234     -0.000149      0.000000
     10 Si    c      -0.000062     -0.000532     -0.000486      0.000000
     11 Si    c       0.000103      0.000112      0.000204      0.000000
     12 Si    c       0.000879     -0.000237      0.005704      0.000000
     13 Si    c      -0.001215      0.002046     -0.005755      0.000000
     14 Si    c      -0.000121     -0.000008     -0.000297      0.000000
     15 Si    c       0.000137     -0.000114     -0.000025      0.000000
     16 Si    c       0.000325      0.000082     -0.000066      0.000000
     17 Si    c       0.000248      0.000343      0.000418      0.000000
     18 Si    c      -0.000239      0.000565      0.000772      0.000000
     19 Si    c       0.000374      0.000163      0.000170      0.000000
     20 Si    c      -0.000941      0.000032      0.000372      0.000000
     21 Si    c       0.000219      0.000293      0.000250      0.000000
     22 Si    c       0.000435     -0.000100     -0.001642      0.000000
     23 Si    c       0.000138      0.000063      0.000011      0.000000
     24 Si    c      -0.000162     -0.000213      0.000539      0.000000
     25 Si    c      -0.000076     -0.000044     -0.001121      0.000000
     26 Si    c      -0.000049     -0.000006      0.000153      0.000000
     27 Si    c       0.000259      0.000074      0.000048      0.000000
     28 Si    c       0.000174      0.000236     -0.000078      0.000000
     29 Si    c       0.000184     -0.000006     -0.000157      0.000000
     30 Si    c       0.000123      0.000943      0.000353      0.000000
     31 Si    c       0.000223     -0.000006     -0.000046      0.000000
     32 Si    c       0.000676     -0.000056      0.000206      0.000000
     33 Si    c      -0.000184      0.000086      0.000019      0.000000
     34 Si    c      -0.000187      0.000505     -0.000208      0.000000
     35 Si    c      -0.000112      0.000228     -0.000329      0.000000
     36 Si    c       0.000230      0.000238     -0.000343      0.000000
     37 Si    c      -0.000517      0.000165     -0.000567      0.000000
     38 Si    c       0.000043      0.000016     -0.000317      0.000000
     39 Si    c       0.000236     -0.000215     -0.000252      0.000000
     40 Si    c       0.000175      0.000130     -0.000172      0.000000
     41 Si    c       0.000393      0.000009      0.000255      0.000000
     42 Si    c       0.000133      0.000375      0.000597      0.000000
     43 Si    c       0.000256      0.000009      0.000175      0.000000
     44 Si    c      -0.000193     -0.001754     -0.003250      0.000000
     45 Si    c      -0.000078      0.000087      0.000086      0.000000
     46 Ge    c      -0.000003      0.000373     -0.000611      0.000000
     47 Si    c       0.000029      0.000245      0.000139      0.000000
     48 Si    c       0.000076     -0.000032     -0.000179      0.000000
     49 Si    c      -0.000000      0.000020     -0.000559      0.000000
     50 Si    c       0.000129      0.000123     -0.000100      0.000000
     51 Ge    c       0.000361      0.000053     -0.000525      0.000000
     52 Si    c       0.000117     -0.000093     -0.000284      0.000000
     53 Si    c      -0.000021      0.000056      0.000249      0.000000
     54 Si    c      -0.000076     -0.000035      0.002092      0.000000
     55 Si    c       0.000154      0.000076      0.000227      0.000000
     56 Si    c       0.000707      0.000813      0.001663      0.000000
     57 Si    c      -0.000219      0.000243     -0.000945      0.000000
     58 Si    c       0.000151      0.000370     -0.001257      0.000000
     59 Si    c       0.000355      0.000179     -0.000020      0.000000
     60 Si    c       0.000267      0.000190     -0.000504      0.000000
     61 O2    c       0.001302     -0.000321     -0.000284      0.000000
     62 O2    c       0.000271      0.000290      0.000057      0.000000
     63 O3    c      -0.000071     -0.000089     -0.000075      0.000000
     64 O2    c       0.000233      0.000149      0.000172      0.000000
     65 O2    c       0.000037     -0.000052     -0.000141      0.000000
     66 O2    c       0.000109     -0.000036     -0.000075      0.000000
     67 O2    c       0.000245      0.000182     -0.000126      0.000000
     68 O2    c      -0.000192      0.000100     -0.000113      0.000000
     69 O2    c      -0.000453      0.000715      0.000065      0.000000
     70 O2    c       0.000178      0.000286      0.000663      0.000000
     71 O2    c      -0.000281     -0.000549      0.001789      0.000000
     72 O2    c       0.000277      0.000270      0.000146      0.000000
     73 O3    c      -0.001741     -0.003284      0.002640      0.000000
     74 O2    c       0.000337     -0.000151      0.000013      0.000000
     75 O2    c       0.000070      0.000080     -0.000206      0.000000
     76 O2    c       0.000129     -0.000034      0.000083      0.000000
     77 O2    c      -0.000070      0.000057     -0.000291      0.000000
     78 O2    c      -0.000117      0.000311     -0.000490      0.000000
     79 O2    c       0.001790     -0.000041      0.000393      0.000000
     80 O2    c      -0.000036      0.000216     -0.000345      0.000000
     81 O3    c       0.000262     -0.000451     -0.000088      0.000000
     82 O2    c       0.000364     -0.000056     -0.000261      0.000000
     83 O2    c       0.000399     -0.000104     -0.000123      0.000000
     84 O2    c       0.000099     -0.000314      0.000451      0.000000
     85 O2    c       0.000277      0.000181      0.000291      0.000000
     86 O2    c       0.003715     -0.003394     -0.002495      0.000000
     87 O2    c      -0.000273      0.000087     -0.000052      0.000000
     88 O3    c       0.000053     -0.000191      0.000057      0.000000
     89 O2    c       0.000259      0.000154      0.000260      0.000000
     90 O2    c       0.000049     -0.000068      0.000219      0.000000
     91 O2    c       0.000106      0.000102     -0.000335      0.000000
     92 O3    c       0.000092      0.000116     -0.000382      0.000000
     93 O2    c       0.000208     -0.000453     -0.003997      0.000000
     94 O2    c       0.000214     -0.000097      0.002230      0.000000
     95 O2    c       0.000301      0.000642      0.005262      0.000000
     96 O2    c       0.000245      0.000014     -0.000223      0.000000
     97 O2    c      -0.002411      0.001911      0.000121      0.000000
     98 O2    c       0.000035     -0.000092      0.000571      0.000000
     99 O3    c       0.000197     -0.000109      0.000219      0.000000
    100 O2    c       0.000114      0.000065      0.000420      0.000000
    101 O2    c      -0.000134      0.000284     -0.000241      0.000000
    102 O2    c       0.000179      0.000118      0.000331      0.000000
    103 O2    c       0.000371      0.000051     -0.000343      0.000000
    104 O2    c      -0.003735      0.000700     -0.000407      0.000000
    105 O2    c      -0.000055      0.000570     -0.000481      0.000000
    106 O2    c      -0.000311      0.000441     -0.000187      0.000000
    107 O2    c       0.000074      0.000150     -0.000452      0.000000
    108 O2    c       0.000063      0.000146      0.000761      0.000000
    109 O2    c       0.000084      0.000209      0.000076      0.000000
    110 O2    c      -0.000170      0.000104      0.000124      0.000000
    111 O2    c      -0.000263      0.000269      0.000074      0.000000
    112 O2    c       0.000267     -0.000033     -0.000536      0.000000
    113 O3    c      -0.002269     -0.000685     -0.001981      0.000000
    114 O2    c       0.000008      0.000252     -0.000018      0.000000
    115 O2    c      -0.001331     -0.000268      0.000430      0.000000
    116 O2    c       0.000062      0.000150     -0.000234      0.000000
    117 O2    c       0.000351     -0.000033     -0.000251      0.000000
    118 O2    c       0.000141     -0.000053     -0.000148      0.000000
    119 O2    c       0.000221      0.000095     -0.000252      0.000000
    120 O2    c      -0.000062      0.000524      0.000340      0.000000
    121 O2    c       0.000336     -0.000003      0.000299      0.000000
    122 O2    c       0.000418      0.000575     -0.000387      0.000000
    123 O2    c      -0.000114      0.000224      0.000250      0.000000
    124 O3    c       0.000391     -0.000307     -0.000361      0.000000
    125 O2    c       0.000316      0.000230      0.000350      0.000000
    126 O2    c       0.000155     -0.000182      0.000250      0.000000
    127 O3    c       0.000066     -0.000730     -0.000841      0.000000
    128 O2    c       0.000010      0.000254      0.000306      0.000000
    129 O2    c       0.000209     -0.000158      0.000445      0.000000
    130 O2    c       0.000102     -0.000025      0.000521      0.000000
    131 O2    c      -0.000110      0.000265     -0.000340      0.000000
    132 O2    c       0.000043      0.000232      0.000444      0.000000
    133 O2    c       0.000171      0.000298     -0.000323      0.000000
    134 O2    c       0.000099      0.000201      0.000346      0.000000
    135 O2    c      -0.000122      0.000148     -0.000290      0.000000
    136 O2    c       0.000053      0.000242     -0.000120      0.000000
    137 O2    c       0.000263      0.000244     -0.000454      0.000000
    138 O2    c       0.000299      0.000117      0.000997      0.000000
    139 O3    c      -0.001121     -0.001676     -0.001440      0.000000
    140 O2    c       0.000274      0.000233      0.000220      0.000000
    141 O2    c      -0.000042      0.000053      0.000281      0.000000
    142 O2    c       0.000003      0.000134      0.000346      0.000000
    143 O3    c       0.000021      0.000109     -0.000142      0.000000
    144 O2    c       0.000139      0.000147      0.000167      0.000000
    145 O2    c       0.000076      0.000227     -0.000269      0.000000
    146 O2    c      -0.000055      0.000246      0.000046      0.000000
    147 O2    c       0.000023     -0.000081     -0.000307      0.000000
    148 O2    c       0.000347     -0.000089     -0.000080      0.000000
    149 O2    c       0.000082      0.000111     -0.000279      0.000000
    150 O2    c       0.000015     -0.000075      0.000667      0.000000
    151 O2    c      -0.000126      0.000044      0.001153      0.000000
    152 O2    c      -0.000009      0.000127      0.000228      0.000000
    153 O2    c       0.000214     -0.000175      0.000339      0.000000
    154 O2    c       0.000069     -0.000035      0.000198      0.000000
    155 O2    c       0.000248     -0.000092      0.000320      0.000000
    156 O2    c      -0.000182      0.000041     -0.000795      0.000000
    157 O2    c       0.000305      0.000196     -0.000268      0.000000
    158 O2    c       0.000415      0.000392      0.001379      0.000000
    159 O2    c       0.000017      0.000150     -0.000627      0.000000
    160 O3    c       0.000283     -0.000094      0.000448      0.000000
    161 O2    c       0.000017      0.000259     -0.000287      0.000000
    162 O2    c       0.000254      0.000001     -0.000226      0.000000
    163 O2    c       0.000225      0.000725      0.000485      0.000000
    164 O2    c       0.000178      0.000080     -0.000419      0.000000
    165 O2    c       0.000207      0.000081     -0.000447      0.000000
    166 O2    c       0.000246      0.000207     -0.000308      0.000000
    167 O2    c       0.000050      0.000183     -0.000344      0.000000
    168 O2    c       0.000312     -0.000155     -0.000081      0.000000
    169 O2    c       0.000252     -0.000000      0.000563      0.000000
    170 O2    c       0.000010     -0.000003     -0.000253      0.000000
    171 O2    c       0.000143      0.000019      0.000368      0.000000
    172 O2    c       0.000501     -0.000182     -0.000051      0.000000
    173 O2    c       0.000264      0.000004      0.000453      0.000000
    174 O2    c       0.000089     -0.000048      0.000162      0.000000
    175 O2    c       0.000133     -0.000005      0.000040      0.000000
    176 O2    c       0.000389      0.000036     -0.000031      0.000000
    177 O2    c       0.000793     -0.000143     -0.004350      0.000000
    178 O2    c       0.000061      0.000184     -0.000328      0.000000
    179 O2    c      -0.000059      0.000396      0.000552      0.000000
    180 O2    c       0.000325     -0.000026      0.000346      0.000000
    181 F     c       0.000121      0.000054     -0.000060      0.000000
    182 F     c       0.000127      0.000075      0.000018      0.000000
    183 F     c       0.000124      0.000209     -0.000155      0.000000
    184 F     c       0.000092      0.000067     -0.000114      0.000000
    185 F     c       0.000370     -0.000114     -0.000574      0.000000
    186 F     c       0.000216      0.000129      0.000018      0.000000
    187 O2    s       0.001131      0.000478     -0.000084      0.000000
    188 O2    s       0.000258      0.000424      0.000226      0.000000
    189 O3    s       0.000044      0.000013     -0.000523      0.000000
    190 O2    s       0.000378      0.000138      0.000053      0.000000
    191 O2    s       0.000333     -0.000197      0.000009      0.000000
    192 O2    s      -0.000132      0.000275      0.000525      0.000000
    193 O2    s       0.000506      0.000226     -0.000173      0.000000
    194 O2    s      -0.000023      0.000176     -0.000189      0.000000
    195 O2    s       0.000527     -0.000500     -0.000573      0.000000
    196 O2    s      -0.000070      0.000369     -0.000060      0.000000
    197 O2    s      -0.000206     -0.000190      0.002823      0.000000
    198 O2    s       0.000181      0.000334      0.000020      0.000000
    199 O3    s       0.000286      0.002670      0.001612      0.000000
    200 O2    s       0.000253     -0.000223     -0.000191      0.000000
    201 O2    s      -0.000061      0.000164      0.000179      0.000000
    202 O2    s       0.000278      0.000002      0.000059      0.000000
    203 O2    s       0.000297     -0.000108      0.000121      0.000000
    204 O2    s       0.000217      0.000224     -0.000427      0.000000
    205 O2    s       0.001768      0.000635     -0.000574      0.000000
    206 O2    s      -0.000066      0.000252     -0.000614      0.000000
    207 O3    s       0.000374     -0.000240     -0.000715      0.000000
    208 O2    s       0.000276     -0.000050     -0.000531      0.000000
    209 O2    s       0.000234      0.000140     -0.000245      0.000000
    210 O2    s       0.000062     -0.000113      0.000404      0.000000
    211 O2    s       0.000324      0.000182      0.000596      0.000000
    212 O2    s       0.002221     -0.001836     -0.002520      0.000000
    213 O2    s      -0.000181     -0.000021     -0.000265      0.000000
    214 O3    s       0.000167     -0.000365      0.000471      0.000000
    215 O2    s       0.000374      0.000149      0.000605      0.000000
    216 O2    s       0.000174      0.000062      0.001103      0.000000
    217 O2    s       0.000315      0.000206     -0.000028      0.000000
    218 O3    s       0.000288      0.000300     -0.000144      0.000000
    219 O2    s       0.000313     -0.000854     -0.002741      0.000000
    220 O2    s       0.000348     -0.000029      0.001179      0.000000
    221 O2    s      -0.000093      0.001875      0.003622      0.000000
    222 O2    s       0.000233      0.000072     -0.000114      0.000000
    223 O2    s      -0.001417      0.001293      0.000288      0.000000
    224 O2    s      -0.000006      0.000001      0.000867      0.000000
    225 O3    s       0.000259      0.000025      0.000400      0.000000
    226 O2    s       0.000205      0.000011      0.000571      0.000000
    227 O2    s       0.000228      0.000206      0.000054      0.000000
    228 O2    s       0.000065      0.000153      0.000642      0.000000
    229 O2    s       0.000279      0.000135     -0.000364      0.000000
    230 O2    s      -0.003901      0.000522     -0.001245      0.000000
    231 O2    s      -0.000047      0.000335     -0.001017      0.000000
    232 O2    s      -0.000167      0.000350     -0.000877      0.000000
    233 O2    s       0.000121      0.000263     -0.000338      0.000000
    234 O2    s       0.000188      0.000188      0.001007      0.000000
    235 O2    s       0.000310      0.000311     -0.000216      0.000000
    236 O2    s       0.000043      0.000046      0.000160      0.000000
    237 O2    s       0.000958     -0.000717     -0.000190      0.000000
    238 O2    s       0.000157     -0.000017     -0.000754      0.000000
    239 O3    s       0.000896      0.000606      0.000172      0.000000
    240 O2    s      -0.000008      0.000423      0.000090      0.000000
    241 O2    s      -0.001305      0.001853     -0.001869      0.000000
    242 O2    s      -0.000001      0.000093     -0.000292      0.000000
    243 O2    s       0.000305     -0.000101     -0.000480      0.000000
    244 O2    s       0.000246      0.000034     -0.000251      0.000000
    245 O2    s       0.000332      0.000213     -0.000562      0.000000
    246 O2    s       0.000811     -0.000441      0.000619      0.000000
    247 O2    s       0.000556     -0.000031      0.000530      0.000000
    248 O2    s      -0.000022     -0.000193     -0.001015      0.000000
    249 O2    s       0.000004      0.000194      0.000231      0.000000
    250 O3    s      -0.000739      0.000364      0.001034      0.000000
    251 O2    s       0.000224      0.000169      0.000377      0.000000
    252 O2    s       0.000321     -0.000037      0.001097      0.000000
    253 O3    s       0.000717      0.000000     -0.000039      0.000000
    254 O2    s       0.000008      0.000298      0.000683      0.000000
    255 O2    s       0.000165     -0.000049      0.000241      0.000000
    256 O2    s       0.000153      0.000066      0.000505      0.000000
    257 O2    s       0.000476     -0.000135      0.000165      0.000000
    258 O2    s       0.000226      0.000059      0.001039      0.000000
    259 O2    s       0.000357      0.000251     -0.000607      0.000000
    260 O2    s       0.000881     -0.000789     -0.000945      0.000000
    261 O2    s      -0.000000      0.000096     -0.000656      0.000000
    262 O2    s       0.000064     -0.000077     -0.000588      0.000000
    263 O2    s       0.000114      0.000274     -0.000425      0.000000
    264 O2    s      -0.000458      0.000278      0.000126      0.000000
    265 O3    s       0.000753     -0.001277      0.003027      0.000000
    266 O2    s       0.000138      0.000338      0.000593      0.000000
    267 O2    s      -0.000079      0.000074      0.000154      0.000000
    268 O2    s       0.000154      0.000150      0.000556      0.000000
    269 O3    s       0.000595     -0.000655      0.000832      0.000000
    270 O2    s       0.000372      0.000098      0.000920      0.000000
    271 O2    s       0.000007      0.000292     -0.000558      0.000000
    272 O2    s       0.000814     -0.000198     -0.001082      0.000000
    273 O2    s       0.000046     -0.000066     -0.000799      0.000000
    274 O2    s       0.000030     -0.000050     -0.000518      0.000000
    275 O2    s       0.000105      0.000161     -0.000362      0.000000
    276 O2    s       0.000082     -0.000494      0.001343      0.000000
    277 O2    s       0.000187      0.000099      0.001279      0.000000
    278 O2    s      -0.000096      0.000165      0.000008      0.000000
    279 O2    s       0.000334     -0.000105      0.000110      0.000000
    280 O2    s       0.000102      0.000072      0.000109      0.000000
    281 O2    s       0.000371      0.000033      0.000100      0.000000
    282 O2    s       0.000529     -0.000508      0.000429      0.000000
    283 O2    s       0.000429      0.000279     -0.000125      0.000000
    284 O2    s      -0.000443      0.000174      0.001693      0.000000
    285 O2    s      -0.000053      0.000136     -0.000417      0.000000
    286 O3    s      -0.000814     -0.000349     -0.000229      0.000000
    287 O2    s       0.000117      0.000237     -0.000156      0.000000
    288 O2    s       0.000546      0.000122     -0.000098      0.000000
    289 O2    s      -0.001237      0.000190     -0.002436      0.000000
    290 O2    s       0.000190      0.000100     -0.000747      0.000000
    291 O2    s       0.000109      0.000057     -0.000795      0.000000
    292 O2    s       0.000373      0.000144     -0.000487      0.000000
    293 O2    s       0.000040      0.000181     -0.000734      0.000000
    294 O2    s       0.000320     -0.000088      0.000777      0.000000
    295 O2    s       0.000347      0.000053      0.000767      0.000000
    296 O2    s       0.000394     -0.000489      0.000046      0.000000
    297 O2    s       0.000223      0.000061      0.000366      0.000000
    298 O2    s       0.000054      0.000448      0.000904      0.000000
    299 O2    s       0.000364     -0.000015      0.000509      0.000000
    300 O2    s       0.000187     -0.000125      0.000861      0.000000
    301 O2    s       0.000079     -0.000133      0.000017      0.000000
    302 O2    s       0.000408      0.000064     -0.000014      0.000000
    303 O2    s      -0.000690      0.001740     -0.002322      0.000000
    304 O2    s       0.000273      0.000410     -0.000036      0.000000
    305 O2    s       0.000698     -0.000749      0.000745      0.000000
    306 O2    s       0.000622     -0.000027      0.000339      0.000000
    307 F     s       0.000188      0.000003      0.000041      0.000000
    308 F     s       0.000115      0.000041     -0.000045      0.000000
    309 F     s       0.000366     -0.000240      0.000171      0.000000
    310 F     s       0.000141      0.000150     -0.000289      0.000000
    311 F     s      -0.000538      0.000237     -0.001054      0.000000
    312 F     s       0.000229      0.000133      0.000145      0.000000
--------------------------------------------------------------------------------
  Maximum abs         0.003901      0.003394      0.005755      0.000000
--------------------------------------------------------------------------------


  Time to end of optimisation =      53.0919 seconds


  Peak dynamic memory used =      19.13 MB 


  Timing analysis for GULP :

--------------------------------------------------------------------------------
  Task / Subroutine                                          Time (Seconds)
--------------------------------------------------------------------------------
  Calculation of reciprocal space energy and derivatives          1.3753
  Calculation of real space energy and derivatives               46.3293
  Calculation of three-body energy and derivatives                4.5509
  Calculation of matrix inversion                                 0.7437
  Global summation overhead                                       0.0001
--------------------------------------------------------------------------------
  Total CPU time                                                 53.0920
--------------------------------------------------------------------------------


  Dump file written as out.res                                                 
  CIF file written as out.cif                                                 


  Job Finished at 17:19.11 11th November   2016                               

