********************************************************************************
*                       GENERAL UTILITY LATTICE PROGRAM                        *
*                                 Julian Gale                                  *
*                      Nanochemistry Research Institute                        *
*                           Department of Chemistry                            *
*                    Curtin University, Western Australia                      *
********************************************************************************
* Version = 4.2.0 * Last modified =  20th January 2014                         *
********************************************************************************
*  optimise     - perform optimisation run                                     *
*  conp         - constant pressure calculation                                *
*  qok          - running with non charge neutral cell is OK                   *
********************************************************************************

  Job Started  at 12:56.22 12th November   2016                               

  Number of CPUs =     1


  Total number of configurations input =   1

********************************************************************************
*  Input for Configuration =   1                                               *
********************************************************************************

  Formula = Ge3Si57O120F6                                               

  Number of irreducible atoms/shells =     312


  Total number atoms/shells =     312

  Dimensionality = 3               :  Bulk   


  Charge on solid   =  -6.000000 =>neutralising background added


  Cartesian lattice vectors (Angstroms) :

       11.970816    0.000000    0.000000
       -6.092593   10.378293    0.000000
       -0.139764   -0.201925   29.496288

  Cell parameters (Angstroms/Degrees):

  a =      11.9708    alpha =  90.2008
  b =      12.0345    beta  =  90.2715
  c =      29.4973    gamma = 120.4151

  Initial cell volume =        3664.519581 Angs**3

  Temperature of configuration =  0.000     K 

  Pressure of configuration =         0.000 GPa 

  Fractional coordinates of asymmetric unit :

--------------------------------------------------------------------------------
   No.  Atomic       x           y          z         Charge      Occupancy
        Label      (Frac)      (Frac)     (Frac)        (e)         (Frac)  
--------------------------------------------------------------------------------
      1 Ge    c    0.699600    0.375700    0.033890     4.00000    1.000000    
      2 Si    c    0.621443 *  0.321972 *  0.365486 *   4.00000    1.000000    
      3 Si    c    0.679469 *  0.299337 *  0.699140 *   4.00000    1.000000    
      4 Si    c    0.297653 *  0.623190 *  0.529892 *   4.00000    1.000000    
      5 Si    c    0.377985 *  0.677250 *  0.862610 *   4.00000    1.000000    
      6 Si    c    0.316923 *  0.701915 *  0.197963 *   4.00000    1.000000    
      7 Si    c    0.377235 *  0.698360 *  0.297837 *   4.00000    1.000000    
      8 Si    c    0.321262 *  0.622417 *  0.962675 *   4.00000    1.000000    
      9 Si    c    0.300799 *  0.674478 *  0.630899 *   4.00000    1.000000    
     10 Si    c    0.620320 *  0.297646 *  0.799153 *   4.00000    1.000000    
     11 Si    c    0.675066 *  0.380121 *  0.466063 *   4.00000    1.000000    
     12 Si    c    0.683594 *  0.320612 *  0.132838 *   4.00000    1.000000    
     13 Si    c    0.529428 *  0.417585 *  0.966376 *   4.00000    1.000000    
     14 Si    c    0.585343 *  0.109680 *  0.302029 *   4.00000    1.000000    
     15 Si    c    0.887364 *  0.465457 *  0.632754 *   4.00000    1.000000    
     16 Si    c    0.467544 *  0.583288 *  0.464702 *   4.00000    1.000000    
     17 Si    c    0.413871 *  0.886011 *  0.797746 *   4.00000    1.000000    
     18 Si    c    0.107868 *  0.537690 *  0.129099 *   4.00000    1.000000    
     19 Si    c    0.416228 *  0.527087 *  0.362903 *   4.00000    1.000000    
     20 Si    c    0.105906 *  0.582410 *  0.026070 *   4.00000    1.000000    
     21 Si    c    0.469095 *  0.886028 *  0.696436 *   4.00000    1.000000    
     22 Si    c    0.582517 *  0.470328 *  0.864321 *   4.00000    1.000000    
     23 Si    c    0.886560 *  0.418715 *  0.530959 *   4.00000    1.000000    
     24 Si    c    0.529201 *  0.113652 *  0.201030 *   4.00000    1.000000    
     25 Si    c    0.301577 *  0.399893 *  0.848843 *   4.00000    1.000000    
     26 Si    c    0.595686 *  0.904348 *  0.183152 *   4.00000    1.000000    
     27 Si    c    0.096140 *  0.700572 *  0.517222 *   4.00000    1.000000    
     28 Si    c    0.697472 *  0.598545 *  0.350091 *   4.00000    1.000000    
     29 Si    c    0.402230 *  0.096504 *  0.682002 *   4.00000    1.000000    
     30 Si    c    0.889575 *  0.293255 *  0.012399 *   4.00000    1.000000    
     31 Si    c    0.396364 *  0.303715 *  0.479663 *   4.00000    1.000000    
     32 Si    c    0.891357 *  0.605941 *  0.141174 *   4.00000    1.000000    
     33 Si    c    0.695807 *  0.095903 *  0.813692 *   4.00000    1.000000    
     34 Si    c    0.598894 *  0.698603 *  0.978762 *   4.00000    1.000000    
     35 Si    c    0.098488 *  0.396112 *  0.644765 *   4.00000    1.000000    
     36 Si    c    0.302982 *  0.899983 *  0.315152 *   4.00000    1.000000    
     37 Si    c    0.250490 *  0.343125 *  0.948866 *   4.00000    1.000000    
     38 Si    c    0.660457 *  0.908946 *  0.283129 *   4.00000    1.000000    
     39 Si    c    0.090280 *  0.744217 *  0.618399 *   4.00000    1.000000    
     40 Si    c    0.746862 *  0.659391 *  0.450549 *   4.00000    1.000000    
     41 Si    c    0.337786 *  0.087088 *  0.781782 *   4.00000    1.000000    
     42 Si    c    0.900346 *  0.254470 *  0.115390 *   4.00000    1.000000    
     43 Si    c    0.339668 *  0.249642 *  0.378952 *   4.00000    1.000000    
     44 Si    c    0.899431 *  0.659743 *  0.038320 *   4.00000    1.000000    
     45 Si    c    0.747679 *  0.089799 *  0.713393 *   4.00000    1.000000    
     46 Si    c    0.658998 *  0.748808 *  0.878374 *   4.00000    1.000000    
     47 Si    c    0.088387 *  0.341951 *  0.543715 *   4.00000    1.000000    
     48 Si    c    0.249451 *  0.910887 *  0.215064 *   4.00000    1.000000    
     49 Si    c    0.972501 *  0.123112 *  0.963003 *   4.00000    1.000000    
     50 Si    c    0.877080 *  0.844539 *  0.298600 *   4.00000    1.000000    
     51 Ge    c    0.149959 *  0.026566 *  0.631258 *   4.00000    1.000000    
     52 Si    c    0.027613 *  0.877930 *  0.464768 *   4.00000    1.000000    
     53 Si    c    0.121600 *  0.150944 *  0.797667 *   4.00000    1.000000    
     54 Ge    c    0.846698 *  0.975160 *  0.131616 *   4.00000    1.000000    
     55 Si    c    0.121884 *  0.967482 *  0.363975 *   4.00000    1.000000    
     56 Si    c    0.850483 *  0.882037 *  0.028035 *   4.00000    1.000000    
     57 Si    c    0.026798 *  0.150709 *  0.696923 *   4.00000    1.000000    
     58 Si    c    0.877987 *  0.028040 *  0.862488 *   4.00000    1.000000    
     59 Si    c    0.146659 *  0.123712 *  0.528666 *   4.00000    1.000000    
     60 Si    c    0.970513 *  0.852059 *  0.197175 *   4.00000    1.000000    
     61 O2    c    0.928217 *  0.003939 *  0.996097 *   0.87073    1.000000    
     62 O2    c    0.002010 *  0.927102 *  0.330134 *   0.87073    1.000000    
     63 O3    c    0.058972 *  0.064316 *  0.665448 *   1.33043    1.000000    
     64 O2    c    0.069974 *  0.004437 *  0.494387 *   0.87073    1.000000    
     65 O2    c    0.997978 *  0.069501 *  0.829226 *   0.87073    1.000000    
     66 O3    c    0.938994 *  0.943260 *  0.168160 *   1.33043    1.000000    
     67 O2    c    0.340169 *  0.575189 *  0.329814 *   0.87073    1.000000    
     68 O2    c    0.424035 *  0.760817 *  0.663941 *   0.87073    1.000000    
     69 O2    c    0.232467 *  0.657915 *  0.994537 *   0.87073    1.000000    
     70 O2    c    0.658023 *  0.419521 *  0.832339 *   0.87073    1.000000    
     71 O2    c    0.576888 *  0.242696 *  0.171566 *   0.87073    1.000000    
     72 O2    c    0.759462 *  0.342152 *  0.498707 *   0.87073    1.000000    
     73 O3    c    0.566462 *  0.336441 *  0.998518 *   1.33043    1.000000    
     74 O2    c    0.765003 *  0.420635 *  0.666157 *   0.87073    1.000000    
     75 O2    c    0.661506 *  0.235495 *  0.334602 *   0.87073    1.000000    
     76 O2    c    0.419410 *  0.661132 *  0.496490 *   0.87073    1.000000    
     77 O2    c    0.229717 *  0.583141 *  0.163204 *   0.87073    1.000000    
     78 O2    c    0.338368 *  0.760450 *  0.829838 *   0.87073    1.000000    
     79 O2    c    0.126294 *  0.215856 *  0.969425 *   0.87073    1.000000    
     80 O2    c    0.786739 *  0.908264 *  0.302972 *   0.87073    1.000000    
     81 O3    c    0.086734 *  0.864212 *  0.639912 *   1.33043    1.000000    
     82 O2    c    0.873199 *  0.786438 *  0.470868 *   0.87073    1.000000    
     83 O2    c    0.211534 *  0.086719 *  0.801832 *   0.87073    1.000000    
     84 O3    c    0.907917 *  0.138607 *  0.138151 *   1.33043    1.000000    
     85 O2    c    0.213145 *  0.121629 *  0.359046 *   0.87073    1.000000    
     86 O2    c    0.917062 *  0.795687 *  0.020876 *   0.87073    1.000000    
     87 O2    c    0.872584 *  0.090569 *  0.692774 *   0.87073    1.000000    
     88 O2    c    0.786136 *  0.873755 *  0.857931 *   0.87073    1.000000    
     89 O2    c    0.086198 *  0.216430 *  0.522356 *   0.87073    1.000000    
     90 O2    c    0.124873 *  0.911910 *  0.194466 *   0.87073    1.000000    
     91 O2    c    0.925256 *  0.850929 *  0.248019 *   0.87073    1.000000    
     92 O3    c    0.125106 *  0.064598 *  0.577712 *   1.33043    1.000000    
     93 O2    c    0.935663 *  0.069092 *  0.912473 *   0.87073    1.000000    
     94 O2    c    0.070146 *  0.141818 *  0.747257 *   0.87073    1.000000    
     95 O3    c    0.869452 *  0.934145 *  0.078752 *   1.33043    1.000000    
     96 O2    c    0.064959 *  0.923622 *  0.413574 *   0.87073    1.000000    
     97 O2    c    0.901541 *  0.202424 *  0.974640 *   0.87073    1.000000    
     98 O2    c    0.795792 *  0.694360 *  0.311834 *   0.87073    1.000000    
     99 O3    c    0.313129 *  0.103591 *  0.642337 *   1.33043    1.000000    
    100 O2    c    0.098136 *  0.799153 *  0.479268 *   0.87073    1.000000    
    101 O2    c    0.204219 *  0.301890 *  0.810248 *   0.87073    1.000000    
    102 O3    c    0.684094 *  0.898198 *  0.143541 *   1.33043    1.000000    
    103 O2    c    0.205001 *  0.898528 *  0.353308 *   0.87073    1.000000    
    104 O2    c    0.696637 *  0.798021 *  0.017395 *   0.87073    1.000000    
    105 O2    c    0.101874 *  0.300846 *  0.682703 *   0.87073    1.000000    
    106 O2    c    0.794481 *  0.096570 *  0.851838 *   0.87073    1.000000    
    107 O2    c    0.300207 *  0.207159 *  0.518237 *   0.87073    1.000000    
    108 O2    c    0.895277 *  0.704754 *  0.179286 *   0.87073    1.000000    
    109 O2    c    0.316935 *  0.641472 *  0.247433 *   0.87073    1.000000    
    110 O2    c    0.357545 *  0.678306 *  0.580292 *   0.87073    1.000000    
    111 O2    c    0.319748 *  0.678536 *  0.912522 *   0.87073    1.000000    
    112 O2    c    0.680422 *  0.356521 *  0.749458 *   0.87073    1.000000    
    113 O3    c    0.612306 *  0.305600 *  0.085550 *   1.33043    1.000000    
    114 O2    c    0.676988 *  0.323199 *  0.416038 *   0.87073    1.000000    
    115 O2    c    0.371612 *  0.332659 *  0.966687 *   0.87073    1.000000    
    116 O2    c    0.671909 *  0.040226 *  0.303314 *   0.87073    1.000000    
    117 O2    c    0.957389 *  0.620718 *  0.635561 *   0.87073    1.000000    
    118 O2    c    0.624543 *  0.670478 *  0.467883 *   0.87073    1.000000    
    119 O2    c    0.326975 *  0.954990 *  0.800243 *   0.87073    1.000000    
    120 O2    c    0.033475 *  0.382857 *  0.130277 *   0.87073    1.000000    
    121 O2    c    0.329293 *  0.370615 *  0.359807 *   0.87073    1.000000    
    122 O2    c    0.033294 *  0.664658 *  0.023675 *   0.87073    1.000000    
    123 O2    c    0.625842 *  0.956831 *  0.694441 *   0.87073    1.000000    
    124 O2    c    0.668522 *  0.626438 *  0.860302 *   0.87073    1.000000    
    125 O2    c    0.955342 *  0.332426 *  0.526141 *   0.87073    1.000000    
    126 O2    c    0.372437 *  0.043174 *  0.197296 *   0.87073    1.000000    
    127 O3    c    0.755428 *  0.284392 *  0.002839 *   1.33043    1.000000    
    128 O2    c    0.696501 *  0.464361 *  0.342680 *   0.87073    1.000000    
    129 O2    c    0.536627 *  0.231434 *  0.676173 *   0.87073    1.000000    
    130 O2    c    0.229037 *  0.698666 *  0.508702 *   0.87073    1.000000    
    131 O2    c    0.303731 *  0.533899 *  0.839880 *   0.87073    1.000000    
    132 O2    c    0.459473 *  0.771045 *  0.175547 *   0.87073    1.000000    
    133 O2    c    0.303184 *  0.766154 *  0.320909 *   0.87073    1.000000    
    134 O2    c    0.464822 *  0.699930 *  0.985770 *   0.87073    1.000000    
    135 O2    c    0.233414 *  0.530662 *  0.652204 *   0.87073    1.000000    
    136 O2    c    0.693971 *  0.228363 *  0.821486 *   0.87073    1.000000    
    137 O2    c    0.530938 *  0.305234 *  0.487803 *   0.87073    1.000000    
    138 O2    c    0.759384 *  0.471167 *  0.150215 *   0.87073    1.000000    
    139 O3    c    0.772918 *  0.544714 *  0.017406 *   1.33043    1.000000    
    140 O2    c    0.464775 *  0.247481 *  0.359812 *   0.87073    1.000000    
    141 O2    c    0.752297 *  0.217380 *  0.694449 *   0.87073    1.000000    
    142 O2    c    0.215128 *  0.467475 *  0.524368 *   0.87073    1.000000    
    143 O2    c    0.534859 *  0.752165 *  0.858418 *   0.87073    1.000000    
    144 O2    c    0.242366 *  0.782513 *  0.194984 *   0.87073    1.000000    
    145 O2    c    0.534183 *  0.780910 *  0.301413 *   0.87073    1.000000    
    146 O2    c    0.246622 *  0.466995 *  0.968378 *   0.87073    1.000000    
    147 O2    c    0.218160 *  0.746331 *  0.637011 *   0.87073    1.000000    
    148 O2    c    0.463362 *  0.214606 *  0.801623 *   0.87073    1.000000    
    149 O2    c    0.748219 *  0.535875 *  0.470826 *   0.87073    1.000000    
    150 O2    c    0.776805 *  0.258160 *  0.134550 *   0.87073    1.000000    
    151 O2    c    0.227867 *  0.325996 *  0.894607 *   0.87073    1.000000    
    152 O2    c    0.676864 *  0.910398 *  0.228558 *   0.87073    1.000000    
    153 O2    c    0.095095 *  0.770276 *  0.564146 *   0.87073    1.000000    
    154 O2    c    0.768120 *  0.675015 *  0.396351 *   0.87073    1.000000    
    155 O2    c    0.320116 *  0.087519 *  0.727199 *   0.87073    1.000000    
    156 O2    c    0.892786 *  0.230296 *  0.061207 *   0.87073    1.000000    
    157 O2    c    0.321652 *  0.232096 *  0.433168 *   0.87073    1.000000    
    158 O2    c    0.891406 *  0.670602 *  0.093613 *   0.87073    1.000000    
    159 O2    c    0.766402 *  0.091587 *  0.767650 *   0.87073    1.000000    
    160 O2    c    0.676035 *  0.768302 *  0.932755 *   0.87073    1.000000    
    161 O2    c    0.093094 *  0.322807 *  0.597841 *   0.87073    1.000000    
    162 O2    c    0.232620 *  0.908155 *  0.269332 *   0.87073    1.000000    
    163 O2    c    0.581393 *  0.559604 *  0.988754 *   0.87073    1.000000    
    164 O2    c    0.444291 *  0.023220 *  0.324953 *   0.87073    1.000000    
    165 O2    c    0.972410 *  0.407929 *  0.654243 *   0.87073    1.000000    
    166 O2    c    0.410571 *  0.442922 *  0.487821 *   0.87073    1.000000    
    167 O2    c    0.555218 *  0.970723 *  0.821478 *   0.87073    1.000000    
    168 O2    c    0.016373 *  0.590125 *  0.147491 *   0.87073    1.000000    
    169 O2    c    0.558305 *  0.585087 *  0.340450 *   0.87073    1.000000    
    170 O2    c    0.014850 *  0.437595 *  0.007247 *   0.87073    1.000000    
    171 O2    c    0.413223 *  0.969894 *  0.672727 *   0.87073    1.000000    
    172 O2    c    0.440349 *  0.411474 *  0.841216 *   0.87073    1.000000    
    173 O2    c    0.968617 *  0.561205 *  0.508781 *   0.87073    1.000000    
    174 O2    c    0.586430 *  0.032644 *  0.175881 *   0.87073    1.000000    
    175 O2    c    0.583848 *  0.164004 *  0.251898 *   0.87073    1.000000    
    176 O2    c    0.832298 *  0.413062 *  0.581860 *   0.87073    1.000000    
    177 O2    c    0.584115 *  0.421856 *  0.915326 *   0.87073    1.000000    
    178 O2    c    0.413836 *  0.832978 *  0.746882 *   0.87073    1.000000    
    179 O2    c    0.155642 *  0.585882 *  0.077950 *   0.87073    1.000000    
    180 O2    c    0.415063 *  0.581081 *  0.413469 *   0.87073    1.000000    
    181 F     c    0.451497 *  0.902630 *  0.248316 *   0.56000    1.000000    
    182 F     c    0.096534 *  0.546912 *  0.580592 *   0.56000    1.000000    
    183 F     c    0.448165 *  0.552250 *  0.913335 *   0.56000    1.000000    
    184 F     c    0.545212 *  0.094940 *  0.747117 *   0.56000    1.000000    
    185 F     c    0.851085 *  0.436233 *  0.070224 *   0.56000    1.000000    
    186 F     c    0.546946 *  0.451385 *  0.414188 *   0.56000    1.000000    
    187 O2    s    0.924432 *  0.003741 *  0.995938 *  -2.87073    1.000000    
    188 O2    s    0.001365 *  0.922350 *  0.330379 *  -2.87073    1.000000    
    189 O3    s    0.063426 *  0.070385 *  0.665874 *  -3.33043    1.000000    
    190 O2    s    0.073634 *  0.003233 *  0.494800 *  -2.87073    1.000000    
    191 O2    s    0.998340 *  0.073924 *  0.829423 *  -2.87073    1.000000    
    192 O3    s    0.934567 *  0.936219 *  0.168174 *  -3.33043    1.000000    
    193 O2    s    0.351702 *  0.582971 *  0.329868 *  -2.87073    1.000000    
    194 O2    s    0.415959 *  0.764686 *  0.663846 *  -2.87073    1.000000    
    195 O2    s    0.228013 *  0.646403 *  0.994657 *  -2.87073    1.000000    
    196 O2    s    0.646432 *  0.412104 *  0.832157 *  -2.87073    1.000000    
    197 O2    s    0.582919 *  0.237203 *  0.170643 *  -2.87073    1.000000    
    198 O2    s    0.763757 *  0.354025 *  0.498618 *  -2.87073    1.000000    
    199 O3    s    0.572498 *  0.347895 *  0.997759 *  -3.33043    1.000000    
    200 O2    s    0.768887 *  0.412789 *  0.666106 *  -2.87073    1.000000    
    201 O2    s    0.649600 *  0.231293 *  0.334390 *  -2.87073    1.000000    
    202 O2    s    0.411977 *  0.649277 *  0.496625 *  -2.87073    1.000000    
    203 O2    s    0.225716 *  0.590366 *  0.163148 *  -2.87073    1.000000    
    204 O2    s    0.350150 *  0.764931 *  0.829871 *  -2.87073    1.000000    
    205 O2    s    0.122433 *  0.218958 *  0.966631 *  -2.87073    1.000000    
    206 O2    s    0.783181 *  0.901595 *  0.300473 *  -2.87073    1.000000    
    207 O3    s    0.092309 *  0.865468 *  0.637051 *  -3.33043    1.000000    
    208 O2    s    0.876476 *  0.782943 *  0.468131 *  -2.87073    1.000000    
    209 O2    s    0.215054 *  0.093533 *  0.799342 *  -2.87073    1.000000    
    210 O3    s    0.902179 *  0.137120 *  0.135338 *  -3.33043    1.000000    
    211 O2    s    0.216533 *  0.118491 *  0.361606 *  -2.87073    1.000000    
    212 O2    s    0.908160 *  0.791024 *  0.023389 *  -2.87073    1.000000    
    213 O2    s    0.875855 *  0.096997 *  0.695399 *  -2.87073    1.000000    
    214 O2    s    0.782823 *  0.877323 *  0.860499 *  -2.87073    1.000000    
    215 O2    s    0.092741 *  0.219689 *  0.525205 *  -2.87073    1.000000    
    216 O2    s    0.121539 *  0.905344 *  0.196932 *  -2.87073    1.000000    
    217 O2    s    0.924828 *  0.850302 *  0.248077 *  -2.87073    1.000000    
    218 O3    s    0.129634 *  0.067742 *  0.577012 *  -3.33043    1.000000    
    219 O2    s    0.933271 *  0.070549 *  0.912529 *  -2.87073    1.000000    
    220 O2    s    0.071132 *  0.143892 *  0.747336 *  -2.87073    1.000000    
    221 O3    s    0.865395 *  0.932368 *  0.078183 *  -3.33043    1.000000    
    222 O2    s    0.067263 *  0.923488 *  0.413684 *  -2.87073    1.000000    
    223 O2    s    0.908072 *  0.203300 *  0.977347 *  -2.87073    1.000000    
    224 O2    s    0.794376 *  0.700578 *  0.314350 *  -2.87073    1.000000    
    225 O3    s    0.308007 *  0.096485 *  0.645179 *  -3.33043    1.000000    
    226 O2    s    0.090444 *  0.797447 *  0.481603 *  -2.87073    1.000000    
    227 O2    s    0.205368 *  0.295746 *  0.812877 *  -2.87073    1.000000    
    228 O3    s    0.688966 *  0.905151 *  0.146375 *  -3.33043    1.000000    
    229 O2    s    0.206372 *  0.905909 *  0.350500 *  -2.87073    1.000000    
    230 O2    s    0.702859 *  0.796857 *  0.014655 *  -2.87073    1.000000    
    231 O2    s    0.093647 *  0.294962 *  0.680251 *  -2.87073    1.000000    
    232 O2    s    0.793156 *  0.089290 *  0.849057 *  -2.87073    1.000000    
    233 O2    s    0.294084 *  0.208370 *  0.515401 *  -2.87073    1.000000    
    234 O2    s    0.902827 *  0.710007 *  0.177168 *  -2.87073    1.000000    
    235 O2    s    0.322920 *  0.653239 *  0.247432 *  -2.87073    1.000000    
    236 O2    s    0.345737 *  0.672314 *  0.580283 *  -2.87073    1.000000    
    237 O2    s    0.325753 *  0.672672 *  0.912600 *  -2.87073    1.000000    
    238 O2    s    0.674270 *  0.344773 *  0.749348 *  -2.87073    1.000000    
    239 O3    s    0.625296 *  0.311723 *  0.086957 *  -3.33043    1.000000    
    240 O2    s    0.671043 *  0.328933 *  0.415927 *  -2.87073    1.000000    
    241 O2    s    0.374172 *  0.342466 *  0.964656 *  -2.87073    1.000000    
    242 O2    s    0.661873 *  0.033798 *  0.301093 *  -2.87073    1.000000    
    243 O2    s    0.964062 *  0.617319 *  0.633427 *  -2.87073    1.000000    
    244 O2    s    0.621179 *  0.660325 *  0.465723 *  -2.87073    1.000000    
    245 O2    s    0.336980 *  0.961611 *  0.798060 *  -2.87073    1.000000    
    246 O2    s    0.027520 *  0.386112 *  0.128588 *  -2.87073    1.000000    
    247 O2    s    0.339234 *  0.374094 *  0.362112 *  -2.87073    1.000000    
    248 O2    s    0.027529 *  0.655417 *  0.025392 *  -2.87073    1.000000    
    249 O2    s    0.622344 *  0.963477 *  0.696653 *  -2.87073    1.000000    
    250 O2    s    0.658716 *  0.623212 *  0.862608 *  -2.87073    1.000000    
    251 O2    s    0.962235 *  0.342347 *  0.528501 *  -2.87073    1.000000    
    252 O2    s    0.375612 *  0.036403 *  0.199574 *  -2.87073    1.000000    
    253 O3    s    0.765883 *  0.291367 *  0.005957 *  -3.33043    1.000000    
    254 O2    s    0.688914 *  0.463770 *  0.345814 *  -2.87073    1.000000    
    255 O2    s    0.537401 *  0.224260 *  0.679255 *  -2.87073    1.000000    
    256 O2    s    0.222257 *  0.691101 *  0.511796 *  -2.87073    1.000000    
    257 O2    s    0.311115 *  0.534579 *  0.843175 *  -2.87073    1.000000    
    258 O2    s    0.458659 *  0.777694 *  0.178754 *  -2.87073    1.000000    
    259 O2    s    0.310728 *  0.773224 *  0.317914 *  -2.87073    1.000000    
    260 O2    s    0.463869 *  0.691893 *  0.982657 *  -2.87073    1.000000    
    261 O2    s    0.226224 *  0.531383 *  0.649189 *  -2.87073    1.000000    
    262 O2    s    0.686632 *  0.221558 *  0.818362 *  -2.87073    1.000000    
    263 O2    s    0.531609 *  0.312815 *  0.484666 *  -2.87073    1.000000    
    264 O2    s    0.765924 *  0.470731 *  0.147525 *  -2.87073    1.000000    
    265 O3    s    0.782419 *  0.546908 *  0.020651 *  -3.33043    1.000000    
    266 O2    s    0.467631 *  0.255541 *  0.362425 *  -2.87073    1.000000    
    267 O2    s    0.743978 *  0.212074 *  0.696985 *  -2.87073    1.000000    
    268 O2    s    0.209942 *  0.470180 *  0.527015 *  -2.87073    1.000000    
    269 O2    s    0.531864 *  0.743906 *  0.860981 *  -2.87073    1.000000    
    270 O2    s    0.251064 *  0.787828 *  0.197442 *  -2.87073    1.000000    
    271 O2    s    0.531363 *  0.786189 *  0.299073 *  -2.87073    1.000000    
    272 O2    s    0.254852 *  0.470071 *  0.965743 *  -2.87073    1.000000    
    273 O2    s    0.212934 *  0.738429 *  0.634382 *  -2.87073    1.000000    
    274 O2    s    0.466281 *  0.209448 *  0.799233 *  -2.87073    1.000000    
    275 O2    s    0.740294 *  0.532973 *  0.468144 *  -2.87073    1.000000    
    276 O2    s    0.780920 *  0.264179 *  0.132274 *  -2.87073    1.000000    
    277 O2    s    0.237969 *  0.335584 *  0.895519 *  -2.87073    1.000000    
    278 O2    s    0.667055 *  0.909696 *  0.229634 *  -2.87073    1.000000    
    279 O2    s    0.094765 *  0.760434 *  0.564757 *  -2.87073    1.000000    
    280 O2    s    0.758401 *  0.665279 *  0.397211 *  -2.87073    1.000000    
    281 O2    s    0.330078 *  0.088303 *  0.728271 *  -2.87073    1.000000    
    282 O2    s    0.893176 *  0.238879 *  0.062094 *  -2.87073    1.000000    
    283 O2    s    0.331388 *  0.241474 *  0.432262 *  -2.87073    1.000000    
    284 O2    s    0.892047 *  0.662455 *  0.093440 *  -2.87073    1.000000    
    285 O2    s    0.756980 *  0.091848 *  0.766709 *  -2.87073    1.000000    
    286 O2    s    0.666250 *  0.759040 *  0.931779 *  -2.87073    1.000000    
    287 O2    s    0.093200 *  0.332395 *  0.597028 *  -2.87073    1.000000    
    288 O2    s    0.241803 *  0.907599 *  0.268331 *  -2.87073    1.000000    
    289 O2    s    0.577750 *  0.560424 *  0.985369 *  -2.87073    1.000000    
    290 O2    s    0.443812 *  0.018784 *  0.321496 *  -2.87073    1.000000    
    291 O2    s    0.977297 *  0.412863 *  0.650954 *  -2.87073    1.000000    
    292 O2    s    0.415195 *  0.442655 *  0.484517 *  -2.87073    1.000000    
    293 O2    s    0.555676 *  0.975617 *  0.818152 *  -2.87073    1.000000    
    294 O2    s    0.012679 *  0.586085 *  0.144836 *  -2.87073    1.000000    
    295 O2    s    0.558338 *  0.580261 *  0.343846 *  -2.87073    1.000000    
    296 O2    s    0.011690 *  0.438479 *  0.009807 *  -2.87073    1.000000    
    297 O2    s    0.417995 *  0.974801 *  0.676174 *  -2.87073    1.000000    
    298 O2    s    0.440300 *  0.416558 *  0.844466 *  -2.87073    1.000000    
    299 O2    s    0.973956 *  0.561393 *  0.511988 *  -2.87073    1.000000    
    300 O2    s    0.581384 *  0.027273 *  0.179234 *  -2.87073    1.000000    
    301 O2    s    0.578226 *  0.152955 *  0.251805 *  -2.87073    1.000000    
    302 O2    s    0.843593 *  0.419048 *  0.581850 *  -2.87073    1.000000    
    303 O2    s    0.578524 *  0.426612 *  0.915057 *  -2.87073    1.000000    
    304 O2    s    0.419543 *  0.843927 *  0.746896 *  -2.87073    1.000000    
    305 O2    s    0.145624 *  0.580459 *  0.078120 *  -2.87073    1.000000    
    306 O2    s    0.420552 *  0.575715 *  0.413513 *  -2.87073    1.000000    
    307 F     s    0.451350 *  0.902236 *  0.248183 *  -1.56000    1.000000    
    308 F     s    0.096916 *  0.547065 *  0.580551 *  -1.56000    1.000000    
    309 F     s    0.447623 *  0.552776 *  0.913285 *  -1.56000    1.000000    
    310 F     s    0.545227 *  0.095281 *  0.747005 *  -1.56000    1.000000    
    311 F     s    0.841077 *  0.432251 *  0.068014 *  -1.56000    1.000000    
    312 F     s    0.547168 *  0.451209 *  0.414125 *  -1.56000    1.000000    
--------------------------------------------------------------------------------



********************************************************************************
*  General input information                                                   *
********************************************************************************

  Species output for all configurations : 

--------------------------------------------------------------------------------
  Species    Type    Atomic    Atomic    Charge       Radii (Angs)     Library
                     Number     Mass       (e)     Cova   Ionic  VDW   Symbol
--------------------------------------------------------------------------------
    Si       Core       14      28.09   4.000000   1.200  0.000  2.100          
    O1       Core        8      16.00   1.733957   0.730  0.000  1.360          
    O1       Shell       8       0.00  -3.733957   0.730  0.000  1.360          
    O2       Core        8      16.00   0.870733   0.730  0.000  1.360          
    O2       Shell       8       0.00  -2.870733   0.730  0.000  1.360          
    O3       Core        8      16.00   1.330431   0.730  0.000  1.360          
    O3       Shell       8       0.00  -3.330431   0.730  0.000  1.360          
    F        Core        9      19.00   0.560000   0.710  0.000  1.300          
    F        Shell       9       0.00  -1.560000   0.710  0.000  1.300          
    Ge       Core       32      72.61   4.000000   1.170  0.000  1.750          
--------------------------------------------------------------------------------


  Lattice summation method               =    Ewald          (3-D)
                                         =    Parry          (2-D)
                                         =    Saunders et al (1-D)
  Accuracy factor for lattice sums       =   12.000


  Time limit = Infinity

  Maximum range for interatomic potentials =        16.000000 Angstroms

  Taper potentials to zero over   1.0000 Angstroms using polynomial

  General interatomic potentials :

--------------------------------------------------------------------------------
Atom  Types   Potential         A         B         C         D     Cutoffs(Ang)
  1     2                                                            Min    Max 
--------------------------------------------------------------------------------
Si   c O1   s Buckingham    0.132E+04 0.318      10.1      0.00     0.000 16.000
Si   c O2   s Buckingham    0.132E+04 0.318      10.1      0.00     0.000 16.000
Si   c O3   s Buckingham    0.132E+04 0.318      10.1      0.00     0.000 16.000
Ge   c O1   s Buckingham    0.150E+04 0.326      16.8      0.00     0.000 16.000
Ge   c O2   s Buckingham    0.150E+04 0.326      16.8      0.00     0.000 16.000
Ge   c O3   s Buckingham    0.150E+04 0.326      16.8      0.00     0.000 16.000
O1   s O1   s Buckingham    0.228E+05 0.149      10.9      0.00     0.000 16.000
O1   s O2   s Buckingham    0.228E+05 0.149      10.9      0.00     0.000 16.000
O1   s O3   s Buckingham    0.228E+05 0.149      10.9      0.00     0.000 16.000
O2   s O2   s Buckingham    0.228E+05 0.149      10.9      0.00     0.000 16.000
O2   s O3   s Buckingham    0.228E+05 0.149      10.9      0.00     0.000 16.000
O3   s O3   s Buckingham    0.228E+05 0.149      10.9      0.00     0.000 16.000
Si   c F    s Buckingham     977.     0.282      0.00      0.00     0.000 16.000
Ge   c F    s Buckingham     681.     0.320      0.00      0.00     0.000 16.000
F    s F    s Buckingham     540.     0.262      0.00      0.00     0.000 16.000
O1   s F    s Buckingham    0.168E+04 0.268      0.00      0.00     0.000 16.000
O2   s F    s Buckingham    0.168E+04 0.268      0.00      0.00     0.000 16.000
O3   s F    s Buckingham    0.168E+04 0.268      0.00      0.00     0.000 16.000
O2   c O2   s Spring (c-s)   76.0      0.00      0.00      0.00     0.000  0.800
O3   c O3   s Spring (c-s)   128.      0.00      0.00      0.00     0.000  0.800
O1   c O1   s Spring (c-s)   180.      0.00      0.00      0.00     0.000  0.800
F    c F    s Spring (c-s)   33.5      0.00      0.00      0.00     0.000  0.800
--------------------------------------------------------------------------------

  General Three-body potentials :

  Harmonic form:

--------------------------------------------------------------------------------
Atom    Atom    Atom           Force Constants            Theta     Cutoffs  
  1       2       3     (eVrad**-2/eVrad**-3/eVrad**-4)   (deg)  1-2  1-3  2-3
--------------------------------------------------------------------------------
Si    c O1    s O1    s  1.261        0.0000    0.0000   109.470 0.00 0.00 0.00
                                                                 1.90 1.90 3.50
Si    c O1    s O2    s  1.261        0.0000    0.0000   109.470 0.00 0.00 0.00
                                                                 1.90 1.90 3.50
Si    c O2    s O2    s  1.261        0.0000    0.0000   109.470 0.00 0.00 0.00
                                                                 1.90 1.90 3.50
--------------------------------------------------------------------------------

********************************************************************************
*  Output for configuration   1                                                *
********************************************************************************


  Components of energy : 

--------------------------------------------------------------------------------
  Interatomic potentials     =        2060.41777602 eV
  Three-body potentials      =           0.44393099 eV
  Monopole - monopole (real) =       -6611.30447414 eV
  Monopole - monopole (recip)=       -3169.12554411 eV
  Monopole - monopole (total)=       -9780.43001825 eV
  Neutralising energy        =          -6.45549570 eV
--------------------------------------------------------------------------------
  Total lattice energy       =       -7726.02380694 eV
--------------------------------------------------------------------------------
  Total lattice energy       =         -745443.1943 kJ/(mole unit cells)
--------------------------------------------------------------------------------


  Number of variables =      939

  Maximum number of calculations  =          5000
  Maximum Hessian update interval =            10
  Maximum step size               =   0.100000000
  Maximum parameter tolerance     =   0.000010000
  Maximum function  tolerance     =   0.000010000
  Maximum gradient  tolerance     =   0.001000000
  Maximum gradient  component     =   0.010000000

  Symmetry not applied to optimisation

  Cell parameters to be optimised using strains

  Newton-Raphson optimiser to be used

  BFGS hessian update to be used

  Dumpfile to be written after every cycle

  Start of bulk optimisation :

  Cycle:      0 Energy:     -7726.023807  Gnorm:      0.012883  CPU:    2.033
  ** Hessian calculated **
  Cycle:      1 Energy:     -7726.024147  Gnorm:      0.003628  CPU:    5.326
  Cycle:      2 Energy:     -7726.024215  Gnorm:      0.002141  CPU:    8.244
  Cycle:      3 Energy:     -7726.024270  Gnorm:      0.001544  CPU:   11.156
  Cycle:      4 Energy:     -7726.024332  Gnorm:      0.001339  CPU:   14.072
  Cycle:      5 Energy:     -7726.024560  Gnorm:      0.002599  CPU:   19.102
  Cycle:      6 Energy:     -7726.024920  Gnorm:      0.005117  CPU:   24.131
  Cycle:      7 Energy:     -7726.025328  Gnorm:      0.007643  CPU:   28.451
  Cycle:      8 Energy:     -7726.025838  Gnorm:      0.010626  CPU:   32.774
  Cycle:      9 Energy:     -7726.026508  Gnorm:      0.013654  CPU:   37.099
  Cycle:     10 Energy:     -7726.027403  Gnorm:      0.016332  CPU:   41.425
  ** Hessian calculated **
  Cycle:     11 Energy:     -7726.028216  Gnorm:      0.006077  CPU:   46.735
  Cycle:     12 Energy:     -7726.028535  Gnorm:      0.004074  CPU:   50.355
  Cycle:     13 Energy:     -7726.028819  Gnorm:      0.003055  CPU:   54.676
  Cycle:     14 Energy:     -7726.029002  Gnorm:      0.002823  CPU:   58.293
  Cycle:     15 Energy:     -7726.029153  Gnorm:      0.002820  CPU:   61.910
  Cycle:     16 Energy:     -7726.029315  Gnorm:      0.002818  CPU:   66.231
  Cycle:     17 Energy:     -7726.029467  Gnorm:      0.002627  CPU:   69.849
  Cycle:     18 Energy:     -7726.029594  Gnorm:      0.002533  CPU:   72.762
  Cycle:     19 Energy:     -7726.029900  Gnorm:      0.003008  CPU:   77.787
  Cycle:     20 Energy:     -7726.030287  Gnorm:      0.003683  CPU:   82.111
  ** Hessian calculated **
  Cycle:     21 Energy:     -7726.030745  Gnorm:      0.003672  CPU:   88.152
  Cycle:     22 Energy:     -7726.031521  Gnorm:      0.003654  CPU:   93.180
  Cycle:     23 Energy:     -7726.032723  Gnorm:      0.003625  CPU:   98.206
  Cycle:     24 Energy:     -7726.034531  Gnorm:      0.003581  CPU:  103.234
  Cycle:     25 Energy:     -7726.036766  Gnorm:      0.003525  CPU:  107.560
  Cycle:     26 Energy:     -7726.040492  Gnorm:      0.003431  CPU:  112.588
  Cycle:     27 Energy:     -7726.046098  Gnorm:      0.003283  CPU:  117.614
  Cycle:     28 Energy:     -7726.052827  Gnorm:      0.003096  CPU:  121.934
  Cycle:     29 Energy:     -7726.063403  Gnorm:      0.002774  CPU:  126.958
  Cycle:     30 Energy:     -7726.075365  Gnorm:      0.002359  CPU:  131.277
  ** Hessian calculated **
  Cycle:     31 Energy:     -7726.089896  Gnorm:      0.001732  CPU:  137.292
  Cycle:     32 Energy:     -7726.101865  Gnorm:      0.001094  CPU:  141.613
  Cycle:     33 Energy:     -7726.104978  Gnorm:      0.000709  CPU:  145.933
  Cycle:     34 Energy:     -7726.105746  Gnorm:      0.000401  CPU:  150.254
  Cycle:     35 Energy:     -7726.105938  Gnorm:      0.000214  CPU:  154.573
  Cycle:     36 Energy:     -7726.105971  Gnorm:      0.000152  CPU:  157.485
  Cycle:     37 Energy:     -7726.105987  Gnorm:      0.000107  CPU:  160.395
  Cycle:     38 Energy:     -7726.105995  Gnorm:      0.000075  CPU:  163.306
  Cycle:     39 Energy:     -7726.105999  Gnorm:      0.000053  CPU:  166.217
  Cycle:     40 Energy:     -7726.106001  Gnorm:      0.000037  CPU:  169.129
  ** Hessian calculated **


  **** Optimisation achieved ****


  Final energy =   -7726.10600070 eV
  Final Gnorm  =       0.00002129

  Components of energy : 

--------------------------------------------------------------------------------
  Interatomic potentials     =        2060.64004837 eV
  Three-body potentials      =           0.44876441 eV
  Monopole - monopole (real) =       -6612.72784581 eV
  Monopole - monopole (recip)=       -3168.01373379 eV
  Monopole - monopole (total)=       -9780.74157959 eV
  Neutralising energy        =          -6.45323389 eV
--------------------------------------------------------------------------------
  Total lattice energy       =       -7726.10600070 eV
--------------------------------------------------------------------------------
  Total lattice energy       =         -745451.1247 kJ/(mole unit cells)
--------------------------------------------------------------------------------

  Final fractional coordinates of atoms :

--------------------------------------------------------------------------------
   No.  Atomic        x           y          z          Radius
        Label       (Frac)      (Frac)     (Frac)       (Angs) 
--------------------------------------------------------------------------------
     1  Ge    c     0.699600    0.375700    0.033890    0.000000
     2  Si    c     0.598670    0.308082    0.365496    0.000000
     3  Si    c     0.661815    0.286797    0.699409    0.000000
     4  Si    c     0.275425    0.609201    0.529805    0.000000
     5  Si    c     0.363539    0.665694    0.862573    0.000000
     6  Si    c     0.299267    0.691890    0.198188    0.000000
     7  Si    c     0.356760    0.685969    0.298181    0.000000
     8  Si    c     0.309627    0.612867    0.962896    0.000000
     9  Si    c     0.282532    0.662707    0.630908    0.000000
    10  Si    c     0.604183    0.285643    0.799601    0.000000
    11  Si    c     0.653264    0.367398    0.466184    0.000000
    12  Si    c     0.667441    0.309824    0.132374    0.000000
    13  Si    c     0.521732    0.411160    0.967057    0.000000
    14  Si    c     0.564508    0.096859    0.301938    0.000000
    15  Si    c     0.869108    0.453763    0.633194    0.000000
    16  Si    c     0.444705    0.569105    0.464513    0.000000
    17  Si    c     0.398275    0.874177    0.797880    0.000000
    18  Si    c     0.091739    0.526907    0.129524    0.000000
    19  Si    c     0.392480    0.511786    0.362727    0.000000
    20  Si    c     0.095304    0.574969    0.026467    0.000000
    21  Si    c     0.452535    0.874623    0.696322    0.000000
    22  Si    c     0.569893    0.461200    0.864377    0.000000
    23  Si    c     0.865324    0.405801    0.531251    0.000000
    24  Si    c     0.510079    0.102214    0.200563    0.000000
    25  Si    c     0.288457    0.389221    0.848884    0.000000
    26  Si    c     0.577418    0.893499    0.183078    0.000000
    27  Si    c     0.074473    0.687088    0.517449    0.000000
    28  Si    c     0.673516    0.583653    0.349755    0.000000
    29  Si    c     0.384699    0.084229    0.682107    0.000000
    30  Si    c     0.880889    0.285547    0.011741    0.000000
    31  Si    c     0.374332    0.290484    0.479518    0.000000
    32  Si    c     0.875385    0.595143    0.141408    0.000000
    33  Si    c     0.679941    0.084336    0.814120    0.000000
    34  Si    c     0.588003    0.691211    0.978535    0.000000
    35  Si    c     0.080514    0.384791    0.644960    0.000000
    36  Si    c     0.282483    0.887282    0.315221    0.000000
    37  Si    c     0.241745    0.335081    0.949296    0.000000
    38  Si    c     0.639761    0.896472    0.283414    0.000000
    39  Si    c     0.071424    0.731947    0.618748    0.000000
    40  Si    c     0.724243    0.646016    0.450263    0.000000
    41  Si    c     0.321938    0.074800    0.782141    0.000000
    42  Si    c     0.885251    0.244512    0.115228    0.000000
    43  Si    c     0.316636    0.235267    0.378775    0.000000
    44  Si    c     0.892797    0.657463    0.038620    0.000000
    45  Si    c     0.730934    0.078373    0.713629    0.000000
    46  Si    c     0.645133    0.738827    0.877876    0.000000
    47  Si    c     0.066862    0.328464    0.543832    0.000000
    48  Si    c     0.230496    0.899388    0.214904    0.000000
    49  Si    c     0.963377    0.115400    0.962578    0.000000
    50  Si    c     0.854456    0.829565    0.298718    0.000000
    51  Ge    c     0.131676    0.014158    0.631393    0.000000
    52  Si    c     0.005359    0.864290    0.464946    0.000000
    53  Si    c     0.107181    0.140175    0.797650    0.000000
    54  Ge    c     0.829514    0.965282    0.131994    0.000000
    55  Si    c     0.100171    0.953062    0.364080    0.000000
    56  Si    c     0.839593    0.876396    0.028269    0.000000
    57  Si    c     0.010465    0.139900    0.697006    0.000000
    58  Si    c     0.863735    0.017741    0.862481    0.000000
    59  Si    c     0.125007    0.110225    0.528726    0.000000
    60  Si    c     0.950908    0.839542    0.197555    0.000000
    61  O2    c     0.918141    0.998151    0.996539    0.000000
    62  O2    c     0.979181    0.910238    0.330524    0.000000
    63  O3    c     0.041077    0.053147    0.665186    0.000000
    64  O2    c     0.047385    0.990654    0.494572    0.000000
    65  O2    c     0.982633    0.059667    0.828774    0.000000
    66  O3    c     0.919507    0.931292    0.168855    0.000000
    67  O2    c     0.317775    0.561717    0.329714    0.000000
    68  O2    c     0.406684    0.749668    0.663622    0.000000
    69  O2    c     0.222003    0.649051    0.995087    0.000000
    70  O2    c     0.643481    0.408277    0.832451    0.000000
    71  O2    c     0.559294    0.230841    0.170669    0.000000
    72  O2    c     0.737752    0.329904    0.499069    0.000000
    73  O3    c     0.563331    0.334091    0.998798    0.000000
    74  O2    c     0.746988    0.408504    0.666638    0.000000
    75  O2    c     0.639571    0.222274    0.334692    0.000000
    76  O2    c     0.396567    0.646873    0.496179    0.000000
    77  O2    c     0.213025    0.572236    0.163791    0.000000
    78  O2    c     0.323114    0.748381    0.829803    0.000000
    79  O2    c     0.117098    0.206981    0.969305    0.000000
    80  O2    c     0.765597    0.894778    0.303259    0.000000
    81  O3    c     0.068717    0.852188    0.640283    0.000000
    82  O2    c     0.850718    0.773149    0.470431    0.000000
    83  O2    c     0.195845    0.074737    0.802183    0.000000
    84  O3    c     0.891364    0.128461    0.138386    0.000000
    85  O2    c     0.190286    0.107040    0.358903    0.000000
    86  O2    c     0.909726    0.793008    0.021837    0.000000
    87  O2    c     0.856220    0.079558    0.693309    0.000000
    88  O2    c     0.772123    0.863868    0.857546    0.000000
    89  O2    c     0.063729    0.202286    0.522778    0.000000
    90  O2    c     0.105334    0.900273    0.194741    0.000000
    91  O2    c     0.903598    0.836523    0.248235    0.000000
    92  O3    c     0.105914    0.051215    0.577728    0.000000
    93  O2    c     0.923981    0.058961    0.912329    0.000000
    94  O2    c     0.056881    0.131717    0.747018    0.000000
    95  O3    c     0.854990    0.926540    0.079110    0.000000
    96  O2    c     0.044326    0.910089    0.413832    0.000000
    97  O2    c     0.893688    0.196100    0.973865    0.000000
    98  O2    c     0.771310    0.679306    0.311391    0.000000
    99  O3    c     0.294832    0.090956    0.642533    0.000000
   100  O2    c     0.075400    0.785368    0.479629    0.000000
   101  O2    c     0.190471    0.290630    0.810512    0.000000
   102  O3    c     0.666765    0.888753    0.143517    0.000000
   103  O2    c     0.184421    0.885531    0.353365    0.000000
   104  O2    c     0.686566    0.791684    0.016835    0.000000
   105  O2    c     0.084701    0.289818    0.682848    0.000000
   106  O2    c     0.779039    0.085290    0.852332    0.000000
   107  O2    c     0.278239    0.194045    0.518055    0.000000
   108  O2    c     0.877101    0.692735    0.179503    0.000000
   109  O2    c     0.298006    0.630500    0.247547    0.000000
   110  O2    c     0.337147    0.665172    0.580026    0.000000
   111  O2    c     0.305833    0.667378    0.912595    0.000000
   112  O2    c     0.663224    0.343823    0.749755    0.000000
   113  O3    c     0.603726    0.300569    0.084321    0.000000
   114  O2    c     0.654829    0.310321    0.416127    0.000000
   115  O2    c     0.363470    0.326149    0.967448    0.000000
   116  O2    c     0.651430    0.027867    0.303394    0.000000
   117  O2    c     0.938818    0.608745    0.636049    0.000000
   118  O2    c     0.601723    0.656659    0.467543    0.000000
   119  O2    c     0.311143    0.942809    0.800512    0.000000
   120  O2    c     0.017413    0.372436    0.130844    0.000000
   121  O2    c     0.305320    0.355527    0.359457    0.000000
   122  O2    c     0.026112    0.660630    0.024582    0.000000
   123  O2    c     0.609328    0.945628    0.694407    0.000000
   124  O2    c     0.655330    0.617021    0.859799    0.000000
   125  O2    c     0.933649    0.319197    0.526409    0.000000
   126  O2    c     0.353208    0.031619    0.196910    0.000000
   127  O3    c     0.748298    0.279608    0.002371    0.000000
   128  O2    c     0.673077    0.449951    0.342505    0.000000
   129  O2    c     0.518984    0.218990    0.676306    0.000000
   130  O2    c     0.206908    0.684727    0.508561    0.000000
   131  O2    c     0.289267    0.522413    0.839930    0.000000
   132  O2    c     0.441388    0.760513    0.175464    0.000000
   133  O2    c     0.282551    0.753642    0.321086    0.000000
   134  O2    c     0.453597    0.691734    0.985708    0.000000
   135  O2    c     0.215630    0.519124    0.652220    0.000000
   136  O2    c     0.677859    0.216385    0.821955    0.000000
   137  O2    c     0.509133    0.292491    0.487809    0.000000
   138  O2    c     0.743883    0.460220    0.150112    0.000000
   139  O3    c     0.768724    0.542134    0.016502    0.000000
   140  O2    c     0.441958    0.233312    0.359771    0.000000
   141  O2    c     0.735207    0.205518    0.694535    0.000000
   142  O2    c     0.193014    0.453646    0.524185    0.000000
   143  O2    c     0.520352    0.741104    0.857897    0.000000
   144  O2    c     0.223786    0.771573    0.194630    0.000000
   145  O2    c     0.513652    0.768974    0.301957    0.000000
   146  O2    c     0.235967    0.457757    0.968904    0.000000
   147  O2    c     0.199523    0.733962    0.637157    0.000000
   148  O2    c     0.447287    0.202129    0.802159    0.000000
   149  O2    c     0.725869    0.522881    0.470647    0.000000
   150  O2    c     0.760840    0.247469    0.133694    0.000000
   151  O2    c     0.217332    0.316502    0.895069    0.000000
   152  O2    c     0.657085    0.898582    0.228825    0.000000
   153  O2    c     0.074743    0.757189    0.564434    0.000000
   154  O2    c     0.744292    0.660631    0.395981    0.000000
   155  O2    c     0.303458    0.075088    0.727522    0.000000
   156  O2    c     0.881492    0.222431    0.060896    0.000000
   157  O2    c     0.299140    0.218534    0.433055    0.000000
   158  O2    c     0.877408    0.661415    0.093868    0.000000
   159  O2    c     0.750112    0.080292    0.767939    0.000000
   160  O2    c     0.663429    0.759893    0.932224    0.000000
   161  O2    c     0.073333    0.310800    0.598025    0.000000
   162  O2    c     0.212982    0.896008    0.269198    0.000000
   163  O2    c     0.572151    0.553536    0.988886    0.000000
   164  O2    c     0.423792    0.010251    0.324943    0.000000
   165  O2    c     0.955021    0.397222    0.654700    0.000000
   166  O2    c     0.388426    0.429315    0.487827    0.000000
   167  O2    c     0.539519    0.959122    0.821757    0.000000
   168  O2    c     0.000437    0.579586    0.147803    0.000000
   169  O2    c     0.534008    0.569210    0.339993    0.000000
   170  O2    c     0.003898    0.431196    0.007007    0.000000
   171  O2    c     0.396288    0.958227    0.672699    0.000000
   172  O2    c     0.427624    0.402064    0.841192    0.000000
   173  O2    c     0.946865    0.547998    0.509042    0.000000
   174  O2    c     0.567486    0.021195    0.175797    0.000000
   175  O2    c     0.563369    0.151429    0.251717    0.000000
   176  O2    c     0.812838    0.400958    0.582364    0.000000
   177  O2    c     0.573673    0.415217    0.915485    0.000000
   178  O2    c     0.398078    0.821727    0.746868    0.000000
   179  O2    c     0.141750    0.575287    0.078575    0.000000
   180  O2    c     0.391226    0.565687    0.413277    0.000000
   181  F     c     0.431152    0.890117    0.248232    0.000000
   182  F     c     0.076840    0.534596    0.580589    0.000000
   183  F     c     0.435788    0.543804    0.913361    0.000000
   184  F     c     0.528881    0.083111    0.747274    0.000000
   185  F     c     0.844618    0.431802    0.070560    0.000000
   186  F     c     0.523273    0.437109    0.413931    0.000000
   187  O2    s     0.914299    0.997672    0.996270    0.000000
   188  O2    s     0.978710    0.905983    0.330709    0.000000
   189  O3    s     0.045700    0.059136    0.665677    0.000000
   190  O2    s     0.051157    0.989485    0.494960    0.000000
   191  O2    s     0.983230    0.063964    0.829077    0.000000
   192  O3    s     0.915200    0.924379    0.168785    0.000000
   193  O2    s     0.329376    0.569443    0.329806    0.000000
   194  O2    s     0.398607    0.753410    0.663573    0.000000
   195  O2    s     0.217335    0.637591    0.995192    0.000000
   196  O2    s     0.631929    0.400970    0.832287    0.000000
   197  O2    s     0.565258    0.225534    0.169847    0.000000
   198  O2    s     0.742084    0.341638    0.498945    0.000000
   199  O3    s     0.568474    0.345441    0.997835    0.000000
   200  O2    s     0.750913    0.400665    0.666546    0.000000
   201  O2    s     0.627695    0.218034    0.334444    0.000000
   202  O2    s     0.389232    0.635034    0.496334    0.000000
   203  O2    s     0.208919    0.579598    0.163663    0.000000
   204  O2    s     0.334940    0.752966    0.829843    0.000000
   205  O2    s     0.113130    0.210134    0.966553    0.000000
   206  O2    s     0.761928    0.888093    0.300747    0.000000
   207  O3    s     0.074164    0.853379    0.637401    0.000000
   208  O2    s     0.853991    0.769611    0.467782    0.000000
   209  O2    s     0.199461    0.081638    0.799665    0.000000
   210  O3    s     0.885718    0.126974    0.135529    0.000000
   211  O2    s     0.193772    0.103949    0.361473    0.000000
   212  O2    s     0.900585    0.787749    0.024244    0.000000
   213  O2    s     0.859465    0.085971    0.695863    0.000000
   214  O2    s     0.768840    0.867439    0.860136    0.000000
   215  O2    s     0.070440    0.205683    0.525541    0.000000
   216  O2    s     0.102071    0.893642    0.197171    0.000000
   217  O2    s     0.903324    0.836079    0.248301    0.000000
   218  O3    s     0.110243    0.054441    0.577026    0.000000
   219  O2    s     0.921645    0.060719    0.912412    0.000000
   220  O2    s     0.057383    0.133632    0.747162    0.000000
   221  O3    s     0.851046    0.924717    0.078490    0.000000
   222  O2    s     0.046324    0.909838    0.413911    0.000000
   223  O2    s     0.899964    0.196873    0.976685    0.000000
   224  O2    s     0.770163    0.685560    0.313978    0.000000
   225  O3    s     0.289806    0.083939    0.645358    0.000000
   226  O2    s     0.067847    0.783713    0.481939    0.000000
   227  O2    s     0.191616    0.284598    0.813092    0.000000
   228  O3    s     0.671548    0.895495    0.146373    0.000000
   229  O2    s     0.185679    0.892797    0.350559    0.000000
   230  O2    s     0.692800    0.790572    0.014230    0.000000
   231  O2    s     0.076493    0.283922    0.680394    0.000000
   232  O2    s     0.777834    0.078110    0.849511    0.000000
   233  O2    s     0.272128    0.195204    0.515230    0.000000
   234  O2    s     0.884762    0.698112    0.177400    0.000000
   235  O2    s     0.304040    0.642340    0.247598    0.000000
   236  O2    s     0.325384    0.659254    0.580083    0.000000
   237  O2    s     0.312017    0.661660    0.912684    0.000000
   238  O2    s     0.657106    0.332098    0.749647    0.000000
   239  O3    s     0.616444    0.306241    0.086231    0.000000
   240  O2    s     0.648863    0.315947    0.416017    0.000000
   241  O2    s     0.365718    0.335623    0.965378    0.000000
   242  O2    s     0.641365    0.021393    0.301180    0.000000
   243  O2    s     0.945501    0.605369    0.633889    0.000000
   244  O2    s     0.598427    0.646543    0.465407    0.000000
   245  O2    s     0.321151    0.949478    0.798327    0.000000
   246  O2    s     0.011516    0.375679    0.129043    0.000000
   247  O2    s     0.315360    0.359082    0.361782    0.000000
   248  O2    s     0.019973    0.651338    0.026204    0.000000
   249  O2    s     0.605782    0.952168    0.696633    0.000000
   250  O2    s     0.645550    0.613798    0.862150    0.000000
   251  O2    s     0.940584    0.329094    0.528742    0.000000
   252  O2    s     0.356487    0.024984    0.199187    0.000000
   253  O3    s     0.759230    0.286633    0.005532    0.000000
   254  O2    s     0.665505    0.449375    0.345640    0.000000
   255  O2    s     0.519739    0.211810    0.679393    0.000000
   256  O2    s     0.200154    0.677222    0.511697    0.000000
   257  O2    s     0.296787    0.523194    0.843210    0.000000
   258  O2    s     0.440728    0.767283    0.178703    0.000000
   259  O2    s     0.290135    0.760720    0.318097    0.000000
   260  O2    s     0.452664    0.683649    0.982616    0.000000
   261  O2    s     0.208389    0.519854    0.649223    0.000000
   262  O2    s     0.670545    0.209591    0.818823    0.000000
   263  O2    s     0.509798    0.300017    0.484668    0.000000
   264  O2    s     0.750486    0.460071    0.147445    0.000000
   265  O3    s     0.778055    0.544180    0.019975    0.000000
   266  O2    s     0.444794    0.241364    0.362363    0.000000
   267  O2    s     0.726881    0.200171    0.697106    0.000000
   268  O2    s     0.187858    0.456310    0.526865    0.000000
   269  O2    s     0.517503    0.732948    0.860505    0.000000
   270  O2    s     0.232508    0.776986    0.197166    0.000000
   271  O2    s     0.510805    0.774121    0.299579    0.000000
   272  O2    s     0.244272    0.460923    0.966243    0.000000
   273  O2    s     0.194332    0.726141    0.634531    0.000000
   274  O2    s     0.450239    0.197072    0.799747    0.000000
   275  O2    s     0.717968    0.519943    0.467987    0.000000
   276  O2    s     0.765121    0.253516    0.131529    0.000000
   277  O2    s     0.227384    0.326153    0.895904    0.000000
   278  O2    s     0.647297    0.897911    0.229845    0.000000
   279  O2    s     0.074435    0.747378    0.565054    0.000000
   280  O2    s     0.734708    0.650973    0.396864    0.000000
   281  O2    s     0.313456    0.075909    0.728557    0.000000
   282  O2    s     0.881774    0.230799    0.061758    0.000000
   283  O2    s     0.308864    0.227851    0.432132    0.000000
   284  O2    s     0.878596    0.653828    0.093644    0.000000
   285  O2    s     0.740674    0.080498    0.767014    0.000000
   286  O2    s     0.653661    0.750543    0.931304    0.000000
   287  O2    s     0.073427    0.320319    0.597207    0.000000
   288  O2    s     0.222177    0.895475    0.268228    0.000000
   289  O2    s     0.568567    0.554434    0.985535    0.000000
   290  O2    s     0.423277    0.005857    0.321478    0.000000
   291  O2    s     0.959756    0.401973    0.651375    0.000000
   292  O2    s     0.392987    0.429020    0.484483    0.000000
   293  O2    s     0.539985    0.964003    0.818433    0.000000
   294  O2    s     0.996676    0.575511    0.145141    0.000000
   295  O2    s     0.534175    0.564572    0.343431    0.000000
   296  O2    s     0.001078    0.431911    0.009609    0.000000
   297  O2    s     0.401035    0.963078    0.676149    0.000000
   298  O2    s     0.427457    0.407020    0.844449    0.000000
   299  O2    s     0.952245    0.548156    0.512251    0.000000
   300  O2    s     0.562480    0.015936    0.179126    0.000000
   301  O2    s     0.557878    0.140531    0.251583    0.000000
   302  O2    s     0.824079    0.406883    0.582300    0.000000
   303  O2    s     0.568122    0.419778    0.915146    0.000000
   304  O2    s     0.403714    0.832594    0.746884    0.000000
   305  O2    s     0.131797    0.570180    0.078662    0.000000
   306  O2    s     0.396855    0.560451    0.413318    0.000000
   307  F     s     0.430933    0.889641    0.248087    0.000000
   308  F     s     0.077241    0.534778    0.580524    0.000000
   309  F     s     0.435186    0.544402    0.913309    0.000000
   310  F     s     0.528906    0.083455    0.747155    0.000000
   311  F     s     0.833664    0.427679    0.067916    0.000000
   312  F     s     0.523421    0.436918    0.413856    0.000000
--------------------------------------------------------------------------------

  Final Cartesian lattice vectors (Angstroms) :

       11.973461   -0.003848   -0.009647
       -6.097276   10.399017    0.003983
       -0.163501   -0.204881   29.467663


  Final cell parameters and derivatives :

--------------------------------------------------------------------------------
       a           11.973466 Angstrom     dE/de1(xx)     0.001196 eV/strain
       b           12.054722 Angstrom     dE/de2(yy)     0.000344 eV/strain
       c           29.468828 Angstrom     dE/de3(zz)     0.002601 eV/strain
       alpha       90.163914 Degrees      dE/de4(yz)     0.000071 eV/strain
       beta        90.363930 Degrees      dE/de5(xz)    -0.000024 eV/strain
       gamma      120.402877 Degrees      dE/de6(xy)     0.000532 eV/strain
--------------------------------------------------------------------------------

  Primitive cell volume =          3668.374092 Angs**3

  Density of cell =      1.744122 g/cm**3

  Non-primitive cell volume =          3668.374092 Angs**3


  Final internal derivatives :

--------------------------------------------------------------------------------
   No.  Atomic          a             b             c           Radius
        Label          (eV)          (eV)          (eV)        (eV/Angs)
--------------------------------------------------------------------------------
      1 Ge    c       0.000000      0.000000      0.000000      0.000000
      2 Si    c      -0.000158      0.000150      0.000626      0.000000
      3 Si    c      -0.000167     -0.000220     -0.000214      0.000000
      4 Si    c       0.000259     -0.000168     -0.000164      0.000000
      5 Si    c       0.000105      0.000225      0.000864      0.000000
      6 Si    c       0.000152     -0.000206     -0.000086      0.000000
      7 Si    c       0.000570      0.000546     -0.000178      0.000000
      8 Si    c       0.000429      0.000049      0.000587      0.000000
      9 Si    c       0.000345      0.000426      0.000613      0.000000
     10 Si    c      -0.000418     -0.000657     -0.000500      0.000000
     11 Si    c      -0.000253     -0.000158     -0.000297      0.000000
     12 Si    c       0.001558     -0.000419      0.009791      0.000000
     13 Si    c      -0.000917     -0.000762     -0.000847      0.000000
     14 Si    c       0.000132      0.000068      0.000711      0.000000
     15 Si    c      -0.000184      0.000043     -0.001112      0.000000
     16 Si    c       0.000111      0.000145     -0.000283      0.000000
     17 Si    c       0.000056      0.000115      0.000798      0.000000
     18 Si    c       0.000610      0.000248      0.000898      0.000000
     19 Si    c       0.000507      0.000338      0.000916      0.000000
     20 Si    c       0.000198     -0.000014      0.000073      0.000000
     21 Si    c      -0.000168     -0.000494      0.001097      0.000000
     22 Si    c      -0.000007     -0.000075     -0.000325      0.000000
     23 Si    c      -0.000105     -0.000203     -0.001090      0.000000
     24 Si    c       0.000058      0.000217      0.000937      0.000000
     25 Si    c      -0.000396     -0.000053     -0.000421      0.000000
     26 Si    c       0.000206     -0.000053     -0.000035      0.000000
     27 Si    c       0.000112      0.000002      0.001148      0.000000
     28 Si    c       0.000366      0.000297      0.000691      0.000000
     29 Si    c      -0.000037     -0.000148     -0.000609      0.000000
     30 Si    c       0.002205      0.000785      0.000441      0.000000
     31 Si    c      -0.000122     -0.000097     -0.000110      0.000000
     32 Si    c       0.000658     -0.000042     -0.000814      0.000000
     33 Si    c      -0.000169     -0.000183     -0.000159      0.000000
     34 Si    c       0.000575     -0.000330      0.000962      0.000000
     35 Si    c      -0.000026     -0.000098     -0.000396      0.000000
     36 Si    c       0.000211      0.000323     -0.000784      0.000000
     37 Si    c       0.000397     -0.000443      0.000464      0.000000
     38 Si    c      -0.000324     -0.000295     -0.000961      0.000000
     39 Si    c      -0.000137      0.000254     -0.000190      0.000000
     40 Si    c       0.000468      0.000389      0.000234      0.000000
     41 Si    c       0.000769      0.000594     -0.001206      0.000000
     42 Si    c       0.000714      0.000444      0.000052      0.000000
     43 Si    c       0.000103     -0.000090      0.000397      0.000000
     44 Si    c       0.000465     -0.000399     -0.001919      0.000000
     45 Si    c      -0.000156     -0.000631      0.000427      0.000000
     46 Si    c       0.000132      0.000344      0.000532      0.000000
     47 Si    c       0.000479      0.000590      0.001181      0.000000
     48 Si    c       0.000205      0.000600     -0.000249      0.000000
     49 Si    c       0.000447      0.000363     -0.000916      0.000000
     50 Si    c       0.000652      0.000692     -0.000055      0.000000
     51 Ge    c       0.000067      0.000423     -0.000406      0.000000
     52 Si    c       0.000118     -0.000288      0.000367      0.000000
     53 Si    c       0.000462      0.000314     -0.000218      0.000000
     54 Ge    c       0.000114     -0.000389     -0.000975      0.000000
     55 Si    c       0.000506      0.000073      0.000401      0.000000
     56 Si    c      -0.000021     -0.000621     -0.000966      0.000000
     57 Si    c      -0.000188     -0.000576      0.000017      0.000000
     58 Si    c      -0.000029      0.000126      0.000165      0.000000
     59 Si    c      -0.000276      0.000013     -0.000761      0.000000
     60 Si    c       0.000168      0.000604     -0.000396      0.000000
     61 O2    c       0.000194     -0.000431      0.001114      0.000000
     62 O2    c      -0.000105      0.000219     -0.000438      0.000000
     63 O3    c       0.000485     -0.000229      0.000154      0.000000
     64 O2    c      -0.000130     -0.000064      0.000448      0.000000
     65 O2    c       0.000217     -0.000050     -0.000198      0.000000
     66 O3    c       0.000148     -0.000003     -0.000293      0.000000
     67 O2    c       0.000139     -0.000116     -0.000024      0.000000
     68 O2    c      -0.000170      0.000141      0.000075      0.000000
     69 O2    c       0.000428     -0.000021      0.000435      0.000000
     70 O2    c       0.000194      0.000019     -0.000850      0.000000
     71 O2    c      -0.000239      0.000055      0.000046      0.000000
     72 O2    c       0.000058      0.000022      0.000369      0.000000
     73 O3    c      -0.000334     -0.001081     -0.000298      0.000000
     74 O2    c       0.000245      0.000207     -0.000005      0.000000
     75 O2    c       0.000058      0.000278      0.000017      0.000000
     76 O2    c       0.000144     -0.000130      0.000362      0.000000
     77 O2    c      -0.000055     -0.000208     -0.000528      0.000000
     78 O2    c       0.000035     -0.000297      0.000622      0.000000
     79 O2    c      -0.000031      0.000013      0.000056      0.000000
     80 O2    c      -0.000145      0.000096     -0.000004      0.000000
     81 O3    c       0.000319      0.000205      0.000181      0.000000
     82 O2    c       0.000113     -0.000207     -0.000198      0.000000
     83 O2    c       0.000082     -0.000086      0.000347      0.000000
     84 O3    c      -0.000032     -0.000907      0.000440      0.000000
     85 O2    c       0.000318      0.000232      0.000276      0.000000
     86 O2    c       0.000571      0.000059      0.000006      0.000000
     87 O2    c       0.000402      0.000365      0.000410      0.000000
     88 O2    c      -0.000017     -0.000155      0.000588      0.000000
     89 O2    c       0.000309      0.000314      0.000842      0.000000
     90 O2    c       0.000051     -0.000149      0.000333      0.000000
     91 O2    c       0.000248     -0.000271     -0.000374      0.000000
     92 O3    c       0.000050      0.000063      0.000943      0.000000
     93 O2    c      -0.000197      0.000084     -0.000344      0.000000
     94 O2    c      -0.000283      0.000454      0.000561      0.000000
     95 O3    c       0.000215      0.000162      0.001718      0.000000
     96 O2    c       0.000114      0.000073      0.000227      0.000000
     97 O2    c       0.000106      0.000043     -0.000066      0.000000
     98 O2    c       0.000089     -0.000451      0.000818      0.000000
     99 O3    c      -0.000764     -0.000802      0.000308      0.000000
    100 O2    c       0.000147     -0.000079     -0.000032      0.000000
    101 O2    c       0.000051      0.000195      0.000303      0.000000
    102 O3    c       0.000820      0.000599      0.000114      0.000000
    103 O2    c       0.000255     -0.000067     -0.000632      0.000000
    104 O2    c       0.000056     -0.000388     -0.000269      0.000000
    105 O2    c      -0.000444      0.000082      0.000839      0.000000
    106 O2    c      -0.000100      0.000207     -0.000239      0.000000
    107 O2    c       0.000243      0.000012      0.000268      0.000000
    108 O2    c       0.000468     -0.000061      0.000621      0.000000
    109 O2    c       0.000158     -0.000305      0.000755      0.000000
    110 O2    c       0.000128     -0.000001     -0.000156      0.000000
    111 O2    c      -0.000308      0.000210     -0.000806      0.000000
    112 O2    c       0.000130      0.000439      0.000155      0.000000
    113 O3    c      -0.004214     -0.002356      0.000354      0.000000
    114 O2    c       0.000047      0.000087     -0.000430      0.000000
    115 O2    c       0.000549     -0.000094      0.000138      0.000000
    116 O2    c       0.000192     -0.000036     -0.000096      0.000000
    117 O2    c       0.000066      0.000189      0.000178      0.000000
    118 O2    c      -0.000050     -0.000230      0.000354      0.000000
    119 O2    c      -0.000179     -0.000088      0.000233      0.000000
    120 O2    c       0.000438     -0.000151      0.000486      0.000000
    121 O2    c       0.000190      0.000033     -0.000423      0.000000
    122 O2    c       0.000414      0.000725     -0.000287      0.000000
    123 O2    c       0.000000      0.000094     -0.000324      0.000000
    124 O2    c       0.000328      0.000306     -0.000124      0.000000
    125 O2    c       0.000401     -0.000108      0.000221      0.000000
    126 O2    c       0.000178      0.000119     -0.000468      0.000000
    127 O3    c       0.000441     -0.000399     -0.003516      0.000000
    128 O2    c       0.000240      0.000028     -0.000130      0.000000
    129 O2    c       0.000054      0.000068     -0.000427      0.000000
    130 O2    c       0.000151      0.000146     -0.000347      0.000000
    131 O2    c      -0.000024      0.000629     -0.000515      0.000000
    132 O2    c       0.000463     -0.000013     -0.000487      0.000000
    133 O2    c      -0.000044     -0.000154      0.000815      0.000000
    134 O2    c       0.000213      0.000294      0.000648      0.000000
    135 O2    c       0.000063     -0.000137      0.001025      0.000000
    136 O2    c       0.000281      0.000305      0.000468      0.000000
    137 O2    c       0.000093     -0.000047      0.000187      0.000000
    138 O2    c      -0.000012      0.000385      0.000481      0.000000
    139 O3    c      -0.000433      0.000360     -0.001732      0.000000
    140 O2    c       0.000304      0.000067      0.000079      0.000000
    141 O2    c       0.000213      0.000007     -0.000529      0.000000
    142 O2    c      -0.000049     -0.000398      0.000093      0.000000
    143 O2    c       0.000117      0.000189     -0.000038      0.000000
    144 O2    c      -0.000110      0.000155     -0.000477      0.000000
    145 O2    c       0.000262      0.000100      0.000103      0.000000
    146 O2    c      -0.000350     -0.000415      0.000350      0.000000
    147 O2    c      -0.000277      0.000174      0.000288      0.000000
    148 O2    c      -0.000196     -0.000110     -0.000049      0.000000
    149 O2    c       0.000110     -0.000200      0.000106      0.000000
    150 O2    c      -0.000038     -0.000180     -0.000013      0.000000
    151 O2    c      -0.000154     -0.000052      0.000719      0.000000
    152 O2    c       0.000135      0.000042      0.000382      0.000000
    153 O2    c      -0.000076      0.000092     -0.000154      0.000000
    154 O2    c       0.000154     -0.000124      0.000553      0.000000
    155 O2    c      -0.000151      0.000038      0.000224      0.000000
    156 O2    c       0.000058     -0.000470     -0.001498      0.000000
    157 O2    c       0.000194     -0.000106     -0.000544      0.000000
    158 O2    c      -0.000346      0.000699      0.004557      0.000000
    159 O2    c       0.000277      0.000021     -0.000050      0.000000
    160 O2    c       0.000270     -0.000178     -0.000552      0.000000
    161 O2    c       0.000154     -0.000229     -0.002019      0.000000
    162 O2    c      -0.000307      0.000066      0.000100      0.000000
    163 O2    c       0.000035     -0.001229      0.000297      0.000000
    164 O2    c      -0.000213      0.000108      0.000295      0.000000
    165 O2    c      -0.000201     -0.000316      0.000635      0.000000
    166 O2    c       0.000051      0.000115      0.000711      0.000000
    167 O2    c       0.000043     -0.000028      0.000378      0.000000
    168 O2    c       0.000414      0.000219      0.000650      0.000000
    169 O2    c       0.000247      0.000208     -0.000330      0.000000
    170 O2    c       0.000708      0.000345     -0.000436      0.000000
    171 O2    c      -0.000174     -0.000156     -0.000280      0.000000
    172 O2    c       0.000086     -0.000263     -0.000585      0.000000
    173 O2    c       0.000048      0.000380     -0.000280      0.000000
    174 O2    c       0.000414     -0.000050     -0.000520      0.000000
    175 O2    c       0.000093      0.000060     -0.000093      0.000000
    176 O2    c      -0.000076      0.000023     -0.000143      0.000000
    177 O2    c       0.000454     -0.000416      0.001300      0.000000
    178 O2    c      -0.000066     -0.000090     -0.000116      0.000000
    179 O2    c       0.000512      0.000002      0.000002      0.000000
    180 O2    c      -0.000027      0.000070      0.000471      0.000000
    181 F     c       0.000187      0.000088     -0.000351      0.000000
    182 F     c      -0.000119      0.000094      0.000251      0.000000
    183 F     c       0.000107     -0.000182     -0.000164      0.000000
    184 F     c      -0.000023     -0.000074     -0.000246      0.000000
    185 F     c       0.000099      0.000516     -0.001332      0.000000
    186 F     c       0.000179     -0.000057      0.000128      0.000000
    187 O2    s      -0.000371     -0.000902      0.000141      0.000000
    188 O2    s      -0.000322      0.000509     -0.001048      0.000000
    189 O3    s       0.000625     -0.000016     -0.000090      0.000000
    190 O2    s       0.000123      0.000423      0.000414      0.000000
    191 O2    s       0.000600      0.000155     -0.000318      0.000000
    192 O3    s      -0.000007     -0.000305      0.000351      0.000000
    193 O2    s       0.000490      0.000297      0.000664      0.000000
    194 O2    s      -0.000537      0.000130      0.000142      0.000000
    195 O2    s       0.000304     -0.000060      0.000639      0.000000
    196 O2    s       0.000294      0.000068     -0.000921      0.000000
    197 O2    s       0.000840     -0.000398      0.002641      0.000000
    198 O2    s       0.000444     -0.000099      0.000201      0.000000
    199 O3    s       0.001024      0.000763     -0.000321      0.000000
    200 O2    s      -0.000301     -0.000368     -0.000523      0.000000
    201 O2    s      -0.000022     -0.000082     -0.000229      0.000000
    202 O2    s       0.000143     -0.000057     -0.000011      0.000000
    203 O2    s      -0.000162      0.000131      0.000135      0.000000
    204 O2    s       0.000603      0.000219      0.000436      0.000000
    205 O2    s       0.000154      0.000108     -0.000647      0.000000
    206 O2    s       0.000344      0.000423      0.000044      0.000000
    207 O3    s      -0.000232     -0.000644     -0.000669      0.000000
    208 O2    s      -0.000119     -0.000335     -0.000245      0.000000
    209 O2    s      -0.000181      0.000285      0.000359      0.000000
    210 O3    s       0.000588      0.000304     -0.000048      0.000000
    211 O2    s       0.000429      0.000129      0.000701      0.000000
    212 O2    s       0.000533      0.000381     -0.001593      0.000000
    213 O2    s      -0.000179     -0.000360      0.000547      0.000000
    214 O2    s      -0.000168     -0.000102      0.000830      0.000000
    215 O2    s       0.000233     -0.000148      0.000228      0.000000
    216 O2    s       0.000372      0.000270      0.000766      0.000000
    217 O2    s       0.000927      0.000593     -0.000877      0.000000
    218 O3    s      -0.000191     -0.000217      0.000982      0.000000
    219 O2    s      -0.000295      0.000284     -0.000258      0.000000
    220 O2    s      -0.000480      0.000207     -0.001443      0.000000
    221 O3    s      -0.000650      0.000491      0.002734      0.000000
    222 O2    s      -0.000035     -0.000179      0.000402      0.000000
    223 O2    s       0.000508      0.000524      0.000053      0.000000
    224 O2    s       0.000327     -0.000231      0.001520      0.000000
    225 O3    s       0.000887      0.000727      0.000228      0.000000
    226 O2    s       0.000088      0.000103      0.000032      0.000000
    227 O2    s       0.000149     -0.000019      0.000368      0.000000
    228 O3    s      -0.000730     -0.000702      0.000442      0.000000
    229 O2    s       0.000168     -0.000049     -0.000417      0.000000
    230 O2    s      -0.000247     -0.000455     -0.000909      0.000000
    231 O2    s       0.000058      0.000589     -0.000148      0.000000
    232 O2    s      -0.000114      0.000068     -0.000279      0.000000
    233 O2    s       0.000108     -0.000122     -0.000689      0.000000
    234 O2    s       0.000523     -0.000869      0.000371      0.000000
    235 O2    s       0.000242     -0.000236      0.000465      0.000000
    236 O2    s       0.000359      0.000256      0.000001      0.000000
    237 O2    s       0.000451      0.000700     -0.001043      0.000000
    238 O2    s      -0.000183      0.000197      0.000301      0.000000
    239 O3    s       0.001974      0.003378     -0.001946      0.000000
    240 O2    s       0.000091     -0.000404     -0.000200      0.000000
    241 O2    s      -0.000503     -0.000177     -0.000949      0.000000
    242 O2    s       0.000141      0.000145     -0.000120      0.000000
    243 O2    s      -0.000055     -0.000006     -0.000548      0.000000
    244 O2    s       0.000023      0.000183      0.000480      0.000000
    245 O2    s       0.000117     -0.000069      0.000321      0.000000
    246 O2    s       0.000601     -0.000074      0.001169      0.000000
    247 O2    s       0.000187      0.000070     -0.000143      0.000000
    248 O2    s       0.000450      0.000601     -0.001092      0.000000
    249 O2    s       0.000044     -0.000114      0.000280      0.000000
    250 O2    s      -0.000100     -0.000075     -0.000156      0.000000
    251 O2    s       0.000078      0.000040     -0.000075      0.000000
    252 O2    s       0.000090      0.000026      0.000416      0.000000
    253 O3    s       0.000154      0.000708      0.000034      0.000000
    254 O2    s       0.000501     -0.000068     -0.000180      0.000000
    255 O2    s       0.000095     -0.000107     -0.000222      0.000000
    256 O2    s       0.000053      0.000040     -0.000254      0.000000
    257 O2    s      -0.000040      0.000111     -0.000315      0.000000
    258 O2    s       0.000338      0.000099      0.000315      0.000000
    259 O2    s       0.000274      0.000170      0.000757      0.000000
    260 O2    s       0.000002     -0.000407      0.000652      0.000000
    261 O2    s      -0.000165     -0.000219      0.000476      0.000000
    262 O2    s      -0.000033     -0.000238     -0.000006      0.000000
    263 O2    s       0.000320     -0.000214     -0.000025      0.000000
    264 O2    s       0.000404     -0.000745      0.001629      0.000000
    265 O3    s      -0.000648     -0.000144     -0.000420      0.000000
    266 O2    s       0.000368     -0.000094     -0.000140      0.000000
    267 O2    s      -0.000109     -0.000089     -0.000518      0.000000
    268 O2    s       0.000215      0.000156      0.000256      0.000000
    269 O2    s       0.000194      0.000068      0.000300      0.000000
    270 O2    s       0.000135      0.000105     -0.000090      0.000000
    271 O2    s      -0.000058      0.000038     -0.000038      0.000000
    272 O2    s       0.000471      0.000088      0.000205      0.000000
    273 O2    s      -0.000030      0.000236     -0.000125      0.000000
    274 O2    s       0.000186      0.000229     -0.000805      0.000000
    275 O2    s       0.000262     -0.000310      0.000338      0.000000
    276 O2    s      -0.000354      0.000315      0.003004      0.000000
    277 O2    s       0.000205     -0.000283      0.000282      0.000000
    278 O2    s       0.000146      0.000162      0.000826      0.000000
    279 O2    s       0.000079      0.000060     -0.000210      0.000000
    280 O2    s       0.000402      0.000188      0.000020      0.000000
    281 O2    s      -0.000239      0.000193      0.000964      0.000000
    282 O2    s       0.000993     -0.000631     -0.000918      0.000000
    283 O2    s       0.000060     -0.000194     -0.000137      0.000000
    284 O2    s       0.000940      0.001327     -0.000622      0.000000
    285 O2    s       0.000103     -0.000418     -0.000269      0.000000
    286 O2    s       0.000476      0.000087     -0.000803      0.000000
    287 O2    s      -0.000028     -0.000361     -0.002353      0.000000
    288 O2    s       0.000134      0.000419      0.000144      0.000000
    289 O2    s       0.000601      0.000445     -0.000601      0.000000
    290 O2    s       0.000018      0.000116      0.000146      0.000000
    291 O2    s       0.000171     -0.000213     -0.000002      0.000000
    292 O2    s      -0.000234     -0.000050      0.000679      0.000000
    293 O2    s       0.000064      0.000010     -0.000105      0.000000
    294 O2    s       0.000203      0.000080      0.001312      0.000000
    295 O2    s       0.000076      0.000460      0.000126      0.000000
    296 O2    s       0.000661     -0.001191     -0.000432      0.000000
    297 O2    s      -0.000103      0.000331     -0.000589      0.000000
    298 O2    s       0.000344      0.000187     -0.000478      0.000000
    299 O2    s       0.000150     -0.000031     -0.000418      0.000000
    300 O2    s       0.000445     -0.000207      0.000024      0.000000
    301 O2    s       0.000278      0.000299     -0.001279      0.000000
    302 O2    s      -0.000034     -0.000130      0.000619      0.000000
    303 O2    s      -0.000533     -0.000409      0.001744      0.000000
    304 O2    s       0.000081     -0.000229     -0.001035      0.000000
    305 O2    s       0.001113      0.000424      0.000845      0.000000
    306 O2    s       0.000313      0.000690      0.000786      0.000000
    307 F     s       0.000233      0.000163      0.000156      0.000000
    308 F     s      -0.000153     -0.000003     -0.000000      0.000000
    309 F     s       0.000373     -0.000129      0.000086      0.000000
    310 F     s      -0.000036     -0.000059     -0.000017      0.000000
    311 F     s      -0.000996     -0.000605     -0.001782      0.000000
    312 F     s       0.000154     -0.000011      0.000042      0.000000
--------------------------------------------------------------------------------
  Maximum abs         0.004214      0.003378      0.009791      0.000000
--------------------------------------------------------------------------------


  Time to end of optimisation =     173.7371 seconds


  Peak dynamic memory used =      19.13 MB 


  Timing analysis for GULP :

--------------------------------------------------------------------------------
  Task / Subroutine                                          Time (Seconds)
--------------------------------------------------------------------------------
  Calculation of reciprocal space energy and derivatives          4.1205
  Calculation of real space energy and derivatives              152.5353
  Calculation of three-body energy and derivatives               14.9944
  Calculation of matrix inversion                                 1.8598
  Global summation overhead                                       0.0003
--------------------------------------------------------------------------------
  Total CPU time                                                173.7372
--------------------------------------------------------------------------------


  Dump file written as out.res                                                 
  CIF file written as out.cif                                                 


  Job Finished at 12:59.16 12th November   2016                               

