********************************************************************************
*                       GENERAL UTILITY LATTICE PROGRAM                        *
*                                 Julian Gale                                  *
*                      Nanochemistry Research Institute                        *
*                           Department of Chemistry                            *
*                    Curtin University, Western Australia                      *
********************************************************************************
* Version = 4.2.0 * Last modified =  20th January 2014                         *
********************************************************************************
*  optimise     - perform optimisation run                                     *
*  conp         - constant pressure calculation                                *
*  qok          - running with non charge neutral cell is OK                   *
********************************************************************************

  Job Started  at 06:23.43 13th November   2016                               

  Number of CPUs =     1


  Total number of configurations input =   1

********************************************************************************
*  Input for Configuration =   1                                               *
********************************************************************************

  Formula = Si57Ge3O120F6                                               

  Number of irreducible atoms/shells =     312


  Total number atoms/shells =     312

  Dimensionality = 3               :  Bulk   


  Charge on solid   =  -6.000000 =>neutralising background added


  Cartesian lattice vectors (Angstroms) :

       11.974378    0.000000    0.000000
       -5.910619   10.345009    0.000000
       -0.076969   -0.114236   29.539904

  Cell parameters (Angstroms/Degrees):

  a =      11.9744    alpha =  90.1183
  b =      11.9145    beta  =  90.1493
  c =      29.5402    gamma = 119.7415

  Initial cell volume =        3659.256955 Angs**3

  Temperature of configuration =  0.000     K 

  Pressure of configuration =         0.000 GPa 

  Fractional coordinates of asymmetric unit :

--------------------------------------------------------------------------------
   No.  Atomic       x           y          z         Charge      Occupancy
        Label      (Frac)      (Frac)     (Frac)        (e)         (Frac)  
--------------------------------------------------------------------------------
      1 Si    c    0.699600    0.375700    0.033890     4.00000    1.000000    
      2 Si    c    0.619359 *  0.314226 *  0.370012 *   4.00000    1.000000    
      3 Si    c    0.678892 *  0.291533 *  0.700277 *   4.00000    1.000000    
      4 Si    c    0.309223 *  0.619539 *  0.535789 *   4.00000    1.000000    
      5 Si    c    0.383899 *  0.674355 *  0.870537 *   4.00000    1.000000    
      6 Si    c    0.325355 *  0.707845 *  0.201252 *   4.00000    1.000000    
      7 Si    c    0.377217 *  0.700806 *  0.303043 *   4.00000    1.000000    
      8 Si    c    0.327083 *  0.620511 *  0.972322 *   4.00000    1.000000    
      9 Si    c    0.299588 *  0.669711 *  0.637176 *   4.00000    1.000000    
     10 Si    c    0.624856 *  0.293382 *  0.800515 *   4.00000    1.000000    
     11 Si    c    0.675997 *  0.371753 *  0.472460 *   4.00000    1.000000    
     12 Si    c    0.704708 *  0.327316 *  0.135128 *   4.00000    1.000000    
     13 Ge    c    0.532930 *  0.430172 *  0.967231 *   4.00000    1.000000    
     14 Ge    c    0.566123 *  0.096128 *  0.300821 *   4.00000    1.000000    
     15 Si    c    0.890268 *  0.464033 *  0.636282 *   4.00000    1.000000    
     16 Ge    c    0.472551 *  0.563766 *  0.468314 *   4.00000    1.000000    
     17 Si    c    0.422512 *  0.883898 *  0.803990 *   4.00000    1.000000    
     18 Si    c    0.113734 *  0.534748 *  0.136222 *   4.00000    1.000000    
     19 Si    c    0.408629 *  0.528085 *  0.369477 *   4.00000    1.000000    
     20 Si    c    0.113803 *  0.584050 *  0.035367 *   4.00000    1.000000    
     21 Si    c    0.471496 *  0.878644 *  0.702727 *   4.00000    1.000000    
     22 Si    c    0.596387 *  0.464385 *  0.868316 *   4.00000    1.000000    
     23 Si    c    0.893089 *  0.414358 *  0.535213 *   4.00000    1.000000    
     24 Si    c    0.532853 *  0.128966 *  0.202217 *   4.00000    1.000000    
     25 Si    c    0.309123 *  0.392067 *  0.856223 *   4.00000    1.000000    
     26 Si    c    0.606266 *  0.913685 *  0.188321 *   4.00000    1.000000    
     27 Si    c    0.103848 *  0.694931 *  0.522408 *   4.00000    1.000000    
     28 Si    c    0.694909 *  0.598672 *  0.357345 *   4.00000    1.000000    
     29 Si    c    0.399908 *  0.089169 *  0.687791 *   4.00000    1.000000    
     30 Si    c    0.905693 *  0.302364 *  0.021987 *   4.00000    1.000000    
     31 Si    c    0.393524 *  0.289737 *  0.490442 *   4.00000    1.000000    
     32 Si    c    0.905660 *  0.605799 *  0.150496 *   4.00000    1.000000    
     33 Si    c    0.701932 *  0.092375 *  0.817474 *   4.00000    1.000000    
     34 Si    c    0.610576 *  0.703436 *  0.990189 *   4.00000    1.000000    
     35 Si    c    0.097857 *  0.391725 *  0.651457 *   4.00000    1.000000    
     36 Si    c    0.294243 *  0.902206 *  0.322289 *   4.00000    1.000000    
     37 Si    c    0.253321 *  0.331810 *  0.957931 *   4.00000    1.000000    
     38 Si    c    0.664649 *  0.914104 *  0.290238 *   4.00000    1.000000    
     39 Si    c    0.091036 *  0.742174 *  0.622606 *   4.00000    1.000000    
     40 Si    c    0.751298 *  0.660821 *  0.458906 *   4.00000    1.000000    
     41 Si    c    0.343673 *  0.084910 *  0.788251 *   4.00000    1.000000    
     42 Si    c    0.914914 *  0.256072 *  0.122425 *   4.00000    1.000000    
     43 Si    c    0.335097 *  0.247013 *  0.387432 *   4.00000    1.000000    
     44 Si    c    0.910656 *  0.659546 *  0.049745 *   4.00000    1.000000    
     45 Si    c    0.750210 *  0.081049 *  0.717161 *   4.00000    1.000000    
     46 Si    c    0.669157 *  0.745172 *  0.887486 *   4.00000    1.000000    
     47 Si    c    0.095201 *  0.337838 *  0.550782 *   4.00000    1.000000    
     48 Si    c    0.253474 *  0.921933 *  0.219602 *   4.00000    1.000000    
     49 Si    c    0.969593 *  0.120328 *  0.971440 *   4.00000    1.000000    
     50 Si    c    0.877398 *  0.842230 *  0.305896 *   4.00000    1.000000    
     51 Si    c    0.150054 *  0.021204 *  0.639417 *   4.00000    1.000000    
     52 Si    c    0.034007 *  0.873836 *  0.473251 *   4.00000    1.000000    
     53 Si    c    0.124636 *  0.146099 *  0.805071 *   4.00000    1.000000    
     54 Si    c    0.853964 *  0.977032 *  0.139377 *   4.00000    1.000000    
     55 Si    c    0.114975 *  0.965956 *  0.372311 *   4.00000    1.000000    
     56 Si    c    0.854632 *  0.884566 *  0.038646 *   4.00000    1.000000    
     57 Si    c    0.030343 *  0.145264 *  0.704111 *   4.00000    1.000000    
     58 Si    c    0.881850 *  0.026374 *  0.870111 *   4.00000    1.000000    
     59 Si    c    0.149323 *  0.112163 *  0.539088 *   4.00000    1.000000    
     60 Si    c    0.971381 *  0.850554 *  0.204562 *   4.00000    1.000000    
     61 O2    c    0.935380 *  0.004494 *  0.005928 *   0.87073    1.000000    
     62 O2    c    0.992728 *  0.927250 *  0.340309 *   0.87073    1.000000    
     63 O2    c    0.074297 *  0.061590 *  0.674549 *   0.87073    1.000000    
     64 O2    c    0.065477 *  0.989559 *  0.507556 *   0.87073    1.000000    
     65 O2    c    0.006425 *  0.067853 *  0.839156 *   0.87073    1.000000    
     66 O2    c    0.926865 *  0.934511 *  0.175133 *   0.87073    1.000000    
     67 O2    c    0.337588 *  0.571860 *  0.331817 *   0.87073    1.000000    
     68 O2    c    0.421999 *  0.752647 *  0.670669 *   0.87073    1.000000    
     69 O2    c    0.239669 *  0.659107 *  0.003086 *   0.87073    1.000000    
     70 O2    c    0.667021 *  0.422203 *  0.830676 *   0.87073    1.000000    
     71 O2    c    0.577243 *  0.243850 *  0.165477 *   0.87073    1.000000    
     72 O2    c    0.766742 *  0.336670 *  0.503030 *   0.87073    1.000000    
     73 O3    c    0.581970 *  0.340737 *  0.002209 *   1.33043    1.000000    
     74 O2    c    0.762624 *  0.413464 *  0.667654 *   0.87073    1.000000    
     75 O3    c    0.652961 *  0.232206 *  0.337652 *   1.33043    1.000000    
     76 O3    c    0.426419 *  0.654180 *  0.504311 *   1.33043    1.000000    
     77 O2    c    0.241317 *  0.587074 *  0.168275 *   0.87073    1.000000    
     78 O2    c    0.348074 *  0.759080 *  0.837317 *   0.87073    1.000000    
     79 O2    c    0.121718 *  0.212053 *  0.976191 *   0.87073    1.000000    
     80 O2    c    0.784708 *  0.902619 *  0.308831 *   0.87073    1.000000    
     81 O2    c    0.088304 *  0.866985 *  0.643576 *   0.87073    1.000000    
     82 O2    c    0.883036 *  0.778367 *  0.478343 *   0.87073    1.000000    
     83 O2    c    0.216086 *  0.082395 *  0.808385 *   0.87073    1.000000    
     84 O2    c    0.917573 *  0.131634 *  0.143660 *   0.87073    1.000000    
     85 O2    c    0.212179 *  0.119215 *  0.366272 *   0.87073    1.000000    
     86 O2    c    0.909541 *  0.786722 *  0.030541 *   0.87073    1.000000    
     87 O2    c    0.876522 *  0.080665 *  0.697639 *   0.87073    1.000000    
     88 O2    c    0.790321 *  0.871551 *  0.865733 *   0.87073    1.000000    
     89 O2    c    0.095873 *  0.210989 *  0.530883 *   0.87073    1.000000    
     90 O2    c    0.125440 *  0.916158 *  0.198716 *   0.87073    1.000000    
     91 O2    c    0.934973 *  0.853995 *  0.256271 *   0.87073    1.000000    
     92 O2    c    0.130785 *  0.064746 *  0.590408 *   0.87073    1.000000    
     93 O2    c    0.928462 *  0.064314 *  0.921303 *   0.87073    1.000000    
     94 O2    c    0.067222 *  0.137275 *  0.755703 *   0.87073    1.000000    
     95 O2    c    0.872836 *  0.933915 *  0.090029 *   0.87073    1.000000    
     96 O2    c    0.069560 *  0.933052 *  0.423441 *   0.87073    1.000000    
     97 O2    c    0.900084 *  0.202561 *  0.983335 *   0.87073    1.000000    
     98 O2    c    0.794341 *  0.691165 *  0.318629 *   0.87073    1.000000    
     99 O2    c    0.302612 *  0.090204 *  0.649713 *   0.87073    1.000000    
    100 O2    c    0.109020 *  0.795897 *  0.484064 *   0.87073    1.000000    
    101 O2    c    0.210623 *  0.297683 *  0.817730 *   0.87073    1.000000    
    102 O2    c    0.701547 *  0.911814 *  0.149717 *   0.87073    1.000000    
    103 O2    c    0.183715 *  0.883998 *  0.358100 *   0.87073    1.000000    
    104 O2    c    0.703137 *  0.814454 *  0.026475 *   0.87073    1.000000    
    105 O2    c    0.099870 *  0.295382 *  0.690124 *   0.87073    1.000000    
    106 O2    c    0.801219 *  0.096119 *  0.855950 *   0.87073    1.000000    
    107 O2    c    0.300027 *  0.179373 *  0.526364 *   0.87073    1.000000    
    108 O2    c    0.902052 *  0.701568 *  0.188971 *   0.87073    1.000000    
    109 O2    c    0.326132 *  0.655347 *  0.251629 *   0.87073    1.000000    
    110 O2    c    0.357807 *  0.670855 *  0.587672 *   0.87073    1.000000    
    111 O2    c    0.329946 *  0.671947 *  0.921057 *   0.87073    1.000000    
    112 O2    c    0.681190 *  0.348999 *  0.750523 *   0.87073    1.000000    
    113 O2    c    0.649713 *  0.327035 *  0.085231 *   0.87073    1.000000    
    114 O2    c    0.670656 *  0.318841 *  0.421593 *   0.87073    1.000000    
    115 O3    c    0.366511 *  0.314980 *  0.977504 *   1.33043    1.000000    
    116 O3    c    0.680955 *  0.043922 *  0.310661 *   1.33043    1.000000    
    117 O2    c    0.958529 *  0.620404 *  0.640930 *   0.87073    1.000000    
    118 O3    c    0.638852 *  0.679185 *  0.478269 *   1.33043    1.000000    
    119 O2    c    0.335412 *  0.953372 *  0.807738 *   0.87073    1.000000    
    120 O2    c    0.046548 *  0.378745 *  0.141519 *   0.87073    1.000000    
    121 O2    c    0.324203 *  0.369678 *  0.369214 *   0.87073    1.000000    
    122 O2    c    0.045903 *  0.672781 *  0.032492 *   0.87073    1.000000    
    123 O2    c    0.627482 *  0.946851 *  0.700269 *   0.87073    1.000000    
    124 O2    c    0.679588 *  0.623143 *  0.869024 *   0.87073    1.000000    
    125 O2    c    0.961790 *  0.326351 *  0.532367 *   0.87073    1.000000    
    126 O2    c    0.374761 *  0.055342 *  0.202251 *   0.87073    1.000000    
    127 O2    c    0.771787 *  0.300184 *  0.014846 *   0.87073    1.000000    
    128 O2    c    0.691394 *  0.462990 *  0.352112 *   0.87073    1.000000    
    129 O2    c    0.533730 *  0.222198 *  0.679683 *   0.87073    1.000000    
    130 O2    c    0.236981 *  0.695052 *  0.515854 *   0.87073    1.000000    
    131 O2    c    0.311489 *  0.528392 *  0.850899 *   0.87073    1.000000    
    132 O2    c    0.470975 *  0.780540 *  0.182097 *   0.87073    1.000000    
    133 O2    c    0.302494 *  0.769903 *  0.324787 *   0.87073    1.000000    
    134 O2    c    0.471284 *  0.696843 *  0.993111 *   0.87073    1.000000    
    135 O2    c    0.230011 *  0.526594 *  0.659865 *   0.87073    1.000000    
    136 O2    c    0.698819 *  0.225516 *  0.824629 *   0.87073    1.000000    
    137 O2    c    0.532704 *  0.296385 *  0.493911 *   0.87073    1.000000    
    138 O2    c    0.774736 *  0.470102 *  0.158454 *   0.87073    1.000000    
    139 O2    c    0.790178 *  0.533017 *  0.029174 *   0.87073    1.000000    
    140 O2    c    0.464884 *  0.256604 *  0.368859 *   0.87073    1.000000    
    141 O2    c    0.749095 *  0.205364 *  0.696432 *   0.87073    1.000000    
    142 O2    c    0.218951 *  0.462800 *  0.531344 *   0.87073    1.000000    
    143 O2    c    0.537697 *  0.736561 *  0.869865 *   0.87073    1.000000    
    144 O2    c    0.263673 *  0.800916 *  0.200315 *   0.87073    1.000000    
    145 O2    c    0.531822 *  0.788224 *  0.306676 *   0.87073    1.000000    
    146 O2    c    0.261159 *  0.465519 *  0.975350 *   0.87073    1.000000    
    147 O2    c    0.218596 *  0.745474 *  0.642251 *   0.87073    1.000000    
    148 O2    c    0.468805 *  0.214074 *  0.806646 *   0.87073    1.000000    
    149 O2    c    0.741736 *  0.526756 *  0.475999 *   0.87073    1.000000    
    150 O2    c    0.785886 *  0.251602 *  0.140933 *   0.87073    1.000000    
    151 O2    c    0.242964 *  0.321219 *  0.902945 *   0.87073    1.000000    
    152 O2    c    0.676208 *  0.916276 *  0.235273 *   0.87073    1.000000    
    153 O2    c    0.094532 *  0.764143 *  0.568542 *   0.87073    1.000000    
    154 O2    c    0.762141 *  0.672524 *  0.403909 *   0.87073    1.000000    
    155 O2    c    0.325428 *  0.084794 *  0.734123 *   0.87073    1.000000    
    156 O2    c    0.914744 *  0.234369 *  0.068366 *   0.87073    1.000000    
    157 O2    c    0.322773 *  0.230949 *  0.441616 *   0.87073    1.000000    
    158 O2    c    0.906963 *  0.677348 *  0.103981 *   0.87073    1.000000    
    159 O2    c    0.771663 *  0.087186 *  0.771387 *   0.87073    1.000000    
    160 O2    c    0.682152 *  0.762241 *  0.941674 *   0.87073    1.000000    
    161 O2    c    0.096041 *  0.318846 *  0.605054 *   0.87073    1.000000    
    162 O2    c    0.235754 *  0.915131 *  0.273639 *   0.87073    1.000000    
    163 O3    c    0.605252 *  0.572737 *  0.002866 *   1.33043    1.000000    
    164 O3    c    0.423801 *  0.028037 *  0.335362 *   1.33043    1.000000    
    165 O2    c    0.970477 *  0.402845 *  0.660161 *   0.87073    1.000000    
    166 O3    c    0.399264 *  0.420953 *  0.503103 *   1.33043    1.000000    
    167 O2    c    0.564310 *  0.964749 *  0.826919 *   0.87073    1.000000    
    168 O2    c    0.035016 *  0.597940 *  0.159710 *   0.87073    1.000000    
    169 O2    c    0.554144 *  0.582028 *  0.349571 *   0.87073    1.000000    
    170 O2    c    0.030761 *  0.441940 *  0.012481 *   0.87073    1.000000    
    171 O2    c    0.415072 *  0.963737 *  0.679727 *   0.87073    1.000000    
    172 O2    c    0.450593 *  0.412689 *  0.848803 *   0.87073    1.000000    
    173 O2    c    0.977318 *  0.556141 *  0.512465 *   0.87073    1.000000    
    174 O2    c    0.584572 *  0.035049 *  0.181916 *   0.87073    1.000000    
    175 O3    c    0.588676 *  0.190224 *  0.250510 *   1.33043    1.000000    
    176 O2    c    0.836568 *  0.412527 *  0.585460 *   0.87073    1.000000    
    177 O3    c    0.602859 *  0.408192 *  0.916211 *   1.33043    1.000000    
    178 O2    c    0.418675 *  0.826818 *  0.753691 *   0.87073    1.000000    
    179 O2    c    0.170236 *  0.586327 *  0.085838 *   0.87073    1.000000    
    180 O3    c    0.401547 *  0.585538 *  0.417107 *   1.33043    1.000000    
    181 F     c    0.474764 *  0.950166 *  0.263324 *   0.56000    1.000000    
    182 F     c    0.093094 *  0.541769 *  0.588265 *   0.56000    1.000000    
    183 F     c    0.477710 *  0.522616 *  0.930833 *   0.56000    1.000000    
    184 F     c    0.549074 *  0.088433 *  0.754301 *   0.56000    1.000000    
    185 F     c    0.915169 *  0.456383 *  0.087982 *   0.56000    1.000000    
    186 F     c    0.526333 *  0.471352 *  0.431168 *   0.56000    1.000000    
    187 O2    s    0.930083 *  0.003939 *  0.005753 *  -2.87073    1.000000    
    188 O2    s    0.993481 *  0.922086 *  0.340021 *  -2.87073    1.000000    
    189 O2    s    0.077777 *  0.066550 *  0.673972 *  -2.87073    1.000000    
    190 O2    s    0.071485 *  0.990399 *  0.507245 *  -2.87073    1.000000    
    191 O2    s    0.005657 *  0.071812 *  0.838835 *  -2.87073    1.000000    
    192 O2    s    0.923712 *  0.929909 *  0.174425 *  -2.87073    1.000000    
    193 O2    s    0.348855 *  0.581316 *  0.332440 *  -2.87073    1.000000    
    194 O2    s    0.414889 *  0.757547 *  0.670672 *  -2.87073    1.000000    
    195 O2    s    0.236161 *  0.647491 *  0.003095 *  -2.87073    1.000000    
    196 O2    s    0.655377 *  0.413271 *  0.831432 *  -2.87073    1.000000    
    197 O2    s    0.585775 *  0.240528 *  0.166163 *  -2.87073    1.000000    
    198 O2    s    0.770040 *  0.348192 *  0.503086 *  -2.87073    1.000000    
    199 O3    s    0.591615 *  0.350725 *  0.003329 *  -3.33043    1.000000    
    200 O2    s    0.766654 *  0.405696 *  0.667937 *  -2.87073    1.000000    
    201 O3    s    0.643340 *  0.232408 *  0.338859 *  -3.33043    1.000000    
    202 O3    s    0.416491 *  0.644186 *  0.505381 *  -3.33043    1.000000    
    203 O2    s    0.237699 *  0.594939 *  0.168651 *  -2.87073    1.000000    
    204 O2    s    0.359313 *  0.762435 *  0.837563 *  -2.87073    1.000000    
    205 O2    s    0.118931 *  0.214799 *  0.973693 *  -2.87073    1.000000    
    206 O2    s    0.781988 *  0.896995 *  0.306476 *  -2.87073    1.000000    
    207 O2    s    0.095264 *  0.870807 *  0.640999 *  -2.87073    1.000000    
    208 O2    s    0.885733 *  0.776273 *  0.475663 *  -2.87073    1.000000    
    209 O2    s    0.219413 *  0.089412 *  0.806011 *  -2.87073    1.000000    
    210 O2    s    0.910463 *  0.127776 *  0.141051 *  -2.87073    1.000000    
    211 O2    s    0.214512 *  0.116136 *  0.369047 *  -2.87073    1.000000    
    212 O2    s    0.903811 *  0.784007 *  0.033350 *  -2.87073    1.000000    
    213 O2    s    0.879656 *  0.087501 *  0.700317 *  -2.87073    1.000000    
    214 O2    s    0.787375 *  0.874745 *  0.868441 *  -2.87073    1.000000    
    215 O2    s    0.101520 *  0.213522 *  0.533779 *  -2.87073    1.000000    
    216 O2    s    0.122574 *  0.909872 *  0.201482 *  -2.87073    1.000000    
    217 O2    s    0.932637 *  0.852298 *  0.255989 *  -2.87073    1.000000    
    218 O2    s    0.135074 *  0.065128 *  0.590185 *  -2.87073    1.000000    
    219 O2    s    0.927852 *  0.066331 *  0.921153 *  -2.87073    1.000000    
    220 O2    s    0.069686 *  0.139127 *  0.755622 *  -2.87073    1.000000    
    221 O2    s    0.868716 *  0.933283 *  0.089859 *  -2.87073    1.000000    
    222 O2    s    0.070801 *  0.930193 *  0.423120 *  -2.87073    1.000000    
    223 O2    s    0.908214 *  0.203904 *  0.986002 *  -2.87073    1.000000    
    224 O2    s    0.793140 *  0.697921 *  0.321181 *  -2.87073    1.000000    
    225 O2    s    0.296598 *  0.082820 *  0.652562 *  -2.87073    1.000000    
    226 O2    s    0.100482 *  0.794142 *  0.486715 *  -2.87073    1.000000    
    227 O2    s    0.211857 *  0.291576 *  0.820425 *  -2.87073    1.000000    
    228 O2    s    0.707585 *  0.918789 *  0.152606 *  -2.87073    1.000000    
    229 O2    s    0.187677 *  0.894441 *  0.355941 *  -2.87073    1.000000    
    230 O2    s    0.709792 *  0.810797 *  0.024136 *  -2.87073    1.000000    
    231 O2    s    0.092165 *  0.288911 *  0.687733 *  -2.87073    1.000000    
    232 O2    s    0.799810 *  0.088260 *  0.853567 *  -2.87073    1.000000    
    233 O2    s    0.293568 *  0.183287 *  0.524110 *  -2.87073    1.000000    
    234 O2    s    0.909950 *  0.707912 *  0.186707 *  -2.87073    1.000000    
    235 O2    s    0.331362 *  0.665623 *  0.251612 *  -2.87073    1.000000    
    236 O2    s    0.346887 *  0.665677 *  0.587827 *  -2.87073    1.000000    
    237 O2    s    0.335260 *  0.667012 *  0.921029 *  -2.87073    1.000000    
    238 O2    s    0.675062 *  0.337219 *  0.750537 *  -2.87073    1.000000    
    239 O2    s    0.660785 *  0.332064 *  0.085397 *  -2.87073    1.000000    
    240 O2    s    0.666051 *  0.323892 *  0.421773 *  -2.87073    1.000000    
    241 O3    s    0.365396 *  0.324490 *  0.974696 *  -3.33043    1.000000    
    242 O3    s    0.671358 *  0.033635 *  0.307792 *  -3.33043    1.000000    
    243 O2    s    0.965258 *  0.616916 *  0.638542 *  -2.87073    1.000000    
    244 O3    s    0.639679 *  0.669414 *  0.475506 *  -3.33043    1.000000    
    245 O2    s    0.345294 *  0.959748 *  0.805335 *  -2.87073    1.000000    
    246 O2    s    0.039882 *  0.382193 *  0.138995 *  -2.87073    1.000000    
    247 O2    s    0.333580 *  0.372506 *  0.371140 *  -2.87073    1.000000    
    248 O2    s    0.039198 *  0.662275 *  0.034551 *  -2.87073    1.000000    
    249 O2    s    0.624396 *  0.953935 *  0.702310 *  -2.87073    1.000000    
    250 O2    s    0.670381 *  0.620727 *  0.870939 *  -2.87073    1.000000    
    251 O2    s    0.968415 *  0.336616 *  0.534567 *  -2.87073    1.000000    
    252 O2    s    0.377246 *  0.048398 *  0.204096 *  -2.87073    1.000000    
    253 O2    s    0.779184 *  0.308157 *  0.017620 *  -2.87073    1.000000    
    254 O2    s    0.684501 *  0.462893 *  0.354508 *  -2.87073    1.000000    
    255 O2    s    0.534582 *  0.215314 *  0.682689 *  -2.87073    1.000000    
    256 O2    s    0.229495 *  0.687519 *  0.518588 *  -2.87073    1.000000    
    257 O2    s    0.318899 *  0.529539 *  0.853533 *  -2.87073    1.000000    
    258 O2    s    0.469893 *  0.786850 *  0.184753 *  -2.87073    1.000000    
    259 O2    s    0.309515 *  0.776178 *  0.322229 *  -2.87073    1.000000    
    260 O2    s    0.470170 *  0.689504 *  0.990619 *  -2.87073    1.000000    
    261 O2    s    0.223168 *  0.526988 *  0.656632 *  -2.87073    1.000000    
    262 O2    s    0.691581 *  0.218290 *  0.821382 *  -2.87073    1.000000    
    263 O2    s    0.533518 *  0.303512 *  0.491321 *  -2.87073    1.000000    
    264 O2    s    0.781509 *  0.469897 *  0.155208 *  -2.87073    1.000000    
    265 O2    s    0.795030 *  0.531800 *  0.031912 *  -2.87073    1.000000    
    266 O2    s    0.466361 *  0.261618 *  0.371037 *  -2.87073    1.000000    
    267 O2    s    0.741690 *  0.200705 *  0.699075 *  -2.87073    1.000000    
    268 O2    s    0.213958 *  0.464563 *  0.533945 *  -2.87073    1.000000    
    269 O2    s    0.535175 *  0.730662 *  0.871828 *  -2.87073    1.000000    
    270 O2    s    0.269379 *  0.804043 *  0.202494 *  -2.87073    1.000000    
    271 O2    s    0.528891 *  0.791887 *  0.304631 *  -2.87073    1.000000    
    272 O2    s    0.267633 *  0.468695 *  0.973272 *  -2.87073    1.000000    
    273 O2    s    0.213140 *  0.737165 *  0.639643 *  -2.87073    1.000000    
    274 O2    s    0.471226 *  0.208200 *  0.804090 *  -2.87073    1.000000    
    275 O2    s    0.735474 *  0.523874 *  0.473870 *  -2.87073    1.000000    
    276 O2    s    0.791498 *  0.259924 *  0.138396 *  -2.87073    1.000000    
    277 O2    s    0.251158 *  0.329906 *  0.903506 *  -2.87073    1.000000    
    278 O2    s    0.667535 *  0.915795 *  0.235803 *  -2.87073    1.000000    
    279 O2    s    0.095075 *  0.754672 *  0.569509 *  -2.87073    1.000000    
    280 O2    s    0.753869 *  0.663511 *  0.404481 *  -2.87073    1.000000    
    281 O2    s    0.335115 *  0.085259 *  0.735121 *  -2.87073    1.000000    
    282 O2    s    0.913878 *  0.243693 *  0.069293 *  -2.87073    1.000000    
    283 O2    s    0.331025 *  0.238480 *  0.440570 *  -2.87073    1.000000    
    284 O2    s    0.907216 *  0.667875 *  0.103242 *  -2.87073    1.000000    
    285 O2    s    0.761993 *  0.087058 *  0.770533 *  -2.87073    1.000000    
    286 O2    s    0.673773 *  0.754623 *  0.940562 *  -2.87073    1.000000    
    287 O2    s    0.096134 *  0.328542 *  0.604308 *  -2.87073    1.000000    
    288 O2    s    0.243537 *  0.914681 *  0.272569 *  -2.87073    1.000000    
    289 O3    s    0.600889 *  0.577537 *  0.999184 *  -3.33043    1.000000    
    290 O3    s    0.419524 *  0.019055 *  0.331676 *  -3.33043    1.000000    
    291 O2    s    0.975913 *  0.408134 *  0.656771 *  -2.87073    1.000000    
    292 O3    s    0.403727 *  0.416340 *  0.499451 *  -3.33043    1.000000    
    293 O2    s    0.564097 *  0.969906 *  0.823551 *  -2.87073    1.000000    
    294 O2    s    0.029455 *  0.592125 *  0.156317 *  -2.87073    1.000000    
    295 O2    s    0.554942 *  0.578420 *  0.352377 *  -2.87073    1.000000    
    296 O2    s    0.026095 *  0.442016 *  0.015869 *  -2.87073    1.000000    
    297 O2    s    0.419559 *  0.968628 *  0.683038 *  -2.87073    1.000000    
    298 O2    s    0.449315 *  0.415659 *  0.851574 *  -2.87073    1.000000    
    299 O2    s    0.981980 *  0.556001 *  0.515862 *  -2.87073    1.000000    
    300 O2    s    0.581686 *  0.030761 *  0.184673 *  -2.87073    1.000000    
    301 O3    s    0.581349 *  0.177564 *  0.248872 *  -3.33043    1.000000    
    302 O2    s    0.847999 *  0.418101 *  0.585570 *  -2.87073    1.000000    
    303 O3    s    0.597561 *  0.415542 *  0.914556 *  -3.33043    1.000000    
    304 O2    s    0.424455 *  0.838052 *  0.753808 *  -2.87073    1.000000    
    305 O2    s    0.158577 *  0.580720 *  0.085871 *  -2.87073    1.000000    
    306 O3    s    0.406870 *  0.578113 *  0.415419 *  -3.33043    1.000000    
    307 F     s    0.480755 *  0.960027 *  0.265854 *  -1.56000    1.000000    
    308 F     s    0.092613 *  0.541745 *  0.588472 *  -1.56000    1.000000    
    309 F     s    0.481643 *  0.516489 *  0.933332 *  -1.56000    1.000000    
    310 F     s    0.549131 *  0.088669 *  0.754526 *  -1.56000    1.000000    
    311 F     s    0.915918 *  0.456476 *  0.088240 *  -1.56000    1.000000    
    312 F     s    0.522428 *  0.477624 *  0.433661 *  -1.56000    1.000000    
--------------------------------------------------------------------------------



********************************************************************************
*  General input information                                                   *
********************************************************************************

  Species output for all configurations : 

--------------------------------------------------------------------------------
  Species    Type    Atomic    Atomic    Charge       Radii (Angs)     Library
                     Number     Mass       (e)     Cova   Ionic  VDW   Symbol
--------------------------------------------------------------------------------
    Si       Core       14      28.09   4.000000   1.200  0.000  2.100          
    O1       Core        8      16.00   1.733957   0.730  0.000  1.360          
    O1       Shell       8       0.00  -3.733957   0.730  0.000  1.360          
    O2       Core        8      16.00   0.870733   0.730  0.000  1.360          
    O2       Shell       8       0.00  -2.870733   0.730  0.000  1.360          
    O3       Core        8      16.00   1.330431   0.730  0.000  1.360          
    O3       Shell       8       0.00  -3.330431   0.730  0.000  1.360          
    F        Core        9      19.00   0.560000   0.710  0.000  1.300          
    F        Shell       9       0.00  -1.560000   0.710  0.000  1.300          
    Ge       Core       32      72.61   4.000000   1.170  0.000  1.750          
--------------------------------------------------------------------------------


  Lattice summation method               =    Ewald          (3-D)
                                         =    Parry          (2-D)
                                         =    Saunders et al (1-D)
  Accuracy factor for lattice sums       =   12.000


  Time limit = Infinity

  Maximum range for interatomic potentials =        16.000000 Angstroms

  Taper potentials to zero over   1.0000 Angstroms using polynomial

  General interatomic potentials :

--------------------------------------------------------------------------------
Atom  Types   Potential         A         B         C         D     Cutoffs(Ang)
  1     2                                                            Min    Max 
--------------------------------------------------------------------------------
Si   c O1   s Buckingham    0.132E+04 0.318      10.1      0.00     0.000 16.000
Si   c O2   s Buckingham    0.132E+04 0.318      10.1      0.00     0.000 16.000
Si   c O3   s Buckingham    0.132E+04 0.318      10.1      0.00     0.000 16.000
Ge   c O1   s Buckingham    0.150E+04 0.326      16.8      0.00     0.000 16.000
Ge   c O2   s Buckingham    0.150E+04 0.326      16.8      0.00     0.000 16.000
Ge   c O3   s Buckingham    0.150E+04 0.326      16.8      0.00     0.000 16.000
O1   s O1   s Buckingham    0.228E+05 0.149      10.9      0.00     0.000 16.000
O1   s O2   s Buckingham    0.228E+05 0.149      10.9      0.00     0.000 16.000
O1   s O3   s Buckingham    0.228E+05 0.149      10.9      0.00     0.000 16.000
O2   s O2   s Buckingham    0.228E+05 0.149      10.9      0.00     0.000 16.000
O2   s O3   s Buckingham    0.228E+05 0.149      10.9      0.00     0.000 16.000
O3   s O3   s Buckingham    0.228E+05 0.149      10.9      0.00     0.000 16.000
Si   c F    s Buckingham     977.     0.282      0.00      0.00     0.000 16.000
Ge   c F    s Buckingham     681.     0.320      0.00      0.00     0.000 16.000
F    s F    s Buckingham     540.     0.262      0.00      0.00     0.000 16.000
O1   s F    s Buckingham    0.168E+04 0.268      0.00      0.00     0.000 16.000
O2   s F    s Buckingham    0.168E+04 0.268      0.00      0.00     0.000 16.000
O3   s F    s Buckingham    0.168E+04 0.268      0.00      0.00     0.000 16.000
O2   c O2   s Spring (c-s)   76.0      0.00      0.00      0.00     0.000  0.800
O3   c O3   s Spring (c-s)   128.      0.00      0.00      0.00     0.000  0.800
O1   c O1   s Spring (c-s)   180.      0.00      0.00      0.00     0.000  0.800
F    c F    s Spring (c-s)   33.5      0.00      0.00      0.00     0.000  0.800
--------------------------------------------------------------------------------

  General Three-body potentials :

  Harmonic form:

--------------------------------------------------------------------------------
Atom    Atom    Atom           Force Constants            Theta     Cutoffs  
  1       2       3     (eVrad**-2/eVrad**-3/eVrad**-4)   (deg)  1-2  1-3  2-3
--------------------------------------------------------------------------------
Si    c O1    s O1    s  1.261        0.0000    0.0000   109.470 0.00 0.00 0.00
                                                                 1.90 1.90 3.50
Si    c O1    s O2    s  1.261        0.0000    0.0000   109.470 0.00 0.00 0.00
                                                                 1.90 1.90 3.50
Si    c O2    s O2    s  1.261        0.0000    0.0000   109.470 0.00 0.00 0.00
                                                                 1.90 1.90 3.50
--------------------------------------------------------------------------------

********************************************************************************
*  Output for configuration   1                                                *
********************************************************************************


  Components of energy : 

--------------------------------------------------------------------------------
  Interatomic potentials     =        2067.40802799 eV
  Three-body potentials      =           0.45870429 eV
  Monopole - monopole (real) =       -6618.42934040 eV
  Monopole - monopole (recip)=       -3170.63696463 eV
  Monopole - monopole (total)=       -9789.06630503 eV
  Neutralising energy        =          -6.45858891 eV
--------------------------------------------------------------------------------
  Total lattice energy       =       -7727.65816166 eV
--------------------------------------------------------------------------------
  Total lattice energy       =         -745600.8845 kJ/(mole unit cells)
--------------------------------------------------------------------------------


  Number of variables =      939

  Maximum number of calculations  =          5000
  Maximum Hessian update interval =            10
  Maximum step size               =   0.100000000
  Maximum parameter tolerance     =   0.000010000
  Maximum function  tolerance     =   0.000010000
  Maximum gradient  tolerance     =   0.001000000
  Maximum gradient  component     =   0.010000000

  Symmetry not applied to optimisation

  Cell parameters to be optimised using strains

  Newton-Raphson optimiser to be used

  BFGS hessian update to be used

  Dumpfile to be written after every cycle

  Start of bulk optimisation :

  Cycle:      0 Energy:     -7727.658162  Gnorm:      0.011462  CPU:    2.012
  ** Hessian calculated **
  Cycle:      1 Energy:     -7727.658439  Gnorm:      0.003749  CPU:    5.213
  Cycle:      2 Energy:     -7727.658514  Gnorm:      0.002303  CPU:    8.037
  Cycle:      3 Energy:     -7727.658669  Gnorm:      0.001753  CPU:   12.894
  Cycle:      4 Energy:     -7727.658865  Gnorm:      0.003306  CPU:   17.073
  Cycle:      5 Energy:     -7727.659190  Gnorm:      0.005811  CPU:   21.931
  Cycle:      6 Energy:     -7727.659594  Gnorm:      0.008029  CPU:   26.111
  Cycle:      7 Energy:     -7727.660244  Gnorm:      0.011025  CPU:   30.972
  Cycle:      8 Energy:     -7727.661028  Gnorm:      0.013881  CPU:   35.154
  Cycle:      9 Energy:     -7727.662041  Gnorm:      0.016485  CPU:   39.334
  Cycle:     10 Energy:     -7727.663348  Gnorm:      0.018896  CPU:   43.516
  ** Hessian calculated **
  Cycle:     11 Energy:     -7727.664271  Gnorm:      0.005149  CPU:   48.707
  Cycle:     12 Energy:     -7727.664519  Gnorm:      0.003218  CPU:   52.207
  Cycle:     13 Energy:     -7727.664796  Gnorm:      0.003273  CPU:   56.385
  Cycle:     14 Energy:     -7727.665091  Gnorm:      0.004167  CPU:   60.563
  Cycle:     15 Energy:     -7727.665288  Gnorm:      0.003749  CPU:   64.063
  Cycle:     16 Energy:     -7727.665464  Gnorm:      0.003067  CPU:   67.564
  Cycle:     17 Energy:     -7727.665690  Gnorm:      0.002573  CPU:   71.741
  Cycle:     18 Energy:     -7727.665964  Gnorm:      0.002630  CPU:   75.920
  Cycle:     19 Energy:     -7727.666320  Gnorm:      0.003646  CPU:   80.098
  Cycle:     20 Energy:     -7727.666813  Gnorm:      0.004828  CPU:   84.276
  ** Hessian calculated **
  Cycle:     21 Energy:     -7727.667451  Gnorm:      0.004805  CPU:   90.144
  Cycle:     22 Energy:     -7727.668528  Gnorm:      0.004766  CPU:   95.000
  Cycle:     23 Energy:     -7727.670190  Gnorm:      0.004705  CPU:   99.856
  Cycle:     24 Energy:     -7727.672672  Gnorm:      0.004612  CPU:  104.713
  Cycle:     25 Energy:     -7727.675717  Gnorm:      0.004496  CPU:  108.893
  Cycle:     26 Energy:     -7727.680720  Gnorm:      0.004298  CPU:  113.751
  Cycle:     27 Energy:     -7727.686860  Gnorm:      0.004042  CPU:  117.932
  Cycle:     28 Energy:     -7727.696572  Gnorm:      0.003599  CPU:  122.790
  Cycle:     29 Energy:     -7727.707500  Gnorm:      0.003024  CPU:  126.969
  Cycle:     30 Energy:     -7727.719767  Gnorm:      0.002216  CPU:  131.148
  ** Hessian calculated **
  Cycle:     31 Energy:     -7727.730344  Gnorm:      0.001133  CPU:  137.014
  Cycle:     32 Energy:     -7727.732998  Gnorm:      0.000610  CPU:  141.190
  Cycle:     33 Energy:     -7727.733667  Gnorm:      0.000321  CPU:  145.364
  Cycle:     34 Energy:     -7727.733836  Gnorm:      0.000165  CPU:  149.540
  Cycle:     35 Energy:     -7727.733865  Gnorm:      0.000116  CPU:  152.361
  Cycle:     36 Energy:     -7727.733879  Gnorm:      0.000082  CPU:  155.182
  Cycle:     37 Energy:     -7727.733886  Gnorm:      0.000057  CPU:  158.002


  **** Optimisation achieved ****


  Final energy =   -7727.73388924 eV
  Final Gnorm  =       0.00004005

  Components of energy : 

--------------------------------------------------------------------------------
  Interatomic potentials     =        2067.50565312 eV
  Three-body potentials      =           0.46529285 eV
  Monopole - monopole (real) =       -6619.59402438 eV
  Monopole - monopole (recip)=       -3169.65422586 eV
  Monopole - monopole (total)=       -9789.24825024 eV
  Neutralising energy        =          -6.45658497 eV
--------------------------------------------------------------------------------
  Total lattice energy       =       -7727.73388924 eV
--------------------------------------------------------------------------------
  Total lattice energy       =         -745608.1911 kJ/(mole unit cells)
--------------------------------------------------------------------------------

  Final fractional coordinates of atoms :

--------------------------------------------------------------------------------
   No.  Atomic        x           y          z          Radius
        Label       (Frac)      (Frac)     (Frac)       (Angs) 
--------------------------------------------------------------------------------
     1  Si    c     0.699600    0.375700    0.033890    0.000000
     2  Si    c     0.612075    0.300422    0.370613    0.000000
     3  Si    c     0.672321    0.271035    0.700682    0.000000
     4  Si    c     0.298936    0.596803    0.536493    0.000000
     5  Si    c     0.382786    0.661327    0.870706    0.000000
     6  Si    c     0.326260    0.703619    0.201029    0.000000
     7  Si    c     0.376096    0.691861    0.303040    0.000000
     8  Si    c     0.326526    0.612339    0.972793    0.000000
     9  Si    c     0.291147    0.647922    0.638139    0.000000
    10  Si    c     0.620477    0.276809    0.801108    0.000000
    11  Si    c     0.667915    0.355257    0.473388    0.000000
    12  Si    c     0.706421    0.325121    0.135420    0.000000
    13  Ge    c     0.528117    0.421220    0.967428    0.000000
    14  Ge    c     0.563903    0.085646    0.301156    0.000000
    15  Si    c     0.883113    0.443638    0.637044    0.000000
    16  Ge    c     0.465935    0.547433    0.468676    0.000000
    17  Si    c     0.420159    0.869349    0.804300    0.000000
    18  Si    c     0.114782    0.530603    0.135928    0.000000
    19  Si    c     0.403236    0.515546    0.369479    0.000000
    20  Si    c     0.113566    0.579191    0.035046    0.000000
    21  Si    c     0.465868    0.858642    0.703028    0.000000
    22  Si    c     0.592563    0.449779    0.868612    0.000000
    23  Si    c     0.883788    0.392914    0.535904    0.000000
    24  Si    c     0.534104    0.125199    0.202566    0.000000
    25  Si    c     0.305874    0.378529    0.856554    0.000000
    26  Si    c     0.606524    0.908808    0.188797    0.000000
    27  Si    c     0.094006    0.672648    0.522984    0.000000
    28  Si    c     0.688760    0.584881    0.357609    0.000000
    29  Si    c     0.394301    0.069471    0.688285    0.000000
    30  Si    c     0.904110    0.299151    0.021620    0.000000
    31  Si    c     0.386219    0.273730    0.491385    0.000000
    32  Si    c     0.908150    0.602795    0.150500    0.000000
    33  Si    c     0.698395    0.076058    0.817882    0.000000
    34  Si    c     0.609094    0.694776    0.991246    0.000000
    35  Si    c     0.089602    0.370552    0.652361    0.000000
    36  Si    c     0.293241    0.893457    0.322871    0.000000
    37  Si    c     0.249856    0.322572    0.958761    0.000000
    38  Si    c     0.662940    0.904249    0.290936    0.000000
    39  Si    c     0.083045    0.721153    0.623383    0.000000
    40  Si    c     0.743946    0.644569    0.459672    0.000000
    41  Si    c     0.339916    0.069037    0.788885    0.000000
    42  Si    c     0.915556    0.252228    0.122149    0.000000
    43  Si    c     0.328659    0.233999    0.387929    0.000000
    44  Si    c     0.912529    0.656868    0.049735    0.000000
    45  Si    c     0.743959    0.060455    0.717395    0.000000
    46  Si    c     0.667006    0.731482    0.888059    0.000000
    47  Si    c     0.085280    0.315970    0.551549    0.000000
    48  Si    c     0.255029    0.918322    0.220026    0.000000
    49  Si    c     0.965965    0.114189    0.972122    0.000000
    50  Si    c     0.873351    0.829245    0.306719    0.000000
    51  Si    c     0.143911    0.001041    0.640331    0.000000
    52  Si    c     0.027267    0.854377    0.473901    0.000000
    53  Si    c     0.121191    0.130561    0.806140    0.000000
    54  Si    c     0.854893    0.972984    0.140324    0.000000
    55  Si    c     0.110568    0.951978    0.373333    0.000000
    56  Si    c     0.853142    0.878975    0.039567    0.000000
    57  Si    c     0.023760    0.124708    0.705148    0.000000
    58  Si    c     0.879484    0.012642    0.871203    0.000000
    59  Si    c     0.142842    0.092852    0.539993    0.000000
    60  Si    c     0.972678    0.846556    0.205471    0.000000
    61  O2    c     0.931250    0.001077    0.007753    0.000000
    62  O2    c     0.986956    0.911423    0.341980    0.000000
    63  O2    c     0.069169    0.041424    0.675966    0.000000
    64  O2    c     0.060768    0.969036    0.508902    0.000000
    65  O2    c     0.005063    0.053557    0.840998    0.000000
    66  O2    c     0.927953    0.932197    0.176860    0.000000
    67  O2    c     0.334841    0.561806    0.331484    0.000000
    68  O2    c     0.414128    0.731426    0.671358    0.000000
    69  O2    c     0.239200    0.652805    0.002748    0.000000
    70  O2    c     0.662457    0.406021    0.831135    0.000000
    71  O2    c     0.579848    0.241045    0.166086    0.000000
    72  O2    c     0.757462    0.317650    0.503644    0.000000
    73  O3    c     0.580116    0.335660    0.002967    0.000000
    74  O2    c     0.755601    0.393113    0.668249    0.000000
    75  O3    c     0.648481    0.220251    0.338422    0.000000
    76  O3    c     0.416373    0.634130    0.504968    0.000000
    77  O2    c     0.242593    0.583288    0.167831    0.000000
    78  O2    c     0.345819    0.745126    0.837618    0.000000
    79  O2    c     0.117873    0.204575    0.976929    0.000000
    80  O2    c     0.782044    0.891190    0.309418    0.000000
    81  O2    c     0.081490    0.846764    0.644215    0.000000
    82  O2    c     0.876052    0.762044    0.478651    0.000000
    83  O2    c     0.213183    0.067491    0.809173    0.000000
    84  O2    c     0.918453    0.127766    0.143356    0.000000
    85  O2    c     0.205191    0.105605    0.367371    0.000000
    86  O2    c     0.910859    0.783850    0.030582    0.000000
    87  O2    c     0.870202    0.059353    0.698255    0.000000
    88  O2    c     0.789167    0.857782    0.866908    0.000000
    89  O2    c     0.086583    0.189322    0.531653    0.000000
    90  O2    c     0.126646    0.913443    0.199855    0.000000
    91  O2    c     0.933790    0.843890    0.257373    0.000000
    92  O2    c     0.125391    0.046224    0.591455    0.000000
    93  O2    c     0.924498    0.053426    0.922483    0.000000
    94  O2    c     0.060663    0.118412    0.756996    0.000000
    95  O2    c     0.871783    0.926050    0.091324    0.000000
    96  O2    c     0.066103    0.916157    0.424497    0.000000
    97  O2    c     0.898104    0.198826    0.982836    0.000000
    98  O2    c     0.788496    0.678020    0.319035    0.000000
    99  O2    c     0.296176    0.069004    0.650275    0.000000
   100  O2    c     0.098576    0.772672    0.484376    0.000000
   101  O2    c     0.206987    0.282484    0.818371    0.000000
   102  O2    c     0.703010    0.908550    0.150481    0.000000
   103  O2    c     0.181523    0.872785    0.358383    0.000000
   104  O2    c     0.701894    0.806709    0.027229    0.000000
   105  O2    c     0.092108    0.274404    0.691008    0.000000
   106  O2    c     0.798886    0.081576    0.856145    0.000000
   107  O2    c     0.293071    0.162363    0.526979    0.000000
   108  O2    c     0.904820    0.698862    0.188864    0.000000
   109  O2    c     0.328101    0.649574    0.251104    0.000000
   110  O2    c     0.347632    0.647291    0.588486    0.000000
   111  O2    c     0.329436    0.660777    0.921118    0.000000
   112  O2    c     0.675117    0.329839    0.750796    0.000000
   113  O2    c     0.652118    0.327863    0.085671    0.000000
   114  O2    c     0.662382    0.303868    0.422260    0.000000
   115  O3    c     0.362811    0.305205    0.978192    0.000000
   116  O3    c     0.679241    0.034007    0.311330    0.000000
   117  O2    c     0.951024    0.599914    0.641887    0.000000
   118  O3    c     0.631751    0.663246    0.479003    0.000000
   119  O2    c     0.332365    0.937944    0.808339    0.000000
   120  O2    c     0.047217    0.374623    0.141201    0.000000
   121  O2    c     0.318365    0.356943    0.369361    0.000000
   122  O2    c     0.046713    0.669083    0.032092    0.000000
   123  O2    c     0.621555    0.926344    0.700337    0.000000
   124  O2    c     0.676092    0.608622    0.869440    0.000000
   125  O2    c     0.951798    0.304102    0.533058    0.000000
   126  O2    c     0.376069    0.050957    0.202223    0.000000
   127  O2    c     0.771653    0.299411    0.014857    0.000000
   128  O2    c     0.684100    0.448719    0.352390    0.000000
   129  O2    c     0.527654    0.201965    0.679892    0.000000
   130  O2    c     0.226561    0.672214    0.516615    0.000000
   131  O2    c     0.310232    0.515635    0.850782    0.000000
   132  O2    c     0.471165    0.777042    0.181551    0.000000
   133  O2    c     0.300589    0.760478    0.324447    0.000000
   134  O2    c     0.470405    0.689516    0.993620    0.000000
   135  O2    c     0.221580    0.505087    0.660920    0.000000
   136  O2    c     0.695123    0.209262    0.824923    0.000000
   137  O2    c     0.525029    0.279844    0.494781    0.000000
   138  O2    c     0.777696    0.467572    0.158984    0.000000
   139  O2    c     0.790840    0.531983    0.028899    0.000000
   140  O2    c     0.457822    0.242812    0.369164    0.000000
   141  O2    c     0.742004    0.184304    0.696600    0.000000
   142  O2    c     0.208578    0.440379    0.531879    0.000000
   143  O2    c     0.536365    0.723489    0.869978    0.000000
   144  O2    c     0.264497    0.796760    0.200714    0.000000
   145  O2    c     0.530170    0.778970    0.307420    0.000000
   146  O2    c     0.260751    0.457512    0.976460    0.000000
   147  O2    c     0.210172    0.723687    0.643004    0.000000
   148  O2    c     0.464995    0.197835    0.807260    0.000000
   149  O2    c     0.733552    0.510253    0.477151    0.000000
   150  O2    c     0.787487    0.249169    0.140693    0.000000
   151  O2    c     0.239965    0.311139    0.903709    0.000000
   152  O2    c     0.674071    0.907369    0.235892    0.000000
   153  O2    c     0.085131    0.741928    0.569234    0.000000
   154  O2    c     0.754695    0.656444    0.404632    0.000000
   155  O2    c     0.321213    0.067587    0.734692    0.000000
   156  O2    c     0.914124    0.231128    0.067981    0.000000
   157  O2    c     0.316385    0.217776    0.442145    0.000000
   158  O2    c     0.908985    0.674535    0.104010    0.000000
   159  O2    c     0.765963    0.067983    0.771649    0.000000
   160  O2    c     0.679869    0.749365    0.942289    0.000000
   161  O2    c     0.087007    0.297233    0.605873    0.000000
   162  O2    c     0.238403    0.911898    0.274139    0.000000
   163  O3    c     0.600563    0.562902    0.003877    0.000000
   164  O3    c     0.422836    0.017307    0.336471    0.000000
   165  O2    c     0.962717    0.382103    0.661252    0.000000
   166  O3    c     0.393171    0.405306    0.504043    0.000000
   167  O2    c     0.561271    0.949249    0.827734    0.000000
   168  O2    c     0.037277    0.594766    0.159709    0.000000
   169  O2    c     0.548420    0.568635    0.349764    0.000000
   170  O2    c     0.029803    0.437627    0.011936    0.000000
   171  O2    c     0.409469    0.943968    0.680188    0.000000
   172  O2    c     0.446672    0.397718    0.849282    0.000000
   173  O2    c     0.968000    0.534145    0.513029    0.000000
   174  O2    c     0.586648    0.031446    0.182694    0.000000
   175  O3    c     0.587243    0.182923    0.251407    0.000000
   176  O2    c     0.828428    0.391759    0.586277    0.000000
   177  O3    c     0.597938    0.395324    0.916903    0.000000
   178  O2    c     0.415434    0.809608    0.754341    0.000000
   179  O2    c     0.170760    0.581540    0.085442    0.000000
   180  O3    c     0.396243    0.571837    0.417349    0.000000
   181  F     c     0.474073    0.942213    0.263502    0.000000
   182  F     c     0.083219    0.518907    0.589198    0.000000
   183  F     c     0.474479    0.512418    0.930988    0.000000
   184  F     c     0.543753    0.069493    0.754850    0.000000
   185  F     c     0.917591    0.455499    0.087759    0.000000
   186  F     c     0.519289    0.455801    0.431675    0.000000
   187  O2    s     0.926208    0.999892    0.007356    0.000000
   188  O2    s     0.988068    0.906769    0.341531    0.000000
   189  O2    s     0.072350    0.046334    0.675299    0.000000
   190  O2    s     0.066392    0.970168    0.508466    0.000000
   191  O2    s     0.003968    0.057457    0.840506    0.000000
   192  O2    s     0.924847    0.927282    0.175990    0.000000
   193  O2    s     0.345932    0.571017    0.332182    0.000000
   194  O2    s     0.407243    0.736410    0.671348    0.000000
   195  O2    s     0.235714    0.641147    0.002842    0.000000
   196  O2    s     0.650957    0.397264    0.831894    0.000000
   197  O2    s     0.588040    0.237645    0.166718    0.000000
   198  O2    s     0.760944    0.329189    0.503754    0.000000
   199  O3    s     0.589943    0.346101    0.003978    0.000000
   200  O2    s     0.759681    0.385298    0.668534    0.000000
   201  O3    s     0.638586    0.220219    0.339546    0.000000
   202  O3    s     0.406717    0.624041    0.505979    0.000000
   203  O2    s     0.238896    0.591046    0.168247    0.000000
   204  O2    s     0.357270    0.748521    0.837865    0.000000
   205  O2    s     0.115292    0.207403    0.974409    0.000000
   206  O2    s     0.779247    0.885562    0.307092    0.000000
   207  O2    s     0.088393    0.850492    0.641680    0.000000
   208  O2    s     0.878708    0.759590    0.476048    0.000000
   209  O2    s     0.216372    0.074351    0.806805    0.000000
   210  O2    s     0.911332    0.123877    0.140888    0.000000
   211  O2    s     0.207821    0.102529    0.370069    0.000000
   212  O2    s     0.904909    0.780891    0.033476    0.000000
   213  O2    s     0.873300    0.066322    0.700934    0.000000
   214  O2    s     0.786020    0.861018    0.869538    0.000000
   215  O2    s     0.092455    0.192071    0.534561    0.000000
   216  O2    s     0.123794    0.906943    0.202514    0.000000
   217  O2    s     0.931409    0.842576    0.257057    0.000000
   218  O2    s     0.129468    0.046321    0.591221    0.000000
   219  O2    s     0.924099    0.055662    0.922286    0.000000
   220  O2    s     0.063493    0.120471    0.756875    0.000000
   221  O2    s     0.867833    0.926115    0.091083    0.000000
   222  O2    s     0.066863    0.913352    0.424144    0.000000
   223  O2    s     0.906031    0.199851    0.985599    0.000000
   224  O2    s     0.787494    0.684712    0.321588    0.000000
   225  O2    s     0.290279    0.061877    0.653168    0.000000
   226  O2    s     0.090499    0.771426    0.487099    0.000000
   227  O2    s     0.208263    0.276539    0.821052    0.000000
   228  O2    s     0.708893    0.915303    0.153381    0.000000
   229  O2    s     0.185398    0.883227    0.356324    0.000000
   230  O2    s     0.708446    0.803140    0.024931    0.000000
   231  O2    s     0.084469    0.267941    0.688635    0.000000
   232  O2    s     0.797321    0.073588    0.853855    0.000000
   233  O2    s     0.286608    0.166146    0.524790    0.000000
   234  O2    s     0.912587    0.705104    0.186709    0.000000
   235  O2    s     0.332864    0.659641    0.251190    0.000000
   236  O2    s     0.336880    0.642409    0.588666    0.000000
   237  O2    s     0.334713    0.655878    0.921147    0.000000
   238  O2    s     0.669094    0.318177    0.750897    0.000000
   239  O2    s     0.662810    0.332406    0.085876    0.000000
   240  O2    s     0.657884    0.308935    0.422460    0.000000
   241  O3    s     0.361642    0.314789    0.975360    0.000000
   242  O3    s     0.669696    0.023609    0.308431    0.000000
   243  O2    s     0.957767    0.596433    0.639460    0.000000
   244  O3    s     0.632650    0.653496    0.476215    0.000000
   245  O2    s     0.342242    0.944442    0.805898    0.000000
   246  O2    s     0.040610    0.378098    0.138688    0.000000
   247  O2    s     0.327604    0.359664    0.371286    0.000000
   248  O2    s     0.039934    0.658626    0.034203    0.000000
   249  O2    s     0.618473    0.933431    0.702404    0.000000
   250  O2    s     0.667082    0.606359    0.871350    0.000000
   251  O2    s     0.958467    0.314438    0.535253    0.000000
   252  O2    s     0.378485    0.044151    0.204133    0.000000
   253  O2    s     0.779180    0.307048    0.017561    0.000000
   254  O2    s     0.677362    0.448833    0.354819    0.000000
   255  O2    s     0.528472    0.195082    0.682953    0.000000
   256  O2    s     0.219086    0.664762    0.519337    0.000000
   257  O2    s     0.317404    0.516550    0.853498    0.000000
   258  O2    s     0.470197    0.783155    0.184350    0.000000
   259  O2    s     0.307777    0.766791    0.322012    0.000000
   260  O2    s     0.469210    0.681978    0.991179    0.000000
   261  O2    s     0.214815    0.505559    0.657669    0.000000
   262  O2    s     0.687819    0.202073    0.821721    0.000000
   263  O2    s     0.525893    0.287043    0.492201    0.000000
   264  O2    s     0.784239    0.467302    0.155658    0.000000
   265  O2    s     0.795493    0.530276    0.031688    0.000000
   266  O2    s     0.459344    0.247906    0.371387    0.000000
   267  O2    s     0.734792    0.179743    0.699274    0.000000
   268  O2    s     0.203698    0.442262    0.534523    0.000000
   269  O2    s     0.533858    0.717548    0.872005    0.000000
   270  O2    s     0.270243    0.799905    0.202827    0.000000
   271  O2    s     0.527240    0.782556    0.305291    0.000000
   272  O2    s     0.266876    0.460519    0.974287    0.000000
   273  O2    s     0.204813    0.715476    0.640422    0.000000
   274  O2    s     0.467430    0.192003    0.804704    0.000000
   275  O2    s     0.727428    0.507391    0.474973    0.000000
   276  O2    s     0.793005    0.257340    0.138199    0.000000
   277  O2    s     0.248086    0.319554    0.904212    0.000000
   278  O2    s     0.665691    0.907232    0.236411    0.000000
   279  O2    s     0.085795    0.732589    0.570197    0.000000
   280  O2    s     0.746558    0.647639    0.405142    0.000000
   281  O2    s     0.330792    0.067927    0.735690    0.000000
   282  O2    s     0.913287    0.240337    0.068958    0.000000
   283  O2    s     0.324529    0.225045    0.441126    0.000000
   284  O2    s     0.909276    0.665044    0.103237    0.000000
   285  O2    s     0.756451    0.068036    0.770816    0.000000
   286  O2    s     0.671602    0.742088    0.941218    0.000000
   287  O2    s     0.087089    0.306948    0.605126    0.000000
   288  O2    s     0.245674    0.910842    0.273042    0.000000
   289  O3    s     0.596649    0.568213    0.000177    0.000000
   290  O3    s     0.418156    0.008327    0.332704    0.000000
   291  O2    s     0.968196    0.387362    0.657817    0.000000
   292  O3    s     0.397380    0.400343    0.500365    0.000000
   293  O2    s     0.561196    0.954517    0.824275    0.000000
   294  O2    s     0.031592    0.588881    0.156285    0.000000
   295  O2    s     0.549216    0.565075    0.352559    0.000000
   296  O2    s     0.025181    0.437806    0.015369    0.000000
   297  O2    s     0.413945    0.948794    0.683485    0.000000
   298  O2    s     0.445485    0.400881    0.852018    0.000000
   299  O2    s     0.972648    0.534062    0.516455    0.000000
   300  O2    s     0.583490    0.027015    0.185369    0.000000
   301  O3    s     0.580121    0.170464    0.249577    0.000000
   302  O2    s     0.839870    0.397293    0.586340    0.000000
   303  O3    s     0.592821    0.402789    0.915085    0.000000
   304  O2    s     0.421093    0.820876    0.754325    0.000000
   305  O2    s     0.159061    0.575991    0.085502    0.000000
   306  O3    s     0.401416    0.564349    0.415581    0.000000
   307  F     s     0.480350    0.952452    0.266199    0.000000
   308  F     s     0.082601    0.518748    0.589422    0.000000
   309  F     s     0.478558    0.505872    0.933666    0.000000
   310  F     s     0.543705    0.069571    0.755090    0.000000
   311  F     s     0.918520    0.455842    0.088002    0.000000
   312  F     s     0.515266    0.462309    0.434274    0.000000
--------------------------------------------------------------------------------

  Final Cartesian lattice vectors (Angstroms) :

       11.990407    0.017097   -0.004701
       -5.903760   10.345571   -0.002392
       -0.088833   -0.127903   29.502374


  Final cell parameters and derivatives :

--------------------------------------------------------------------------------
       a           11.990420 Angstrom     dE/de1(xx)     0.003026 eV/strain
       b           11.911559 Angstrom     dE/de2(yy)     0.003674 eV/strain
       c           29.502785 Angstrom     dE/de3(zz)     0.006427 eV/strain
       alpha       90.141739 Degrees      dE/de4(yz)    -0.000012 eV/strain
       beta        90.195338 Degrees      dE/de5(xz)     0.000223 eV/strain
       gamma      119.629787 Degrees      dE/de6(xy)    -0.001996 eV/strain
--------------------------------------------------------------------------------

  Primitive cell volume =          3662.665202 Angs**3

  Density of cell =      1.746841 g/cm**3

  Non-primitive cell volume =          3662.665202 Angs**3


  Final internal derivatives :

--------------------------------------------------------------------------------
   No.  Atomic          a             b             c           Radius
        Label          (eV)          (eV)          (eV)        (eV/Angs)
--------------------------------------------------------------------------------
      1 Si    c       0.000000      0.000000      0.000000      0.000000
      2 Si    c       0.000209      0.001668      0.001364      0.000000
      3 Si    c       0.000037      0.000693     -0.000711      0.000000
      4 Si    c      -0.000710      0.002533      0.002794      0.000000
      5 Si    c       0.000173     -0.000801     -0.001491      0.000000
      6 Si    c      -0.000987     -0.000703     -0.001106      0.000000
      7 Si    c      -0.000518     -0.000254      0.000626      0.000000
      8 Si    c       0.000898     -0.001246      0.000076      0.000000
      9 Si    c       0.000022      0.000788      0.000117      0.000000
     10 Si    c       0.000126      0.001278      0.000559      0.000000
     11 Si    c      -0.000198      0.000143     -0.000304      0.000000
     12 Si    c       0.000290     -0.000714      0.000612      0.000000
     13 Ge    c      -0.002192      0.002913     -0.001708      0.000000
     14 Ge    c       0.000989     -0.000448      0.002267      0.000000
     15 Si    c       0.000643      0.000610     -0.002023      0.000000
     16 Ge    c       0.001100     -0.001110     -0.001921      0.000000
     17 Si    c      -0.001114     -0.001121      0.001263      0.000000
     18 Si    c      -0.000560     -0.000762     -0.000493      0.000000
     19 Si    c       0.000399     -0.000142      0.001411      0.000000
     20 Si    c       0.000013     -0.000197      0.001759      0.000000
     21 Si    c       0.000136      0.000296     -0.000977      0.000000
     22 Si    c      -0.000284      0.001292     -0.002346      0.000000
     23 Si    c       0.001222     -0.000344      0.000711      0.000000
     24 Si    c      -0.000149     -0.000368     -0.002587      0.000000
     25 Si    c       0.000281      0.000125     -0.002209      0.000000
     26 Si    c      -0.000163      0.000264     -0.000491      0.000000
     27 Si    c       0.001473      0.000440      0.000977      0.000000
     28 Si    c      -0.000495      0.000591     -0.000638      0.000000
     29 Si    c      -0.000267     -0.000152     -0.000753      0.000000
     30 Si    c       0.000133     -0.001129     -0.000959      0.000000
     31 Si    c      -0.000375      0.001329     -0.000598      0.000000
     32 Si    c      -0.000032     -0.000154      0.001421      0.000000
     33 Si    c      -0.000123      0.000186      0.000812      0.000000
     34 Si    c      -0.000574     -0.000495      0.001882      0.000000
     35 Si    c      -0.000238      0.000556     -0.000906      0.000000
     36 Si    c       0.000836     -0.001178     -0.001064      0.000000
     37 Si    c       0.001012      0.000377     -0.000006      0.000000
     38 Si    c       0.000488      0.000706      0.000932      0.000000
     39 Si    c       0.000714      0.000764      0.000531      0.000000
     40 Si    c      -0.000619      0.000189      0.000030      0.000000
     41 Si    c      -0.000580     -0.000273     -0.000809      0.000000
     42 Si    c      -0.000323     -0.000976      0.000421      0.000000
     43 Si    c       0.000177      0.001009      0.000438      0.000000
     44 Si    c      -0.000301      0.001778      0.000820      0.000000
     45 Si    c       0.000953      0.000453      0.000294      0.000000
     46 Si    c      -0.000206     -0.000438      0.001304      0.000000
     47 Si    c       0.000165      0.000453     -0.001183      0.000000
     48 Si    c      -0.000390     -0.000872     -0.000239      0.000000
     49 Si    c      -0.000699     -0.000362      0.001945      0.000000
     50 Si    c      -0.000600      0.000662      0.001899      0.000000
     51 Si    c      -0.000463      0.000200      0.000378      0.000000
     52 Si    c       0.001082      0.001515      0.001012      0.000000
     53 Si    c       0.000718      0.000625      0.001144      0.000000
     54 Si    c      -0.000311     -0.000418      0.001802      0.000000
     55 Si    c      -0.000301      0.000657     -0.001994      0.000000
     56 Si    c      -0.001161      0.000087      0.003400      0.000000
     57 Si    c       0.000283      0.000818     -0.000606      0.000000
     58 Si    c      -0.000534      0.000242     -0.002847      0.000000
     59 Si    c      -0.000476     -0.000101      0.001492      0.000000
     60 Si    c      -0.000345     -0.000836     -0.005367      0.000000
     61 O2    c       0.001147     -0.000180     -0.003880      0.000000
     62 O2    c      -0.000019      0.000502     -0.001222      0.000000
     63 O2    c       0.000028      0.000028     -0.001638      0.000000
     64 O2    c      -0.000770      0.000899     -0.002253      0.000000
     65 O2    c      -0.000272      0.000089     -0.000105      0.000000
     66 O2    c      -0.000086      0.000144     -0.000518      0.000000
     67 O2    c      -0.000132      0.000547     -0.001438      0.000000
     68 O2    c      -0.000116      0.000101     -0.001650      0.000000
     69 O2    c      -0.000401      0.000306      0.001005      0.000000
     70 O2    c      -0.000384     -0.000147     -0.002682      0.000000
     71 O2    c      -0.000518     -0.000054      0.000687      0.000000
     72 O2    c       0.000218     -0.000225      0.000336      0.000000
     73 O3    c      -0.002692     -0.000453     -0.000475      0.000000
     74 O2    c      -0.000775      0.000548      0.000899      0.000000
     75 O3    c       0.000939     -0.001119     -0.002719      0.000000
     76 O3    c      -0.000333      0.001597      0.004328      0.000000
     77 O2    c       0.000393     -0.000071      0.001177      0.000000
     78 O2    c       0.000047      0.000723     -0.002764      0.000000
     79 O2    c      -0.000405     -0.000577      0.000463      0.000000
     80 O2    c      -0.000058     -0.000608      0.000547      0.000000
     81 O2    c      -0.000047      0.000627     -0.000190      0.000000
     82 O2    c      -0.000649      0.000659      0.001927      0.000000
     83 O2    c      -0.000213      0.000309      0.000495      0.000000
     84 O2    c      -0.000315      0.000242     -0.000207      0.000000
     85 O2    c      -0.000496      0.000344     -0.001019      0.000000
     86 O2    c       0.001178     -0.001335     -0.001486      0.000000
     87 O2    c      -0.000267     -0.000031     -0.001716      0.000000
     88 O2    c      -0.000009      0.000622     -0.000070      0.000000
     89 O2    c      -0.000207      0.001211     -0.001564      0.000000
     90 O2    c      -0.000261      0.000259     -0.001304      0.000000
     91 O2    c      -0.000565      0.000599      0.004238      0.000000
     92 O2    c      -0.000012      0.000400     -0.003647      0.000000
     93 O2    c       0.000093     -0.000311     -0.005065      0.000000
     94 O2    c      -0.001118      0.000426     -0.004869      0.000000
     95 O2    c      -0.000093      0.000250     -0.002396      0.000000
     96 O2    c      -0.000775      0.000614     -0.002618      0.000000
     97 O2    c      -0.000365      0.000687     -0.000603      0.000000
     98 O2    c      -0.000168      0.000158      0.000296      0.000000
     99 O2    c      -0.000260      0.000592     -0.000301      0.000000
    100 O2    c       0.000642     -0.000789      0.000105      0.000000
    101 O2    c      -0.000365     -0.000390      0.000415      0.000000
    102 O2    c      -0.000024     -0.000620     -0.001348      0.000000
    103 O2    c       0.000416     -0.000501     -0.000719      0.000000
    104 O2    c      -0.000125     -0.000210     -0.001365      0.000000
    105 O2    c      -0.000069      0.000114     -0.000909      0.000000
    106 O2    c      -0.000554     -0.000217      0.001446      0.000000
    107 O2    c       0.000371      0.000064     -0.001218      0.000000
    108 O2    c      -0.000185     -0.000056     -0.001490      0.000000
    109 O2    c       0.000213     -0.000378     -0.003454      0.000000
    110 O2    c      -0.000150     -0.000041     -0.000829      0.000000
    111 O2    c      -0.000348      0.000811     -0.000040      0.000000
    112 O2    c      -0.000683      0.000385     -0.002780      0.000000
    113 O2    c      -0.000179      0.000148      0.000803      0.000000
    114 O2    c       0.000723     -0.000932     -0.000430      0.000000
    115 O3    c      -0.001810     -0.000535      0.002360      0.000000
    116 O3    c      -0.001223     -0.000432     -0.000796      0.000000
    117 O2    c      -0.000188     -0.000408     -0.000013      0.000000
    118 O3    c       0.000954      0.001369      0.003074      0.000000
    119 O2    c       0.000181      0.000660     -0.002112      0.000000
    120 O2    c       0.000282      0.000207      0.001714      0.000000
    121 O2    c       0.000071     -0.000478      0.000506      0.000000
    122 O2    c       0.000166     -0.000172      0.000183      0.000000
    123 O2    c       0.000013     -0.000418     -0.001655      0.000000
    124 O2    c      -0.000054      0.000776     -0.000835      0.000000
    125 O2    c      -0.000176      0.000895     -0.000029      0.000000
    126 O2    c       0.000406      0.000326     -0.000917      0.000000
    127 O2    c      -0.000833      0.000423     -0.000157      0.000000
    128 O2    c       0.000206      0.000303     -0.000736      0.000000
    129 O2    c      -0.000134      0.000917     -0.000480      0.000000
    130 O2    c       0.000311     -0.000542     -0.000392      0.000000
    131 O2    c      -0.000114      0.000246     -0.001936      0.000000
    132 O2    c       0.000054     -0.001041     -0.001563      0.000000
    133 O2    c       0.000206     -0.000322      0.000389      0.000000
    134 O2    c       0.000456      0.000151      0.002143      0.000000
    135 O2    c       0.000213      0.000745     -0.000384      0.000000
    136 O2    c      -0.000528     -0.000104     -0.001421      0.000000
    137 O2    c      -0.000980     -0.000042      0.001982      0.000000
    138 O2    c      -0.000647     -0.000327      0.001331      0.000000
    139 O2    c      -0.001196      0.000468     -0.001044      0.000000
    140 O2    c      -0.000293     -0.000317     -0.002324      0.000000
    141 O2    c      -0.000141      0.000672     -0.000778      0.000000
    142 O2    c       0.000550      0.000339     -0.001577      0.000000
    143 O2    c       0.000548      0.000335     -0.002126      0.000000
    144 O2    c      -0.000236     -0.000091     -0.000324      0.000000
    145 O2    c       0.000303     -0.000494      0.002053      0.000000
    146 O2    c      -0.000563      0.000274      0.002024      0.000000
    147 O2    c       0.000022     -0.000293     -0.001211      0.000000
    148 O2    c      -0.000564      0.000406     -0.000543      0.000000
    149 O2    c       0.000371     -0.000103      0.001491      0.000000
    150 O2    c      -0.000382     -0.000080      0.000336      0.000000
    151 O2    c      -0.000185     -0.000713      0.002438      0.000000
    152 O2    c       0.000111     -0.000413      0.002142      0.000000
    153 O2    c      -0.000153     -0.000597      0.000762      0.000000
    154 O2    c      -0.000260      0.001133      0.000094      0.000000
    155 O2    c       0.000490      0.000316      0.002292      0.000000
    156 O2    c       0.000330     -0.000128      0.000580      0.000000
    157 O2    c      -0.001055      0.000222     -0.002666      0.000000
    158 O2    c      -0.000480     -0.000195     -0.002327      0.000000
    159 O2    c       0.000421     -0.000541     -0.002874      0.000000
    160 O2    c       0.000676      0.000102     -0.005802      0.000000
    161 O2    c      -0.000364      0.000336     -0.000906      0.000000
    162 O2    c      -0.000725      0.000854     -0.003922      0.000000
    163 O3    c       0.001646     -0.000644      0.004028      0.000000
    164 O3    c       0.000236      0.000160      0.001687      0.000000
    165 O2    c      -0.000268      0.000367     -0.000841      0.000000
    166 O3    c      -0.000449     -0.000662      0.005717      0.000000
    167 O2    c      -0.000233     -0.000398      0.000986      0.000000
    168 O2    c       0.000358     -0.000431      0.000669      0.000000
    169 O2    c       0.000066      0.000423      0.000319      0.000000
    170 O2    c       0.000627      0.000498     -0.000686      0.000000
    171 O2    c       0.000004      0.000297      0.001332      0.000000
    172 O2    c      -0.000227     -0.000036     -0.002358      0.000000
    173 O2    c       0.000351     -0.000355      0.000357      0.000000
    174 O2    c      -0.000395      0.000086      0.000752      0.000000
    175 O3    c       0.000125      0.000343     -0.001016      0.000000
    176 O2    c       0.000251      0.000188     -0.000266      0.000000
    177 O3    c       0.000008     -0.000574     -0.003809      0.000000
    178 O2    c      -0.000034      0.000119      0.001045      0.000000
    179 O2    c       0.000287     -0.000220     -0.001622      0.000000
    180 O3    c       0.000991     -0.000275     -0.004168      0.000000
    181 F     c       0.000435      0.000599      0.000851      0.000000
    182 F     c      -0.000441      0.000439      0.000041      0.000000
    183 F     c       0.000656     -0.000529      0.001538      0.000000
    184 F     c      -0.000580      0.000289      0.000816      0.000000
    185 F     c      -0.000113     -0.000138     -0.000283      0.000000
    186 F     c      -0.000840      0.000882      0.000199      0.000000
    187 O2    s      -0.000529     -0.000371      0.001569      0.000000
    188 O2    s       0.000110      0.000050      0.000783      0.000000
    189 O2    s      -0.000142      0.000134      0.000734      0.000000
    190 O2    s       0.000145     -0.000175      0.001465      0.000000
    191 O2    s      -0.000319      0.000691     -0.000961      0.000000
    192 O2    s       0.000273     -0.000255      0.001549      0.000000
    193 O2    s      -0.000531      0.000374     -0.000637      0.000000
    194 O2    s      -0.000623      0.000515     -0.001857      0.000000
    195 O2    s       0.000104      0.000016     -0.000750      0.000000
    196 O2    s       0.000393     -0.000006      0.001278      0.000000
    197 O2    s      -0.000813     -0.000191     -0.001494      0.000000
    198 O2    s      -0.000886      0.001463     -0.002267      0.000000
    199 O3    s       0.002491      0.000399     -0.001198      0.000000
    200 O2    s      -0.000786     -0.000004      0.002501      0.000000
    201 O3    s      -0.001008      0.000335     -0.002222      0.000000
    202 O3    s       0.000167     -0.000569     -0.004301      0.000000
    203 O2    s       0.000030      0.000425      0.003097      0.000000
    204 O2    s      -0.000447      0.000330      0.000981      0.000000
    205 O2    s       0.000383      0.000763     -0.001723      0.000000
    206 O2    s       0.000032      0.000570     -0.001315      0.000000
    207 O2    s      -0.000425      0.000288      0.000092      0.000000
    208 O2    s      -0.000594     -0.000732     -0.002909      0.000000
    209 O2    s      -0.000740      0.000153     -0.000094      0.000000
    210 O2    s      -0.000348     -0.000100     -0.000249      0.000000
    211 O2    s       0.001002     -0.000549      0.001604      0.000000
    212 O2    s       0.000507     -0.000221     -0.000318      0.000000
    213 O2    s      -0.000425      0.001271      0.001181      0.000000
    214 O2    s      -0.000776     -0.000693      0.000237      0.000000
    215 O2    s      -0.000131      0.000048      0.000906      0.000000
    216 O2    s       0.000996     -0.000782      0.000648      0.000000
    217 O2    s      -0.000388      0.000195     -0.000144      0.000000
    218 O2    s      -0.000208      0.000282      0.002059      0.000000
    219 O2    s      -0.001080      0.000840      0.003109      0.000000
    220 O2    s       0.000693      0.000696      0.003030      0.000000
    221 O2    s      -0.001004      0.000517      0.001858      0.000000
    222 O2    s       0.000868      0.000359      0.001397      0.000000
    223 O2    s      -0.000462     -0.000054     -0.000447      0.000000
    224 O2    s       0.000434     -0.000793      0.000321      0.000000
    225 O2    s      -0.000359      0.000748      0.000016      0.000000
    226 O2    s       0.000691      0.001287     -0.000111      0.000000
    227 O2    s       0.000621      0.000536     -0.000858      0.000000
    228 O2    s       0.000135     -0.000362     -0.000096      0.000000
    229 O2    s      -0.000497     -0.000166      0.002587      0.000000
    230 O2    s      -0.001165     -0.000022      0.000436      0.000000
    231 O2    s       0.000362     -0.000008      0.001427      0.000000
    232 O2    s      -0.000198      0.000451     -0.001479      0.000000
    233 O2    s       0.001068      0.000347      0.000064      0.000000
    234 O2    s      -0.000549     -0.000559      0.001404      0.000000
    235 O2    s      -0.002066     -0.001435      0.000340      0.000000
    236 O2    s       0.001281      0.001386      0.000836      0.000000
    237 O2    s      -0.003010      0.001539     -0.001469      0.000000
    238 O2    s       0.001040      0.000112      0.000618      0.000000
    239 O2    s      -0.000894     -0.000431      0.000116      0.000000
    240 O2    s       0.001529     -0.000141     -0.000418      0.000000
    241 O3    s       0.001518     -0.000785     -0.003157      0.000000
    242 O3    s      -0.000038      0.000449     -0.001674      0.000000
    243 O2    s      -0.000288      0.000132     -0.000775      0.000000
    244 O3    s      -0.000711     -0.000384     -0.004465      0.000000
    245 O2    s       0.000188     -0.000871      0.000011      0.000000
    246 O2    s       0.000045      0.000368      0.000417      0.000000
    247 O2    s       0.000189     -0.000093     -0.000753      0.000000
    248 O2    s       0.000807     -0.000491     -0.000086      0.000000
    249 O2    s      -0.000929      0.000324     -0.000595      0.000000
    250 O2    s       0.000327     -0.000167      0.000601      0.000000
    251 O2    s      -0.000631      0.000531     -0.000886      0.000000
    252 O2    s       0.000665      0.000298      0.000524      0.000000
    253 O2    s      -0.000089      0.000334      0.000948      0.000000
    254 O2    s       0.000566     -0.000165     -0.000738      0.000000
    255 O2    s      -0.000206      0.000473      0.000036      0.000000
    256 O2    s       0.000418      0.001010     -0.000163      0.000000
    257 O2    s      -0.001229      0.000709      0.000384      0.000000
    258 O2    s       0.000421     -0.000590     -0.000211      0.000000
    259 O2    s      -0.000531     -0.000501      0.001864      0.000000
    260 O2    s       0.000085      0.000401      0.001865      0.000000
    261 O2    s       0.000747      0.000180      0.002018      0.000000
    262 O2    s      -0.000564      0.000461     -0.000152      0.000000
    263 O2    s      -0.000427      0.000410      0.001184      0.000000
    264 O2    s      -0.000625      0.000375     -0.001208      0.000000
    265 O2    s       0.001428     -0.002188      0.000118      0.000000
    266 O2    s       0.000862      0.000203      0.000214      0.000000
    267 O2    s      -0.000102      0.000847      0.001319      0.000000
    268 O2    s       0.000730     -0.000207     -0.002265      0.000000
    269 O2    s      -0.000621      0.000465      0.000555      0.000000
    270 O2    s      -0.000930     -0.000821      0.000542      0.000000
    271 O2    s       0.000376     -0.000390      0.000417      0.000000
    272 O2    s      -0.001041     -0.000458     -0.000788      0.000000
    273 O2    s       0.000772      0.000832     -0.000127      0.000000
    274 O2    s      -0.000175      0.000025      0.000885      0.000000
    275 O2    s       0.000517      0.000315     -0.000074      0.000000
    276 O2    s      -0.000415     -0.000363     -0.001468      0.000000
    277 O2    s      -0.000785     -0.000524     -0.002341      0.000000
    278 O2    s       0.000916      0.000644     -0.000977      0.000000
    279 O2    s       0.000594      0.001071     -0.001956      0.000000
    280 O2    s       0.000808      0.000031     -0.001514      0.000000
    281 O2    s      -0.000638     -0.000547     -0.000936      0.000000
    282 O2    s      -0.000928     -0.000458     -0.001475      0.000000
    283 O2    s       0.000164     -0.000884      0.002075      0.000000
    284 O2    s       0.000217      0.000345      0.001785      0.000000
    285 O2    s      -0.000536      0.001723      0.004593      0.000000
    286 O2    s       0.000670      0.001000      0.002566      0.000000
    287 O2    s       0.000527     -0.000537      0.002484      0.000000
    288 O2    s      -0.001192     -0.001142      0.002559      0.000000
    289 O3    s      -0.002593      0.001176     -0.008078      0.000000
    290 O3    s      -0.000088      0.000688     -0.001919      0.000000
    291 O2    s      -0.000316      0.000620     -0.000403      0.000000
    292 O3    s       0.000830     -0.000285     -0.008700      0.000000
    293 O2    s      -0.000290      0.000342      0.000226      0.000000
    294 O2    s       0.000098     -0.000454     -0.000630      0.000000
    295 O2    s      -0.000009      0.000021      0.000354      0.000000
    296 O2    s      -0.000283      0.000497     -0.000007      0.000000
    297 O2    s       0.000010     -0.000235      0.000515      0.000000
    298 O2    s       0.000624     -0.000147      0.001070      0.000000
    299 O2    s      -0.000863      0.000809     -0.000129      0.000000
    300 O2    s      -0.000470      0.000749     -0.000112      0.000000
    301 O3    s       0.000062     -0.001253      0.001278      0.000000
    302 O2    s      -0.000099      0.000563      0.000390      0.000000
    303 O3    s       0.000493      0.000882      0.003840      0.000000
    304 O2    s      -0.001680      0.000717     -0.000061      0.000000
    305 O2    s      -0.000245      0.000761      0.000336      0.000000
    306 O3    s      -0.000479     -0.000376      0.003925      0.000000
    307 F     s       0.000050      0.000927      0.000229      0.000000
    308 F     s      -0.000618      0.000674     -0.000343      0.000000
    309 F     s       0.001385     -0.001652      0.001130      0.000000
    310 F     s      -0.000115      0.000267     -0.000913      0.000000
    311 F     s      -0.000246      0.000231     -0.000547      0.000000
    312 F     s      -0.000441      0.000873      0.000552      0.000000
--------------------------------------------------------------------------------
  Maximum abs         0.003010      0.002913      0.008700      0.000000
--------------------------------------------------------------------------------


  Time to end of optimisation =     160.8261 seconds


  Peak dynamic memory used =      19.13 MB 


  Timing analysis for GULP :

--------------------------------------------------------------------------------
  Task / Subroutine                                          Time (Seconds)
--------------------------------------------------------------------------------
  Calculation of reciprocal space energy and derivatives          3.7224
  Calculation of real space energy and derivatives              140.9648
  Calculation of three-body energy and derivatives               14.4358
  Calculation of matrix inversion                                 1.4897
  Global summation overhead                                       0.0004
--------------------------------------------------------------------------------
  Total CPU time                                                160.8262
--------------------------------------------------------------------------------


  Dump file written as out.res                                                 
  CIF file written as out.cif                                                 


  Job Finished at 06:26.24 13th November   2016                               

