********************************************************************************
*                       GENERAL UTILITY LATTICE PROGRAM                        *
*                                 Julian Gale                                  *
*                      Nanochemistry Research Institute                        *
*                           Department of Chemistry                            *
*                    Curtin University, Western Australia                      *
********************************************************************************
* Version = 4.2.0 * Last modified =  20th January 2014                         *
********************************************************************************
*  optimise     - perform optimisation run                                     *
*  conp         - constant pressure calculation                                *
*  qok          - running with non charge neutral cell is OK                   *
********************************************************************************

  Job Started  at 10:48.24 13th November   2016                               

  Number of CPUs =     1


  Total number of configurations input =   1

********************************************************************************
*  Input for Configuration =   1                                               *
********************************************************************************

  Formula = Si57Ge3O120F6                                               

  Number of irreducible atoms/shells =     312


  Total number atoms/shells =     312

  Dimensionality = 3               :  Bulk   


  Charge on solid   =  -6.000000 =>neutralising background added


  Cartesian lattice vectors (Angstroms) :

       11.991666    0.000000    0.000000
       -5.950376   10.336744    0.000000
       -0.092758   -0.010805   29.488357

  Cell parameters (Angstroms/Degrees):

  a =      11.9917    alpha =  89.9283
  b =      11.9271    beta  =  90.1802
  c =      29.4885    gamma = 119.9270

  Initial cell volume =        3655.222982 Angs**3

  Temperature of configuration =  0.000     K 

  Pressure of configuration =         0.000 GPa 

  Fractional coordinates of asymmetric unit :

--------------------------------------------------------------------------------
   No.  Atomic       x           y          z         Charge      Occupancy
        Label      (Frac)      (Frac)     (Frac)        (e)         (Frac)  
--------------------------------------------------------------------------------
      1 Si    c    0.699600    0.375700    0.033890     4.00000    1.000000    
      2 Si    c    0.624058 *  0.314614 *  0.368837 *   4.00000    1.000000    
      3 Si    c    0.677491 *  0.293548 *  0.699913 *   4.00000    1.000000    
      4 Si    c    0.299068 *  0.620804 *  0.535642 *   4.00000    1.000000    
      5 Si    c    0.382470 *  0.674962 *  0.870700 *   4.00000    1.000000    
      6 Si    c    0.320184 *  0.698290 *  0.203621 *   4.00000    1.000000    
      7 Si    c    0.379732 *  0.698720 *  0.305634 *   4.00000    1.000000    
      8 Si    c    0.326769 *  0.620328 *  0.972868 *   4.00000    1.000000    
      9 Si    c    0.297039 *  0.674273 *  0.636309 *   4.00000    1.000000    
     10 Si    c    0.623521 *  0.294856 *  0.800286 *   4.00000    1.000000    
     11 Si    c    0.675167 *  0.375133 *  0.470252 *   4.00000    1.000000    
     12 Si    c    0.699305 *  0.325617 *  0.135370 *   4.00000    1.000000    
     13 Ge    c    0.532647 *  0.429825 *  0.967128 *   4.00000    1.000000    
     14 Ge    c    0.570810 *  0.096262 *  0.301001 *   4.00000    1.000000    
     15 Si    c    0.888111 *  0.468221 *  0.635981 *   4.00000    1.000000    
     16 Si    c    0.470061 *  0.580110 *  0.470956 *   4.00000    1.000000    
     17 Si    c    0.420760 *  0.884401 *  0.803560 *   4.00000    1.000000    
     18 Si    c    0.107784 *  0.529086 *  0.137837 *   4.00000    1.000000    
     19 Si    c    0.420947 *  0.525918 *  0.369862 *   4.00000    1.000000    
     20 Si    c    0.113043 *  0.581127 *  0.036717 *   4.00000    1.000000    
     21 Si    c    0.470327 *  0.881805 *  0.702031 *   4.00000    1.000000    
     22 Si    c    0.594548 *  0.465455 *  0.867885 *   4.00000    1.000000    
     23 Si    c    0.887147 *  0.415383 *  0.534520 *   4.00000    1.000000    
     24 Si    c    0.529504 *  0.126453 *  0.202280 *   4.00000    1.000000    
     25 Si    c    0.307626 *  0.392746 *  0.855741 *   4.00000    1.000000    
     26 Ge    c    0.604419 *  0.909446 *  0.188713 *   4.00000    1.000000    
     27 Si    c    0.096971 *  0.696970 *  0.520834 *   4.00000    1.000000    
     28 Si    c    0.700057 *  0.596269 *  0.356166 *   4.00000    1.000000    
     29 Si    c    0.398653 *  0.091623 *  0.687161 *   4.00000    1.000000    
     30 Si    c    0.903734 *  0.300088 *  0.022441 *   4.00000    1.000000    
     31 Si    c    0.398297 *  0.298959 *  0.485139 *   4.00000    1.000000    
     32 Si    c    0.902297 *  0.603951 *  0.150565 *   4.00000    1.000000    
     33 Si    c    0.700460 *  0.093769 *  0.816677 *   4.00000    1.000000    
     34 Si    c    0.610381 *  0.703075 *  0.990302 *   4.00000    1.000000    
     35 Si    c    0.095676 *  0.395877 *  0.651065 *   4.00000    1.000000    
     36 Si    c    0.297202 *  0.899793 *  0.323741 *   4.00000    1.000000    
     37 Si    c    0.253318 *  0.332094 *  0.957698 *   4.00000    1.000000    
     38 Si    c    0.668847 *  0.913317 *  0.291476 *   4.00000    1.000000    
     39 Si    c    0.089127 *  0.747051 *  0.621386 *   4.00000    1.000000    
     40 Si    c    0.747820 *  0.657362 *  0.456509 *   4.00000    1.000000    
     41 Si    c    0.342113 *  0.085577 *  0.787816 *   4.00000    1.000000    
     42 Si    c    0.907317 *  0.250934 *  0.123135 *   4.00000    1.000000    
     43 Si    c    0.343195 *  0.246518 *  0.384378 *   4.00000    1.000000    
     44 Si    c    0.911367 *  0.658728 *  0.049586 *   4.00000    1.000000    
     45 Si    c    0.749395 *  0.083749 *  0.716183 *   4.00000    1.000000    
     46 Si    c    0.667696 *  0.745978 *  0.887298 *   4.00000    1.000000    
     47 Si    c    0.089073 *  0.339096 *  0.550481 *   4.00000    1.000000    
     48 Si    c    0.251990 *  0.916146 *  0.220980 *   4.00000    1.000000    
     49 Si    c    0.969322 *  0.121030 *  0.970457 *   4.00000    1.000000    
     50 Si    c    0.879764 *  0.841840 *  0.305556 *   4.00000    1.000000    
     51 Si    c    0.151214 *  0.027415 *  0.637272 *   4.00000    1.000000    
     52 Si    c    0.026162 *  0.876743 *  0.471829 *   4.00000    1.000000    
     53 Si    c    0.123730 *  0.147147 *  0.803924 *   4.00000    1.000000    
     54 Si    c    0.852802 *  0.971755 *  0.137863 *   4.00000    1.000000    
     55 Si    c    0.118398 *  0.967150 *  0.371422 *   4.00000    1.000000    
     56 Si    c    0.857234 *  0.884217 *  0.037328 *   4.00000    1.000000    
     57 Si    c    0.029848 *  0.148622 *  0.702756 *   4.00000    1.000000    
     58 Si    c    0.880680 *  0.027911 *  0.869016 *   4.00000    1.000000    
     59 Si    c    0.151129 *  0.121037 *  0.536400 *   4.00000    1.000000    
     60 Si    c    0.971016 *  0.849484 *  0.203907 *   4.00000    1.000000    
     61 O2    c    0.934894 *  0.000770 *  0.002783 *   0.87073    1.000000    
     62 O2    c    0.000995 *  0.928085 *  0.337367 *   0.87073    1.000000    
     63 O2    c    0.074098 *  0.068707 *  0.671367 *   0.87073    1.000000    
     64 O2    c    0.068030 *  0.996231 *  0.505560 *   0.87073    1.000000    
     65 O2    c    0.003376 *  0.067583 *  0.837125 *   0.87073    1.000000    
     66 O2    c    0.933561 *  0.935587 *  0.172603 *   0.87073    1.000000    
     67 O2    c    0.343943 *  0.574596 *  0.337001 *   0.87073    1.000000    
     68 O2    c    0.419951 *  0.756384 *  0.669528 *   0.87073    1.000000    
     69 O2    c    0.239777 *  0.656918 *  0.004501 *   0.87073    1.000000    
     70 O2    c    0.665358 *  0.423522 *  0.830224 *   0.87073    1.000000    
     71 O2    c    0.571876 *  0.243574 *  0.165897 *   0.87073    1.000000    
     72 O2    c    0.761358 *  0.337380 *  0.502738 *   0.87073    1.000000    
     73 O3    c    0.582403 *  0.340779 *  0.001721 *   1.33043    1.000000    
     74 O2    c    0.761133 *  0.417170 *  0.667594 *   0.87073    1.000000    
     75 O3    c    0.659685 *  0.232299 *  0.337267 *   1.33043    1.000000    
     76 O2    c    0.421235 *  0.657897 *  0.503123 *   0.87073    1.000000    
     77 O2    c    0.230241 *  0.576052 *  0.171843 *   0.87073    1.000000    
     78 O2    c    0.346785 *  0.759671 *  0.837186 *   0.87073    1.000000    
     79 O2    c    0.121186 *  0.212873 *  0.976050 *   0.87073    1.000000    
     80 O2    c    0.786071 *  0.899750 *  0.312299 *   0.87073    1.000000    
     81 O2    c    0.087082 *  0.872587 *  0.641611 *   0.87073    1.000000    
     82 O2    c    0.872900 *  0.783986 *  0.477313 *   0.87073    1.000000    
     83 O2    c    0.214821 *  0.083390 *  0.807900 *   0.87073    1.000000    
     84 O2    c    0.904481 *  0.124797 *  0.144950 *   0.87073    1.000000    
     85 O2    c    0.216482 *  0.119811 *  0.364418 *   0.87073    1.000000    
     86 O2    c    0.911196 *  0.785732 *  0.029597 *   0.87073    1.000000    
     87 O2    c    0.875714 *  0.083283 *  0.696767 *   0.87073    1.000000    
     88 O2    c    0.788904 *  0.872901 *  0.865493 *   0.87073    1.000000    
     89 O2    c    0.089121 *  0.212998 *  0.530131 *   0.87073    1.000000    
     90 O2    c    0.124688 *  0.910156 *  0.199846 *   0.87073    1.000000    
     91 O2    c    0.930325 *  0.856351 *  0.254663 *   0.87073    1.000000    
     92 O2    c    0.138628 *  0.072427 *  0.587613 *   0.87073    1.000000    
     93 O2    c    0.930480 *  0.070275 *  0.919598 *   0.87073    1.000000    
     94 O2    c    0.069074 *  0.138306 *  0.753891 *   0.87073    1.000000    
     95 O2    c    0.881875 *  0.940371 *  0.087800 *   0.87073    1.000000    
     96 O2    c    0.063978 *  0.934912 *  0.421867 *   0.87073    1.000000    
     97 O2    c    0.898595 *  0.200755 *  0.983702 *   0.87073    1.000000    
     98 O2    c    0.801561 *  0.690177 *  0.317897 *   0.87073    1.000000    
     99 O2    c    0.302613 *  0.094224 *  0.648943 *   0.87073    1.000000    
    100 O2    c    0.097819 *  0.795347 *  0.482489 *   0.87073    1.000000    
    101 O2    c    0.208994 *  0.298540 *  0.817073 *   0.87073    1.000000    
    102 O3    c    0.702367 *  0.897866 *  0.147242 *   1.33043    1.000000    
    103 O2    c    0.189851 *  0.885678 *  0.360409 *   0.87073    1.000000    
    104 O2    c    0.704493 *  0.813197 *  0.026583 *   0.87073    1.000000    
    105 O2    c    0.097647 *  0.299920 *  0.689966 *   0.87073    1.000000    
    106 O2    c    0.799757 *  0.097150 *  0.854947 *   0.87073    1.000000    
    107 O2    c    0.301621 *  0.200317 *  0.523508 *   0.87073    1.000000    
    108 O2    c    0.898935 *  0.699860 *  0.188811 *   0.87073    1.000000    
    109 O2    c    0.324608 *  0.649388 *  0.254741 *   0.87073    1.000000    
    110 O2    c    0.355272 *  0.676745 *  0.586191 *   0.87073    1.000000    
    111 O2    c    0.328974 *  0.672310 *  0.921428 *   0.87073    1.000000    
    112 O2    c    0.679839 *  0.350535 *  0.750160 *   0.87073    1.000000    
    113 O2    c    0.646809 *  0.325738 *  0.084942 *   0.87073    1.000000    
    114 O2    c    0.675521 *  0.317618 *  0.420658 *   0.87073    1.000000    
    115 O3    c    0.365894 *  0.314364 *  0.977168 *   1.33043    1.000000    
    116 O3    c    0.684571 *  0.043852 *  0.310967 *   1.33043    1.000000    
    117 O2    c    0.956750 *  0.624791 *  0.639805 *   0.87073    1.000000    
    118 O2    c    0.625904 *  0.668045 *  0.474839 *   0.87073    1.000000    
    119 O2    c    0.333749 *  0.953706 *  0.807090 *   0.87073    1.000000    
    120 O2    c    0.039208 *  0.372821 *  0.142284 *   0.87073    1.000000    
    121 O2    c    0.332403 *  0.369648 *  0.366321 *   0.87073    1.000000    
    122 O2    c    0.046340 *  0.670597 *  0.032890 *   0.87073    1.000000    
    123 O2    c    0.626264 *  0.949668 *  0.699148 *   0.87073    1.000000    
    124 O2    c    0.677701 *  0.624348 *  0.868374 *   0.87073    1.000000    
    125 O2    c    0.956918 *  0.328574 *  0.532001 *   0.87073    1.000000    
    126 O2    c    0.371659 *  0.050495 *  0.203236 *   0.87073    1.000000    
    127 O2    c    0.771226 *  0.300092 *  0.014615 *   0.87073    1.000000    
    128 O2    c    0.698592 *  0.462181 *  0.349043 *   0.87073    1.000000    
    129 O2    c    0.532823 *  0.224706 *  0.679024 *   0.87073    1.000000    
    130 O2    c    0.230552 *  0.696460 *  0.513632 *   0.87073    1.000000    
    131 O2    c    0.310124 *  0.529231 *  0.850797 *   0.87073    1.000000    
    132 O3    c    0.461349 *  0.764742 *  0.182946 *   1.33043    1.000000    
    133 O2    c    0.304814 *  0.767687 *  0.326963 *   0.87073    1.000000    
    134 O2    c    0.471484 *  0.697069 *  0.993337 *   0.87073    1.000000    
    135 O2    c    0.228870 *  0.530602 *  0.658746 *   0.87073    1.000000    
    136 O2    c    0.697356 *  0.226595 *  0.824069 *   0.87073    1.000000    
    137 O2    c    0.533014 *  0.301197 *  0.493281 *   0.87073    1.000000    
    138 O2    c    0.770103 *  0.469010 *  0.158051 *   0.87073    1.000000    
    139 O2    c    0.790083 *  0.532891 *  0.028857 *   0.87073    1.000000    
    140 O2    c    0.467505 *  0.246843 *  0.364504 *   0.87073    1.000000    
    141 O2    c    0.748543 *  0.208440 *  0.695459 *   0.87073    1.000000    
    142 O2    c    0.215375 *  0.464594 *  0.531372 *   0.87073    1.000000    
    143 O2    c    0.536318 *  0.737786 *  0.869867 *   0.87073    1.000000    
    144 O2    c    0.263188 *  0.795562 *  0.202331 *   0.87073    1.000000    
    145 O2    c    0.533887 *  0.787743 *  0.307073 *   0.87073    1.000000    
    146 O2    c    0.261597 *  0.465439 *  0.975304 *   0.87073    1.000000    
    147 O2    c    0.216143 *  0.749746 *  0.641298 *   0.87073    1.000000    
    148 O2    c    0.467465 *  0.214272 *  0.806317 *   0.87073    1.000000    
    149 O2    c    0.749386 *  0.531640 *  0.475811 *   0.87073    1.000000    
    150 O2    c    0.779739 *  0.249514 *  0.141334 *   0.87073    1.000000    
    151 O2    c    0.242110 *  0.321427 *  0.902588 *   0.87073    1.000000    
    152 O3    c    0.686950 *  0.914777 *  0.237186 *   1.33043    1.000000    
    153 O2    c    0.091881 *  0.767297 *  0.567161 *   0.87073    1.000000    
    154 O2    c    0.768847 *  0.674714 *  0.402327 *   0.87073    1.000000    
    155 O2    c    0.324158 *  0.086421 *  0.733592 *   0.87073    1.000000    
    156 O2    c    0.908532 *  0.229885 *  0.068966 *   0.87073    1.000000    
    157 O2    c    0.325322 *  0.227377 *  0.438736 *   0.87073    1.000000    
    158 O2    c    0.906362 *  0.676755 *  0.103792 *   0.87073    1.000000    
    159 O2    c    0.770320 *  0.089275 *  0.770455 *   0.87073    1.000000    
    160 O2    c    0.681365 *  0.762294 *  0.941524 *   0.87073    1.000000    
    161 O2    c    0.090738 *  0.320771 *  0.604824 *   0.87073    1.000000    
    162 O2    c    0.236992 *  0.910827 *  0.275220 *   0.87073    1.000000    
    163 O3    c    0.604140 *  0.571924 *  0.002833 *   1.33043    1.000000    
    164 O3    c    0.429182 *  0.024429 *  0.335122 *   1.33043    1.000000    
    165 O2    c    0.970172 *  0.409453 *  0.659889 *   0.87073    1.000000    
    166 O2    c    0.410051 *  0.438060 *  0.494188 *   0.87073    1.000000    
    167 O2    c    0.562754 *  0.965898 *  0.826193 *   0.87073    1.000000    
    168 O2    c    0.029693 *  0.593670 *  0.160393 *   0.87073    1.000000    
    169 O2    c    0.561900 *  0.585491 *  0.346550 *   0.87073    1.000000    
    170 O2    c    0.030947 *  0.439181 *  0.013552 *   0.87073    1.000000    
    171 O2    c    0.413214 *  0.966103 *  0.678936 *   0.87073    1.000000    
    172 O2    c    0.449039 *  0.413720 *  0.848001 *   0.87073    1.000000    
    173 O2    c    0.972301 *  0.557206 *  0.511781 *   0.87073    1.000000    
    174 O3    c    0.580905 *  0.037077 *  0.178929 *   1.33043    1.000000    
    175 O3    c    0.588568 *  0.187801 *  0.250399 *   1.33043    1.000000    
    176 O2    c    0.834849 *  0.415743 *  0.585317 *   0.87073    1.000000    
    177 O3    c    0.601541 *  0.408525 *  0.915626 *   1.33043    1.000000    
    178 O2    c    0.417428 *  0.828419 *  0.753032 *   0.87073    1.000000    
    179 O2    c    0.167795 *  0.582802 *  0.087604 *   0.87073    1.000000    
    180 O2    c    0.417882 *  0.581641 *  0.420006 *   0.87073    1.000000    
    181 F     c    0.481753 *  0.948219 *  0.261679 *   0.56000    1.000000    
    182 F     c    0.095494 *  0.547183 *  0.586914 *   0.56000    1.000000    
    183 F     c    0.477282 *  0.522617 *  0.930537 *   0.56000    1.000000    
    184 F     c    0.548138 *  0.089949 *  0.753113 *   0.56000    1.000000    
    185 F     c    0.912725 *  0.454874 *  0.087715 *   0.56000    1.000000    
    186 F     c    0.545948 *  0.452914 *  0.421321 *   0.56000    1.000000    
    187 O2    s    0.929989 *  0.001227 *  0.003024 *  -2.87073    1.000000    
    188 O2    s    0.000688 *  0.922789 *  0.337650 *  -2.87073    1.000000    
    189 O2    s    0.077682 *  0.073106 *  0.671116 *  -2.87073    1.000000    
    190 O2    s    0.072708 *  0.996888 *  0.505252 *  -2.87073    1.000000    
    191 O2    s    0.003174 *  0.071961 *  0.836968 *  -2.87073    1.000000    
    192 O2    s    0.928916 *  0.929951 *  0.172291 *  -2.87073    1.000000    
    193 O2    s    0.355512 *  0.582978 *  0.336940 *  -2.87073    1.000000    
    194 O2    s    0.412703 *  0.761105 *  0.669536 *  -2.87073    1.000000    
    195 O2    s    0.236328 *  0.645519 *  0.004366 *  -2.87073    1.000000    
    196 O2    s    0.653755 *  0.414444 *  0.830955 *  -2.87073    1.000000    
    197 O2    s    0.580811 *  0.240335 *  0.166391 *  -2.87073    1.000000    
    198 O2    s    0.765806 *  0.349391 *  0.502775 *  -2.87073    1.000000    
    199 O3    s    0.591708 *  0.350770 *  0.002838 *  -3.33043    1.000000    
    200 O2    s    0.765340 *  0.409429 *  0.667760 *  -2.87073    1.000000    
    201 O3    s    0.649688 *  0.232230 *  0.338306 *  -3.33043    1.000000    
    202 O2    s    0.413453 *  0.646174 *  0.503267 *  -2.87073    1.000000    
    203 O2    s    0.227475 *  0.584394 *  0.171803 *  -2.87073    1.000000    
    204 O2    s    0.357929 *  0.763123 *  0.837399 *  -2.87073    1.000000    
    205 O2    s    0.118519 *  0.215599 *  0.973434 *  -2.87073    1.000000    
    206 O2    s    0.783977 *  0.894653 *  0.309351 *  -2.87073    1.000000    
    207 O2    s    0.094152 *  0.876189 *  0.639092 *  -2.87073    1.000000    
    208 O2    s    0.876460 *  0.780907 *  0.474619 *  -2.87073    1.000000    
    209 O2    s    0.218203 *  0.090346 *  0.805458 *  -2.87073    1.000000    
    210 O2    s    0.899412 *  0.122084 *  0.141983 *  -2.87073    1.000000    
    211 O2    s    0.219012 *  0.116523 *  0.367185 *  -2.87073    1.000000    
    212 O2    s    0.905501 *  0.783115 *  0.032437 *  -2.87073    1.000000    
    213 O2    s    0.878885 *  0.090184 *  0.699381 *  -2.87073    1.000000    
    214 O2    s    0.786003 *  0.876109 *  0.868120 *  -2.87073    1.000000    
    215 O2    s    0.095742 *  0.216347 *  0.532900 *  -2.87073    1.000000    
    216 O2    s    0.121815 *  0.904319 *  0.202503 *  -2.87073    1.000000    
    217 O2    s    0.929320 *  0.853921 *  0.254561 *  -2.87073    1.000000    
    218 O2    s    0.141467 *  0.072719 *  0.587550 *  -2.87073    1.000000    
    219 O2    s    0.929160 *  0.071128 *  0.919529 *  -2.87073    1.000000    
    220 O2    s    0.070895 *  0.140419 *  0.753883 *  -2.87073    1.000000    
    221 O2    s    0.875940 *  0.937521 *  0.087629 *  -2.87073    1.000000    
    222 O2    s    0.065867 *  0.931980 *  0.421786 *  -2.87073    1.000000    
    223 O2    s    0.906803 *  0.202237 *  0.986213 *  -2.87073    1.000000    
    224 O2    s    0.799752 *  0.697018 *  0.320418 *  -2.87073    1.000000    
    225 O2    s    0.296496 *  0.086837 *  0.651684 *  -2.87073    1.000000    
    226 O2    s    0.090176 *  0.793858 *  0.485286 *  -2.87073    1.000000    
    227 O2    s    0.210231 *  0.292368 *  0.819690 *  -2.87073    1.000000    
    228 O3    s    0.710358 *  0.906248 *  0.149346 *  -3.33043    1.000000    
    229 O2    s    0.193235 *  0.895537 *  0.357843 *  -2.87073    1.000000    
    230 O2    s    0.710903 *  0.809616 *  0.024085 *  -2.87073    1.000000    
    231 O2    s    0.090182 *  0.293442 *  0.687398 *  -2.87073    1.000000    
    232 O2    s    0.798273 *  0.089370 *  0.852525 *  -2.87073    1.000000    
    233 O2    s    0.295294 *  0.201791 *  0.521011 *  -2.87073    1.000000    
    234 O2    s    0.907044 *  0.706085 *  0.186485 *  -2.87073    1.000000    
    235 O2    s    0.329778 *  0.659446 *  0.254716 *  -2.87073    1.000000    
    236 O2    s    0.343625 *  0.670825 *  0.586199 *  -2.87073    1.000000    
    237 O2    s    0.334283 *  0.667424 *  0.921339 *  -2.87073    1.000000    
    238 O2    s    0.673710 *  0.338743 *  0.750156 *  -2.87073    1.000000    
    239 O2    s    0.657926 *  0.330884 *  0.085133 *  -2.87073    1.000000    
    240 O2    s    0.670361 *  0.323389 *  0.420819 *  -2.87073    1.000000    
    241 O3    s    0.364855 *  0.323989 *  0.974382 *  -3.33043    1.000000    
    242 O3    s    0.674994 *  0.033647 *  0.308157 *  -3.33043    1.000000    
    243 O2    s    0.963465 *  0.621373 *  0.637493 *  -2.87073    1.000000    
    244 O2    s    0.622588 *  0.657896 *  0.472528 *  -2.87073    1.000000    
    245 O2    s    0.343588 *  0.960130 *  0.804736 *  -2.87073    1.000000    
    246 O2    s    0.032580 *  0.376363 *  0.139810 *  -2.87073    1.000000    
    247 O2    s    0.342677 *  0.373135 *  0.368559 *  -2.87073    1.000000    
    248 O2    s    0.039520 *  0.660191 *  0.034989 *  -2.87073    1.000000    
    249 O2    s    0.623170 *  0.956716 *  0.701244 *  -2.87073    1.000000    
    250 O2    s    0.668553 *  0.621849 *  0.870360 *  -2.87073    1.000000    
    251 O2    s    0.963681 *  0.338638 *  0.534223 *  -2.87073    1.000000    
    252 O2    s    0.374419 *  0.043713 *  0.205050 *  -2.87073    1.000000    
    253 O2    s    0.778530 *  0.307786 *  0.017485 *  -2.87073    1.000000    
    254 O2    s    0.691268 *  0.462182 *  0.351850 *  -2.87073    1.000000    
    255 O2    s    0.533643 *  0.217772 *  0.682086 *  -2.87073    1.000000    
    256 O2    s    0.223524 *  0.688746 *  0.516682 *  -2.87073    1.000000    
    257 O2    s    0.317475 *  0.530330 *  0.853419 *  -2.87073    1.000000    
    258 O3    s    0.458418 *  0.769522 *  0.185515 *  -3.33043    1.000000    
    259 O2    s    0.311861 *  0.774056 *  0.324376 *  -2.87073    1.000000    
    260 O2    s    0.470306 *  0.689675 *  0.990873 *  -2.87073    1.000000    
    261 O2    s    0.221808 *  0.531139 *  0.655599 *  -2.87073    1.000000    
    262 O2    s    0.690119 *  0.219457 *  0.820825 *  -2.87073    1.000000    
    263 O2    s    0.533340 *  0.308505 *  0.490054 *  -2.87073    1.000000    
    264 O2    s    0.776997 *  0.468701 *  0.154899 *  -2.87073    1.000000    
    265 O2    s    0.794927 *  0.531440 *  0.031640 *  -2.87073    1.000000    
    266 O2    s    0.469216 *  0.253723 *  0.367123 *  -2.87073    1.000000    
    267 O2    s    0.741101 *  0.203663 *  0.698144 *  -2.87073    1.000000    
    268 O2    s    0.210297 *  0.467361 *  0.533892 *  -2.87073    1.000000    
    269 O2    s    0.533737 *  0.731773 *  0.871828 *  -2.87073    1.000000    
    270 O2    s    0.268166 *  0.798440 *  0.204495 *  -2.87073    1.000000    
    271 O2    s    0.530819 *  0.790994 *  0.305328 *  -2.87073    1.000000    
    272 O2    s    0.268015 *  0.468693 *  0.973250 *  -2.87073    1.000000    
    273 O2    s    0.210800 *  0.741517 *  0.638675 *  -2.87073    1.000000    
    274 O2    s    0.469853 *  0.208537 *  0.803753 *  -2.87073    1.000000    
    275 O2    s    0.741441 *  0.529066 *  0.473183 *  -2.87073    1.000000    
    276 O2    s    0.785292 *  0.257521 *  0.138813 *  -2.87073    1.000000    
    277 O2    s    0.250355 *  0.330208 *  0.903080 *  -2.87073    1.000000    
    278 O3    s    0.678435 *  0.914280 *  0.238331 *  -3.33043    1.000000    
    279 O2    s    0.092109 *  0.757813 *  0.568110 *  -2.87073    1.000000    
    280 O2    s    0.759509 *  0.664796 *  0.403307 *  -2.87073    1.000000    
    281 O2    s    0.333833 *  0.086861 *  0.734559 *  -2.87073    1.000000    
    282 O2    s    0.907950 *  0.239377 *  0.069824 *  -2.87073    1.000000    
    283 O2    s    0.334862 *  0.236911 *  0.437916 *  -2.87073    1.000000    
    284 O2    s    0.906455 *  0.667183 *  0.103043 *  -2.87073    1.000000    
    285 O2    s    0.760706 *  0.089148 *  0.769576 *  -2.87073    1.000000    
    286 O2    s    0.672994 *  0.754729 *  0.940404 *  -2.87073    1.000000    
    287 O2    s    0.091078 *  0.330608 *  0.604003 *  -2.87073    1.000000    
    288 O2    s    0.244618 *  0.910345 *  0.274153 *  -2.87073    1.000000    
    289 O3    s    0.599891 *  0.576781 *  0.999147 *  -3.33043    1.000000    
    290 O3    s    0.424799 *  0.015770 *  0.331511 *  -3.33043    1.000000    
    291 O2    s    0.975281 *  0.414251 *  0.656472 *  -2.87073    1.000000    
    292 O2    s    0.415181 *  0.437944 *  0.490808 *  -2.87073    1.000000    
    293 O2    s    0.562484 *  0.971004 *  0.822827 *  -2.87073    1.000000    
    294 O2    s    0.024211 *  0.587964 *  0.156999 *  -2.87073    1.000000    
    295 O2    s    0.561826 *  0.580342 *  0.349967 *  -2.87073    1.000000    
    296 O2    s    0.025987 *  0.439297 *  0.016890 *  -2.87073    1.000000    
    297 O2    s    0.417828 *  0.971066 *  0.682273 *  -2.87073    1.000000    
    298 O2    s    0.447727 *  0.416641 *  0.850839 *  -2.87073    1.000000    
    299 O2    s    0.977049 *  0.557473 *  0.515146 *  -2.87073    1.000000    
    300 O3    s    0.578083 *  0.034086 *  0.181938 *  -3.33043    1.000000    
    301 O3    s    0.581281 *  0.175230 *  0.248874 *  -3.33043    1.000000    
    302 O2    s    0.845907 *  0.421252 *  0.585392 *  -2.87073    1.000000    
    303 O3    s    0.596268 *  0.415945 *  0.913973 *  -3.33043    1.000000    
    304 O2    s    0.423133 *  0.839633 *  0.753131 *  -2.87073    1.000000    
    305 O2    s    0.156144 *  0.577176 *  0.087522 *  -2.87073    1.000000    
    306 O2    s    0.423583 *  0.575782 *  0.420104 *  -2.87073    1.000000    
    307 F     s    0.487500 *  0.957055 *  0.263684 *  -1.56000    1.000000    
    308 F     s    0.095793 *  0.547430 *  0.587046 *  -1.56000    1.000000    
    309 F     s    0.481177 *  0.516562 *  0.932969 *  -1.56000    1.000000    
    310 F     s    0.548224 *  0.090146 *  0.753269 *  -1.56000    1.000000    
    311 F     s    0.913518 *  0.455060 *  0.087893 *  -1.56000    1.000000    
    312 F     s    0.545768 *  0.453282 *  0.421439 *  -1.56000    1.000000    
--------------------------------------------------------------------------------



********************************************************************************
*  General input information                                                   *
********************************************************************************

  Species output for all configurations : 

--------------------------------------------------------------------------------
  Species    Type    Atomic    Atomic    Charge       Radii (Angs)     Library
                     Number     Mass       (e)     Cova   Ionic  VDW   Symbol
--------------------------------------------------------------------------------
    Si       Core       14      28.09   4.000000   1.200  0.000  2.100          
    O1       Core        8      16.00   1.733957   0.730  0.000  1.360          
    O1       Shell       8       0.00  -3.733957   0.730  0.000  1.360          
    O2       Core        8      16.00   0.870733   0.730  0.000  1.360          
    O2       Shell       8       0.00  -2.870733   0.730  0.000  1.360          
    O3       Core        8      16.00   1.330431   0.730  0.000  1.360          
    O3       Shell       8       0.00  -3.330431   0.730  0.000  1.360          
    F        Core        9      19.00   0.560000   0.710  0.000  1.300          
    F        Shell       9       0.00  -1.560000   0.710  0.000  1.300          
    Ge       Core       32      72.61   4.000000   1.170  0.000  1.750          
--------------------------------------------------------------------------------


  Lattice summation method               =    Ewald          (3-D)
                                         =    Parry          (2-D)
                                         =    Saunders et al (1-D)
  Accuracy factor for lattice sums       =   12.000


  Time limit = Infinity

  Maximum range for interatomic potentials =        16.000000 Angstroms

  Taper potentials to zero over   1.0000 Angstroms using polynomial

  General interatomic potentials :

--------------------------------------------------------------------------------
Atom  Types   Potential         A         B         C         D     Cutoffs(Ang)
  1     2                                                            Min    Max 
--------------------------------------------------------------------------------
Si   c O1   s Buckingham    0.132E+04 0.318      10.1      0.00     0.000 16.000
Si   c O2   s Buckingham    0.132E+04 0.318      10.1      0.00     0.000 16.000
Si   c O3   s Buckingham    0.132E+04 0.318      10.1      0.00     0.000 16.000
Ge   c O1   s Buckingham    0.150E+04 0.326      16.8      0.00     0.000 16.000
Ge   c O2   s Buckingham    0.150E+04 0.326      16.8      0.00     0.000 16.000
Ge   c O3   s Buckingham    0.150E+04 0.326      16.8      0.00     0.000 16.000
O1   s O1   s Buckingham    0.228E+05 0.149      10.9      0.00     0.000 16.000
O1   s O2   s Buckingham    0.228E+05 0.149      10.9      0.00     0.000 16.000
O1   s O3   s Buckingham    0.228E+05 0.149      10.9      0.00     0.000 16.000
O2   s O2   s Buckingham    0.228E+05 0.149      10.9      0.00     0.000 16.000
O2   s O3   s Buckingham    0.228E+05 0.149      10.9      0.00     0.000 16.000
O3   s O3   s Buckingham    0.228E+05 0.149      10.9      0.00     0.000 16.000
Si   c F    s Buckingham     977.     0.282      0.00      0.00     0.000 16.000
Ge   c F    s Buckingham     681.     0.320      0.00      0.00     0.000 16.000
F    s F    s Buckingham     540.     0.262      0.00      0.00     0.000 16.000
O1   s F    s Buckingham    0.168E+04 0.268      0.00      0.00     0.000 16.000
O2   s F    s Buckingham    0.168E+04 0.268      0.00      0.00     0.000 16.000
O3   s F    s Buckingham    0.168E+04 0.268      0.00      0.00     0.000 16.000
O2   c O2   s Spring (c-s)   76.0      0.00      0.00      0.00     0.000  0.800
O3   c O3   s Spring (c-s)   128.      0.00      0.00      0.00     0.000  0.800
O1   c O1   s Spring (c-s)   180.      0.00      0.00      0.00     0.000  0.800
F    c F    s Spring (c-s)   33.5      0.00      0.00      0.00     0.000  0.800
--------------------------------------------------------------------------------

  General Three-body potentials :

  Harmonic form:

--------------------------------------------------------------------------------
Atom    Atom    Atom           Force Constants            Theta     Cutoffs  
  1       2       3     (eVrad**-2/eVrad**-3/eVrad**-4)   (deg)  1-2  1-3  2-3
--------------------------------------------------------------------------------
Si    c O1    s O1    s  1.261        0.0000    0.0000   109.470 0.00 0.00 0.00
                                                                 1.90 1.90 3.50
Si    c O1    s O2    s  1.261        0.0000    0.0000   109.470 0.00 0.00 0.00
                                                                 1.90 1.90 3.50
Si    c O2    s O2    s  1.261        0.0000    0.0000   109.470 0.00 0.00 0.00
                                                                 1.90 1.90 3.50
--------------------------------------------------------------------------------

********************************************************************************
*  Output for configuration   1                                                *
********************************************************************************


  Components of energy : 

--------------------------------------------------------------------------------
  Interatomic potentials     =        2064.80217921 eV
  Three-body potentials      =           0.44669246 eV
  Monopole - monopole (real) =       -6613.84688241 eV
  Monopole - monopole (recip)=       -3171.79952979 eV
  Monopole - monopole (total)=       -9785.64641220 eV
  Neutralising energy        =          -6.46096398 eV
--------------------------------------------------------------------------------
  Total lattice energy       =       -7726.85850451 eV
--------------------------------------------------------------------------------
  Total lattice energy       =         -745523.7298 kJ/(mole unit cells)
--------------------------------------------------------------------------------


  Number of variables =      939

  Maximum number of calculations  =          5000
  Maximum Hessian update interval =            10
  Maximum step size               =   0.100000000
  Maximum parameter tolerance     =   0.000010000
  Maximum function  tolerance     =   0.000010000
  Maximum gradient  tolerance     =   0.001000000
  Maximum gradient  component     =   0.010000000

  Symmetry not applied to optimisation

  Cell parameters to be optimised using strains

  Newton-Raphson optimiser to be used

  BFGS hessian update to be used

  Dumpfile to be written after every cycle

  Start of bulk optimisation :

  Cycle:      0 Energy:     -7726.858505  Gnorm:      0.008677  CPU:    2.048
  ** Hessian calculated **
  Cycle:      1 Energy:     -7726.880831  Gnorm:      0.006651  CPU:    6.606
  Cycle:      2 Energy:     -7726.902000  Gnorm:      0.003873  CPU:   10.775
  Cycle:      3 Energy:     -7726.909658  Gnorm:      0.002030  CPU:   14.941
  Cycle:      4 Energy:     -7726.911574  Gnorm:      0.001057  CPU:   19.108
  Cycle:      5 Energy:     -7726.912058  Gnorm:      0.000542  CPU:   23.275
  Cycle:      6 Energy:     -7726.912180  Gnorm:      0.000275  CPU:   27.441
  Cycle:      7 Energy:     -7726.912201  Gnorm:      0.000193  CPU:   30.260
  Cycle:      8 Energy:     -7726.912211  Gnorm:      0.000135  CPU:   33.075
  Cycle:      9 Energy:     -7726.912216  Gnorm:      0.000095  CPU:   35.894
  Cycle:     10 Energy:     -7726.912219  Gnorm:      0.000066  CPU:   38.709
  ** Hessian calculated **
  Cycle:     11 Energy:     -7726.912219  Gnorm:      0.000028  CPU:   43.216


  **** Optimisation achieved ****


  Final energy =   -7726.91221871 eV
  Final Gnorm  =       0.00001936

  Components of energy : 

--------------------------------------------------------------------------------
  Interatomic potentials     =        2064.92365100 eV
  Three-body potentials      =           0.45374273 eV
  Monopole - monopole (real) =       -6614.52114354 eV
  Monopole - monopole (recip)=       -3171.30850497 eV
  Monopole - monopole (total)=       -9785.82964851 eV
  Neutralising energy        =          -6.45996393 eV
--------------------------------------------------------------------------------
  Total lattice energy       =       -7726.91221871 eV
--------------------------------------------------------------------------------
  Total lattice energy       =         -745528.9124 kJ/(mole unit cells)
--------------------------------------------------------------------------------

  Final fractional coordinates of atoms :

--------------------------------------------------------------------------------
   No.  Atomic        x           y          z          Radius
        Label       (Frac)      (Frac)     (Frac)       (Angs) 
--------------------------------------------------------------------------------
     1  Si    c     0.699600    0.375700    0.033890    0.000000
     2  Si    c     0.617194    0.301746    0.370420    0.000000
     3  Si    c     0.673385    0.278332    0.701091    0.000000
     4  Si    c     0.293326    0.604375    0.537440    0.000000
     5  Si    c     0.382756    0.666479    0.872034    0.000000
     6  Si    c     0.320703    0.694058    0.204801    0.000000
     7  Si    c     0.378261    0.690528    0.306999    0.000000
     8  Si    c     0.327751    0.614925    0.974340    0.000000
     9  Si    c     0.291935    0.658087    0.638237    0.000000
    10  Si    c     0.621891    0.283856    0.801523    0.000000
    11  Si    c     0.668747    0.359758    0.472013    0.000000
    12  Si    c     0.699883    0.322965    0.135771    0.000000
    13  Ge    c     0.529653    0.423874    0.967557    0.000000
    14  Ge    c     0.568540    0.086822    0.302006    0.000000
    15  Si    c     0.883794    0.452355    0.637369    0.000000
    16  Si    c     0.464867    0.565396    0.472688    0.000000
    17  Si    c     0.419967    0.874751    0.805071    0.000000
    18  Si    c     0.108458    0.525761    0.138701    0.000000
    19  Si    c     0.415720    0.514280    0.371341    0.000000
    20  Si    c     0.114028    0.577809    0.037588    0.000000
    21  Si    c     0.466493    0.867014    0.703591    0.000000
    22  Si    c     0.593250    0.456164    0.868566    0.000000
    23  Si    c     0.881437    0.398822    0.535877    0.000000
    24  Si    c     0.530605    0.123048    0.203213    0.000000
    25  Si    c     0.306450    0.384126    0.856775    0.000000
    26  Ge    c     0.604518    0.904859    0.190143    0.000000
    27  Si    c     0.091238    0.680300    0.522415    0.000000
    28  Si    c     0.694530    0.583761    0.357651    0.000000
    29  Si    c     0.394837    0.076989    0.688655    0.000000
    30  Si    c     0.903170    0.298158    0.023006    0.000000
    31  Si    c     0.392381    0.284288    0.486969    0.000000
    32  Si    c     0.903479    0.600768    0.151203    0.000000
    33  Si    c     0.699193    0.083041    0.818093    0.000000
    34  Si    c     0.610853    0.696991    0.992025    0.000000
    35  Si    c     0.090672    0.379717    0.652674    0.000000
    36  Si    c     0.295817    0.891705    0.325415    0.000000
    37  Si    c     0.251373    0.325731    0.959050    0.000000
    38  Si    c     0.667456    0.904946    0.293112    0.000000
    39  Si    c     0.084281    0.731022    0.623054    0.000000
    40  Si    c     0.742049    0.642281    0.458283    0.000000
    41  Si    c     0.340551    0.074924    0.789417    0.000000
    42  Si    c     0.907604    0.247680    0.123687    0.000000
    43  Si    c     0.337088    0.234550    0.386012    0.000000
    44  Si    c     0.913520    0.656543    0.050234    0.000000
    45  Si    c     0.745490    0.068719    0.717534    0.000000
    46  Si    c     0.667516    0.737005    0.888672    0.000000
    47  Si    c     0.083330    0.322749    0.552022    0.000000
    48  Si    c     0.253122    0.912525    0.222473    0.000000
    49  Si    c     0.967243    0.116841    0.972074    0.000000
    50  Si    c     0.875675    0.829707    0.307210    0.000000
    51  Si    c     0.146529    0.011521    0.639134    0.000000
    52  Si    c     0.020781    0.860690    0.473633    0.000000
    53  Si    c     0.122509    0.136793    0.805769    0.000000
    54  Si    c     0.854054    0.968624    0.139756    0.000000
    55  Si    c     0.113968    0.954476    0.373401    0.000000
    56  Si    c     0.857542    0.880223    0.039196    0.000000
    57  Si    c     0.025482    0.132862    0.704612    0.000000
    58  Si    c     0.880186    0.019010    0.870880    0.000000
    59  Si    c     0.145731    0.105077    0.538236    0.000000
    60  Si    c     0.971558    0.845159    0.205600    0.000000
    61  O2    c     0.933044    0.999013    0.005490    0.000000
    62  O2    c     0.995725    0.913642    0.339675    0.000000
    63  O2    c     0.069977    0.052222    0.673713    0.000000
    64  O2    c     0.062936    0.979406    0.507765    0.000000
    65  O2    c     0.004105    0.058693    0.839777    0.000000
    66  O2    c     0.934485    0.933828    0.175336    0.000000
    67  O2    c     0.341296    0.565597    0.338235    0.000000
    68  O2    c     0.414837    0.740582    0.671479    0.000000
    69  O2    c     0.241127    0.652752    0.005578    0.000000
    70  O2    c     0.663699    0.413368    0.831059    0.000000
    71  O2    c     0.573095    0.239953    0.166632    0.000000
    72  O2    c     0.755285    0.321462    0.504172    0.000000
    73  O3    c     0.581270    0.336733    0.002297    0.000000
    74  O2    c     0.756683    0.401602    0.668712    0.000000
    75  O3    c     0.655067    0.221699    0.338667    0.000000
    76  O2    c     0.415698    0.642451    0.505049    0.000000
    77  O2    c     0.230695    0.572455    0.172796    0.000000
    78  O2    c     0.346069    0.750634    0.838781    0.000000
    79  O2    c     0.119084    0.208020    0.977493    0.000000
    80  O2    c     0.783414    0.889220    0.313797    0.000000
    81  O2    c     0.082520    0.856702    0.643245    0.000000
    82  O2    c     0.867605    0.768450    0.479034    0.000000
    83  O2    c     0.214173    0.073785    0.809695    0.000000
    84  O2    c     0.905818    0.122050    0.145589    0.000000
    85  O2    c     0.209907    0.107573    0.366392    0.000000
    86  O2    c     0.913857    0.784133    0.030509    0.000000
    87  O2    c     0.871475    0.067296    0.698378    0.000000
    88  O2    c     0.789131    0.864009    0.867179    0.000000
    89  O2    c     0.083334    0.196594    0.531692    0.000000
    90  O2    c     0.125298    0.906666    0.201798    0.000000
    91  O2    c     0.928385    0.845868    0.256555    0.000000
    92  O2    c     0.133500    0.057396    0.589626    0.000000
    93  O2    c     0.927951    0.062049    0.921647    0.000000
    94  O2    c     0.064830    0.124263    0.755970    0.000000
    95  O2    c     0.882133    0.933932    0.090042    0.000000
    96  O2    c     0.059752    0.920260    0.423862    0.000000
    97  O2    c     0.897726    0.198421    0.984217    0.000000
    98  O2    c     0.795586    0.677852    0.319287    0.000000
    99  O2    c     0.297948    0.078184    0.650492    0.000000
   100  O2    c     0.091624    0.778382    0.484019    0.000000
   101  O2    c     0.207713    0.288789    0.818251    0.000000
   102  O3    c     0.703765    0.895178    0.148875    0.000000
   103  O2    c     0.187510    0.875411    0.361950    0.000000
   104  O2    c     0.704875    0.807167    0.028278    0.000000
   105  O2    c     0.093020    0.283792    0.691518    0.000000
   106  O2    c     0.799614    0.088033    0.856191    0.000000
   107  O2    c     0.295924    0.184778    0.525195    0.000000
   108  O2    c     0.899981    0.696852    0.189273    0.000000
   109  O2    c     0.324513    0.643480    0.255760    0.000000
   110  O2    c     0.349491    0.659897    0.588077    0.000000
   111  O2    c     0.329775    0.665065    0.922674    0.000000
   112  O2    c     0.676893    0.337131    0.751124    0.000000
   113  O2    c     0.648586    0.326407    0.085418    0.000000
   114  O2    c     0.667615    0.302427    0.422264    0.000000
   115  O3    c     0.363919    0.307500    0.978184    0.000000
   116  O3    c     0.682988    0.035194    0.312625    0.000000
   117  O2    c     0.952222    0.608808    0.641475    0.000000
   118  O2    c     0.620555    0.653163    0.476837    0.000000
   119  O2    c     0.332576    0.943462    0.808816    0.000000
   120  O2    c     0.039050    0.369474    0.143120    0.000000
   121  O2    c     0.326399    0.357920    0.367919    0.000000
   122  O2    c     0.048301    0.668256    0.033652    0.000000
   123  O2    c     0.622274    0.934514    0.700634    0.000000
   124  O2    c     0.676740    0.615152    0.869411    0.000000
   125  O2    c     0.951109    0.311913    0.533442    0.000000
   126  O2    c     0.372604    0.047041    0.204705    0.000000
   127  O2    c     0.771711    0.299685    0.015117    0.000000
   128  O2    c     0.692349    0.449412    0.350755    0.000000
   129  O2    c     0.528825    0.209661    0.680196    0.000000
   130  O2    c     0.224776    0.679985    0.515411    0.000000
   131  O2    c     0.310142    0.521085    0.851783    0.000000
   132  O3    c     0.461761    0.760225    0.184175    0.000000
   133  O2    c     0.303118    0.759284    0.328161    0.000000
   134  O2    c     0.472477    0.692109    0.994705    0.000000
   135  O2    c     0.223677    0.514384    0.660623    0.000000
   136  O2    c     0.696240    0.216091    0.825262    0.000000
   137  O2    c     0.526920    0.286254    0.495150    0.000000
   138  O2    c     0.771717    0.465751    0.158969    0.000000
   139  O2    c     0.791747    0.532241    0.028840    0.000000
   140  O2    c     0.460896    0.234744    0.365800    0.000000
   141  O2    c     0.743948    0.192784    0.696549    0.000000
   142  O2    c     0.209459    0.448234    0.532941    0.000000
   143  O2    c     0.536516    0.729253    0.871143    0.000000
   144  O2    c     0.265038    0.792491    0.203631    0.000000
   145  O2    c     0.532195    0.779596    0.308587    0.000000
   146  O2    c     0.262578    0.460073    0.977017    0.000000
   147  O2    c     0.211127    0.733578    0.643034    0.000000
   148  O2    c     0.466177    0.203614    0.807702    0.000000
   149  O2    c     0.743342    0.516257    0.477482    0.000000
   150  O2    c     0.779793    0.246230    0.141433    0.000000
   151  O2    c     0.240862    0.314779    0.903878    0.000000
   152  O3    c     0.685879    0.908371    0.238746    0.000000
   153  O2    c     0.086273    0.750603    0.568782    0.000000
   154  O2    c     0.762837    0.660774    0.404084    0.000000
   155  O2    c     0.321695    0.074041    0.735156    0.000000
   156  O2    c     0.908569    0.227522    0.069443    0.000000
   157  O2    c     0.319473    0.214118    0.440362    0.000000
   158  O2    c     0.907088    0.673521    0.104435    0.000000
   159  O2    c     0.767362    0.076184    0.771805    0.000000
   160  O2    c     0.681497    0.753412    0.942952    0.000000
   161  O2    c     0.085495    0.304532    0.606400    0.000000
   162  O2    c     0.237939    0.905960    0.276731    0.000000
   163  O3    c     0.601646    0.564518    0.004239    0.000000
   164  O3    c     0.427841    0.015328    0.336882    0.000000
   165  O2    c     0.965167    0.393056    0.661521    0.000000
   166  O2    c     0.404367    0.423424    0.496093    0.000000
   167  O2    c     0.561722    0.955709    0.827974    0.000000
   168  O2    c     0.031160    0.591222    0.161196    0.000000
   169  O2    c     0.556450    0.572922    0.348165    0.000000
   170  O2    c     0.031289    0.436425    0.014113    0.000000
   171  O2    c     0.409355    0.951378    0.680574    0.000000
   172  O2    c     0.447506    0.404469    0.848967    0.000000
   173  O2    c     0.966951    0.540528    0.513185    0.000000
   174  O3    c     0.580928    0.032382    0.180171    0.000000
   175  O3    c     0.588796    0.181459    0.251656    0.000000
   176  O2    c     0.830026    0.399729    0.586732    0.000000
   177  O3    c     0.598922    0.399968    0.916555    0.000000
   178  O2    c     0.415299    0.816146    0.754877    0.000000
   179  O2    c     0.168833    0.579171    0.088483    0.000000
   180  O2    c     0.412971    0.568808    0.421755    0.000000
   181  F     c     0.480990    0.941495    0.262982    0.000000
   182  F     c     0.089873    0.530403    0.588704    0.000000
   183  F     c     0.475997    0.516144    0.931263    0.000000
   184  F     c     0.545147    0.076745    0.754699    0.000000
   185  F     c     0.914804    0.453831    0.088288    0.000000
   186  F     c     0.539439    0.439076    0.423247    0.000000
   187  O2    s     0.928277    0.998890    0.005519    0.000000
   188  O2    s     0.995649    0.908778    0.339846    0.000000
   189  O2    s     0.073461    0.056772    0.673353    0.000000
   190  O2    s     0.067567    0.980277    0.507373    0.000000
   191  O2    s     0.003547    0.062921    0.839444    0.000000
   192  O2    s     0.929876    0.927829    0.174820    0.000000
   193  O2    s     0.352666    0.573697    0.338225    0.000000
   194  O2    s     0.407761    0.745388    0.671444    0.000000
   195  O2    s     0.237608    0.641306    0.005459    0.000000
   196  O2    s     0.652170    0.404358    0.831825    0.000000
   197  O2    s     0.581810    0.236779    0.167124    0.000000
   198  O2    s     0.759737    0.333437    0.504235    0.000000
   199  O3    s     0.590882    0.347184    0.003396    0.000000
   200  O2    s     0.760945    0.393820    0.668917    0.000000
   201  O3    s     0.644882    0.221352    0.339678    0.000000
   202  O2    s     0.407905    0.630697    0.505168    0.000000
   203  O2    s     0.227947    0.580750    0.172771    0.000000
   204  O2    s     0.357409    0.754089    0.838964    0.000000
   205  O2    s     0.116593    0.210795    0.974857    0.000000
   206  O2    s     0.781260    0.884188    0.310872    0.000000
   207  O2    s     0.089552    0.860293    0.640748    0.000000
   208  O2    s     0.871115    0.765377    0.476357    0.000000
   209  O2    s     0.217413    0.080568    0.807232    0.000000
   210  O2    s     0.900619    0.119193    0.142746    0.000000
   211  O2    s     0.212698    0.104269    0.369111    0.000000
   212  O2    s     0.907868    0.781227    0.033418    0.000000
   213  O2    s     0.874657    0.074313    0.700984    0.000000
   214  O2    s     0.786113    0.867219    0.869792    0.000000
   215  O2    s     0.089993    0.199986    0.534484    0.000000
   216  O2    s     0.122433    0.900736    0.204366    0.000000
   217  O2    s     0.927414    0.843982    0.256424    0.000000
   218  O2    s     0.136358    0.057476    0.589533    0.000000
   219  O2    s     0.926912    0.063292    0.921517    0.000000
   220  O2    s     0.067000    0.126617    0.755917    0.000000
   221  O2    s     0.876311    0.931724    0.089788    0.000000
   222  O2    s     0.061495    0.917406    0.423763    0.000000
   223  O2    s     0.905812    0.199643    0.986810    0.000000
   224  O2    s     0.794035    0.684679    0.321835    0.000000
   225  O2    s     0.291930    0.070961    0.653264    0.000000
   226  O2    s     0.084125    0.777020    0.486851    0.000000
   227  O2    s     0.208960    0.282708    0.820906    0.000000
   228  O3    s     0.711635    0.903382    0.151018    0.000000
   229  O2    s     0.190790    0.885272    0.359443    0.000000
   230  O2    s     0.711222    0.803730    0.025786    0.000000
   231  O2    s     0.085526    0.277323    0.688983    0.000000
   232  O2    s     0.797956    0.080087    0.853840    0.000000
   233  O2    s     0.289602    0.186292    0.522736    0.000000
   234  O2    s     0.908101    0.702978    0.187084    0.000000
   235  O2    s     0.329574    0.653428    0.255791    0.000000
   236  O2    s     0.337915    0.654103    0.588095    0.000000
   237  O2    s     0.335071    0.660171    0.922622    0.000000
   238  O2    s     0.670748    0.325376    0.751209    0.000000
   239  O2    s     0.659271    0.331012    0.085684    0.000000
   240  O2    s     0.662725    0.308460    0.422450    0.000000
   241  O3    s     0.362840    0.317240    0.975384    0.000000
   242  O3    s     0.673507    0.024852    0.309780    0.000000
   243  O2    s     0.958964    0.605432    0.639122    0.000000
   244  O2    s     0.617229    0.643032    0.474473    0.000000
   245  O2    s     0.342426    0.949967    0.806415    0.000000
   246  O2    s     0.032569    0.373046    0.140620    0.000000
   247  O2    s     0.336670    0.361382    0.370133    0.000000
   248  O2    s     0.041338    0.657806    0.035755    0.000000
   249  O2    s     0.619214    0.941602    0.702711    0.000000
   250  O2    s     0.667690    0.612699    0.871384    0.000000
   251  O2    s     0.957854    0.322003    0.535660    0.000000
   252  O2    s     0.375260    0.040217    0.206454    0.000000
   253  O2    s     0.779059    0.307149    0.017913    0.000000
   254  O2    s     0.685062    0.449558    0.353530    0.000000
   255  O2    s     0.529626    0.202730    0.683290    0.000000
   256  O2    s     0.217723    0.672262    0.518446    0.000000
   257  O2    s     0.317366    0.521994    0.854442    0.000000
   258  O3    s     0.458844    0.765044    0.186743    0.000000
   259  O2    s     0.310228    0.765624    0.325639    0.000000
   260  O2    s     0.471196    0.684565    0.992287    0.000000
   261  O2    s     0.216692    0.514988    0.657454    0.000000
   262  O2    s     0.688922    0.208949    0.822050    0.000000
   263  O2    s     0.527276    0.293556    0.491910    0.000000
   264  O2    s     0.778434    0.465509    0.155738    0.000000
   265  O2    s     0.796271    0.530403    0.031686    0.000000
   266  O2    s     0.462665    0.241581    0.368480    0.000000
   267  O2    s     0.736657    0.188099    0.699270    0.000000
   268  O2    s     0.204405    0.450983    0.535482    0.000000
   269  O2    s     0.533960    0.723206    0.873125    0.000000
   270  O2    s     0.269745    0.795147    0.205800    0.000000
   271  O2    s     0.529099    0.782740    0.306844    0.000000
   272  O2    s     0.268685    0.463208    0.974897    0.000000
   273  O2    s     0.205825    0.725369    0.640421    0.000000
   274  O2    s     0.468554    0.197883    0.805145    0.000000
   275  O2    s     0.735401    0.513706    0.474876    0.000000
   276  O2    s     0.785434    0.254269    0.138990    0.000000
   277  O2    s     0.249029    0.323370    0.904342    0.000000
   278  O3    s     0.677424    0.907835    0.239884    0.000000
   279  O2    s     0.086575    0.741199    0.569733    0.000000
   280  O2    s     0.753565    0.650875    0.405019    0.000000
   281  O2    s     0.331317    0.074429    0.736120    0.000000
   282  O2    s     0.907947    0.236917    0.070358    0.000000
   283  O2    s     0.328997    0.223660    0.439569    0.000000
   284  O2    s     0.907380    0.664040    0.103664    0.000000
   285  O2    s     0.757815    0.076113    0.770931    0.000000
   286  O2    s     0.673148    0.746132    0.941853    0.000000
   287  O2    s     0.085808    0.314373    0.605576    0.000000
   288  O2    s     0.245327    0.905293    0.275657    0.000000
   289  O3    s     0.597777    0.569846    0.000547    0.000000
   290  O3    s     0.423059    0.006529    0.333248    0.000000
   291  O2    s     0.970369    0.397923    0.658080    0.000000
   292  O2    s     0.409500    0.423229    0.492697    0.000000
   293  O2    s     0.561549    0.960892    0.824547    0.000000
   294  O2    s     0.025570    0.585356    0.157797    0.000000
   295  O2    s     0.556386    0.567876    0.351563    0.000000
   296  O2    s     0.026338    0.436614    0.017486    0.000000
   297  O2    s     0.413973    0.956308    0.683885    0.000000
   298  O2    s     0.446278    0.407458    0.851778    0.000000
   299  O2    s     0.971601    0.540785    0.516565    0.000000
   300  O3    s     0.578231    0.029527    0.183175    0.000000
   301  O3    s     0.581417    0.169079    0.249961    0.000000
   302  O2    s     0.841075    0.405199    0.586777    0.000000
   303  O3    s     0.593796    0.407521    0.914776    0.000000
   304  O2    s     0.421003    0.827417    0.754868    0.000000
   305  O2    s     0.157127    0.573606    0.088403    0.000000
   306  O2    s     0.418574    0.562866    0.421791    0.000000
   307  F     s     0.487135    0.950896    0.265186    0.000000
   308  F     s     0.090110    0.530594    0.588852    0.000000
   309  F     s     0.480026    0.509638    0.933849    0.000000
   310  F     s     0.545173    0.076866    0.754872    0.000000
   311  F     s     0.915768    0.454207    0.088459    0.000000
   312  F     s     0.539204    0.439449    0.423397    0.000000
--------------------------------------------------------------------------------

  Final Cartesian lattice vectors (Angstroms) :

       12.002491    0.005003   -0.006279
       -5.951435   10.337068    0.002353
       -0.108286   -0.013023   29.467507


  Final cell parameters and derivatives :

--------------------------------------------------------------------------------
       a           12.002494 Angstrom     dE/de1(xx)     0.000317 eV/strain
       b           11.927890 Angstrom     dE/de2(yy)     0.001471 eV/strain
       c           29.467709 Angstrom     dE/de3(zz)     0.002088 eV/strain
       alpha       89.905590 Degrees      dE/de4(yz)    -0.000311 eV/strain
       beta        90.240531 Degrees      dE/de5(xz)     0.000101 eV/strain
       gamma      119.906755 Degrees      dE/de6(xy)    -0.000540 eV/strain
--------------------------------------------------------------------------------

  Primitive cell volume =          3656.920807 Angs**3

  Density of cell =      1.749585 g/cm**3

  Non-primitive cell volume =          3656.920807 Angs**3


  Final internal derivatives :

--------------------------------------------------------------------------------
   No.  Atomic          a             b             c           Radius
        Label          (eV)          (eV)          (eV)        (eV/Angs)
--------------------------------------------------------------------------------
      1 Si    c       0.000000      0.000000      0.000000      0.000000
      2 Si    c       0.000349      0.000666      0.000538      0.000000
      3 Si    c       0.000051      0.000301     -0.001142      0.000000
      4 Si    c      -0.000124      0.000307      0.000250      0.000000
      5 Si    c      -0.000300      0.000020     -0.000072      0.000000
      6 Si    c      -0.000376     -0.000335     -0.000328      0.000000
      7 Si    c      -0.000108     -0.000177      0.000638      0.000000
      8 Si    c      -0.000197     -0.000113     -0.001042      0.000000
      9 Si    c       0.000047      0.000252     -0.000814      0.000000
     10 Si    c      -0.000161      0.000160      0.000424      0.000000
     11 Si    c       0.000059      0.000434     -0.000125      0.000000
     12 Si    c      -0.000175     -0.000375     -0.000066      0.000000
     13 Ge    c      -0.000368      0.001321     -0.002923      0.000000
     14 Ge    c      -0.000143     -0.000912     -0.000624      0.000000
     15 Si    c      -0.000085      0.000106     -0.000837      0.000000
     16 Si    c      -0.000050      0.000077      0.000112      0.000000
     17 Si    c      -0.000442     -0.000336      0.001661      0.000000
     18 Si    c      -0.000246     -0.000124     -0.000458      0.000000
     19 Si    c      -0.000046     -0.000132      0.000474      0.000000
     20 Si    c      -0.000205      0.000153      0.000400      0.000000
     21 Si    c       0.000054      0.000303     -0.001186      0.000000
     22 Si    c      -0.000001      0.000320     -0.000994      0.000000
     23 Si    c       0.000046      0.000186      0.000280      0.000000
     24 Si    c      -0.000171      0.000053     -0.001975      0.000000
     25 Si    c      -0.000022      0.000138      0.000092      0.000000
     26 Ge    c      -0.000253     -0.000306      0.000198      0.000000
     27 Si    c      -0.000035      0.000352      0.000093      0.000000
     28 Si    c       0.000135      0.000383     -0.000042      0.000000
     29 Si    c      -0.000060      0.000180     -0.000871      0.000000
     30 Si    c      -0.000484      0.000069      0.000335      0.000000
     31 Si    c       0.000046      0.000222     -0.000211      0.000000
     32 Si    c      -0.000051     -0.000294     -0.000720      0.000000
     33 Si    c      -0.000413      0.000190      0.000034      0.000000
     34 Si    c       0.000039      0.000450     -0.000248      0.000000
     35 Si    c       0.000005      0.000163     -0.000563      0.000000
     36 Si    c       0.000435     -0.000197      0.000155      0.000000
     37 Si    c      -0.000164     -0.000377     -0.001240      0.000000
     38 Si    c      -0.000126     -0.000103      0.000275      0.000000
     39 Si    c      -0.000012      0.000201     -0.000870      0.000000
     40 Si    c       0.000030      0.000164     -0.000151      0.000000
     41 Si    c      -0.000207      0.000089      0.000171      0.000000
     42 Si    c      -0.000178     -0.000098     -0.000358      0.000000
     43 Si    c       0.000322      0.000180      0.000154      0.000000
     44 Si    c      -0.000045      0.000409      0.000053      0.000000
     45 Si    c       0.000012      0.000319     -0.000759      0.000000
     46 Si    c      -0.000223     -0.000011      0.000403      0.000000
     47 Si    c      -0.000053      0.000195      0.000230      0.000000
     48 Si    c      -0.000071     -0.000337      0.000151      0.000000
     49 Si    c       0.000090      0.000384      0.000422      0.000000
     50 Si    c      -0.000267      0.000210      0.001395      0.000000
     51 Si    c      -0.000073      0.000170     -0.000948      0.000000
     52 Si    c       0.000274      0.000182      0.000098      0.000000
     53 Si    c       0.000286      0.000111      0.000783      0.000000
     54 Si    c      -0.000330     -0.000468      0.001293      0.000000
     55 Si    c       0.000062      0.000205      0.000416      0.000000
     56 Si    c      -0.000560     -0.000392      0.001146      0.000000
     57 Si    c      -0.000028      0.000546     -0.001250      0.000000
     58 Si    c      -0.000708     -0.000005     -0.001376      0.000000
     59 Si    c       0.000017      0.000181      0.000271      0.000000
     60 Si    c       0.000348     -0.000186     -0.002909      0.000000
     61 O2    c       0.000910     -0.000715     -0.002524      0.000000
     62 O2    c       0.000195      0.000579     -0.000238      0.000000
     63 O2    c      -0.000140      0.000355     -0.000238      0.000000
     64 O2    c       0.000048      0.000253     -0.000109      0.000000
     65 O2    c      -0.000232      0.000012     -0.000175      0.000000
     66 O2    c      -0.000402      0.000481      0.000079      0.000000
     67 O2    c      -0.000424      0.000090     -0.000439      0.000000
     68 O2    c       0.000032      0.000226     -0.000590      0.000000
     69 O2    c      -0.000183      0.000117     -0.000316      0.000000
     70 O2    c      -0.000036      0.000247     -0.000080      0.000000
     71 O2    c      -0.000148     -0.000347     -0.000528      0.000000
     72 O2    c      -0.000056      0.000237     -0.000258      0.000000
     73 O3    c      -0.001723      0.001014     -0.006381      0.000000
     74 O2    c      -0.000080      0.000141      0.000052      0.000000
     75 O3    c       0.000805     -0.000240      0.000166      0.000000
     76 O2    c       0.000044      0.000175     -0.000230      0.000000
     77 O2    c      -0.000316     -0.000241     -0.000387      0.000000
     78 O2    c      -0.000274     -0.000145     -0.000332      0.000000
     79 O2    c       0.000070     -0.000285     -0.000592      0.000000
     80 O2    c       0.000009      0.000330      0.000133      0.000000
     81 O2    c      -0.000071      0.000226     -0.000566      0.000000
     82 O2    c       0.000120      0.000319      0.000055      0.000000
     83 O2    c      -0.000142     -0.000049     -0.000028      0.000000
     84 O2    c      -0.000280      0.000455      0.000283      0.000000
     85 O2    c       0.000237      0.000441     -0.000411      0.000000
     86 O2    c       0.000701     -0.000710     -0.000420      0.000000
     87 O2    c      -0.000072      0.000308     -0.000235      0.000000
     88 O2    c      -0.000217      0.000130     -0.000016      0.000000
     89 O2    c      -0.000154      0.000166      0.000077      0.000000
     90 O2    c       0.000210     -0.000181     -0.000140      0.000000
     91 O2    c      -0.000428      0.000717      0.003265      0.000000
     92 O2    c       0.000033      0.000066     -0.000580      0.000000
     93 O2    c      -0.000264     -0.000228     -0.002384      0.000000
     94 O2    c      -0.000170      0.000372     -0.002144      0.000000
     95 O2    c       0.000204      0.000054     -0.000318      0.000000
     96 O2    c       0.000179      0.000215      0.000304      0.000000
     97 O2    c      -0.001115      0.000825      0.000127      0.000000
     98 O2    c      -0.000066      0.000093      0.000107      0.000000
     99 O2    c       0.000056      0.000239     -0.000449      0.000000
    100 O2    c       0.000163      0.000278     -0.000009      0.000000
    101 O2    c       0.000007      0.000237     -0.000118      0.000000
    102 O3    c      -0.000400     -0.000376      0.001967      0.000000
    103 O2    c       0.000538     -0.000353      0.000543      0.000000
    104 O2    c      -0.000859     -0.000070     -0.000522      0.000000
    105 O2    c       0.000037      0.000488     -0.000537      0.000000
    106 O2    c      -0.000551      0.000245     -0.000102      0.000000
    107 O2    c       0.000077      0.000208     -0.000084      0.000000
    108 O2    c      -0.000264     -0.001361     -0.000493      0.000000
    109 O2    c      -0.000431     -0.000543     -0.000507      0.000000
    110 O2    c      -0.000007      0.000381     -0.000151      0.000000
    111 O2    c      -0.000286     -0.000234     -0.000585      0.000000
    112 O2    c       0.000002      0.000496     -0.000125      0.000000
    113 O2    c      -0.000335     -0.000116     -0.002102      0.000000
    114 O2    c       0.000478      0.000464     -0.000463      0.000000
    115 O3    c       0.000030     -0.000411     -0.001289      0.000000
    116 O3    c       0.000173      0.000046      0.002058      0.000000
    117 O2    c      -0.000008      0.000122     -0.000768      0.000000
    118 O2    c       0.000056      0.000152     -0.000520      0.000000
    119 O2    c      -0.000367      0.000109     -0.000114      0.000000
    120 O2    c      -0.000157     -0.000057     -0.000235      0.000000
    121 O2    c       0.000122     -0.000107      0.000354      0.000000
    122 O2    c      -0.000082      0.000079     -0.000113      0.000000
    123 O2    c      -0.000057      0.000260     -0.000320      0.000000
    124 O2    c      -0.000104      0.000302     -0.000116      0.000000
    125 O2    c      -0.000105      0.000265      0.000197      0.000000
    126 O2    c      -0.000210     -0.000538     -0.000033      0.000000
    127 O2    c      -0.000123     -0.000018     -0.000664      0.000000
    128 O2    c       0.000139      0.000580     -0.000077      0.000000
    129 O2    c      -0.000035      0.000194     -0.000486      0.000000
    130 O2    c       0.000028      0.000170      0.000277      0.000000
    131 O2    c      -0.000196     -0.000121      0.000015      0.000000
    132 O3    c      -0.000343     -0.000170     -0.001039      0.000000
    133 O2    c      -0.000053     -0.000315      0.000258      0.000000
    134 O2    c      -0.000375      0.000062     -0.000522      0.000000
    135 O2    c       0.000011      0.000435     -0.000560      0.000000
    136 O2    c      -0.000216      0.000265      0.000194      0.000000
    137 O2    c      -0.000048      0.000267     -0.000539      0.000000
    138 O2    c      -0.000193      0.000044     -0.000442      0.000000
    139 O2    c      -0.000334     -0.000064     -0.000442      0.000000
    140 O2    c       0.000279      0.000088      0.000057      0.000000
    141 O2    c       0.000132      0.000468     -0.000278      0.000000
    142 O2    c      -0.000053      0.000301      0.000145      0.000000
    143 O2    c      -0.000276     -0.000066      0.000205      0.000000
    144 O2    c      -0.000640     -0.000783     -0.000074      0.000000
    145 O2    c      -0.000182     -0.000087      0.000144      0.000000
    146 O2    c      -0.000374      0.000249     -0.000367      0.000000
    147 O2    c       0.000048      0.000211     -0.000677      0.000000
    148 O2    c      -0.000256      0.000229     -0.000100      0.000000
    149 O2    c       0.000027      0.000515     -0.000315      0.000000
    150 O2    c      -0.000103     -0.000062     -0.000109      0.000000
    151 O2    c      -0.000160     -0.000312      0.000033      0.000000
    152 O3    c       0.000191     -0.000360      0.000838      0.000000
    153 O2    c       0.000128      0.000136     -0.000460      0.000000
    154 O2    c       0.000107      0.000370     -0.000380      0.000000
    155 O2    c      -0.000444      0.000189     -0.000119      0.000000
    156 O2    c      -0.000232     -0.000065     -0.000145      0.000000
    157 O2    c       0.000022      0.000009     -0.000412      0.000000
    158 O2    c       0.000049      0.000069      0.000301      0.000000
    159 O2    c       0.000170      0.000151     -0.000409      0.000000
    160 O2    c       0.000138      0.000283     -0.001094      0.000000
    161 O2    c      -0.000178      0.000316     -0.000573      0.000000
    162 O2    c      -0.000304      0.000053     -0.000385      0.000000
    163 O3    c       0.000862     -0.000243     -0.000700      0.000000
    164 O3    c       0.000467      0.000085      0.000448      0.000000
    165 O2    c      -0.000123      0.000203     -0.000719      0.000000
    166 O2    c      -0.000010      0.000126     -0.000228      0.000000
    167 O2    c      -0.000334      0.000003     -0.000375      0.000000
    168 O2    c      -0.000149     -0.000154     -0.000026      0.000000
    169 O2    c       0.000229      0.000280      0.000338      0.000000
    170 O2    c       0.000025      0.000072      0.000108      0.000000
    171 O2    c      -0.000273      0.000071     -0.000403      0.000000
    172 O2    c      -0.000187      0.000006      0.000269      0.000000
    173 O2    c      -0.000065      0.000198      0.000108      0.000000
    174 O3    c       0.000434      0.000134      0.001570      0.000000
    175 O3    c       0.000283      0.000383      0.000193      0.000000
    176 O2    c      -0.000115     -0.000033     -0.000234      0.000000
    177 O3    c       0.000194      0.000067     -0.001052      0.000000
    178 O2    c      -0.000320     -0.000256     -0.000629      0.000000
    179 O2    c      -0.000078      0.000182      0.000199      0.000000
    180 O2    c      -0.000116     -0.000009     -0.000271      0.000000
    181 F     c       0.000170      0.000198      0.000637      0.000000
    182 F     c      -0.000151      0.000140     -0.000224      0.000000
    183 F     c       0.000254     -0.000306      0.000146      0.000000
    184 F     c      -0.000183      0.000056     -0.000222      0.000000
    185 F     c      -0.000078      0.000063     -0.000088      0.000000
    186 F     c       0.000031      0.000254     -0.000220      0.000000
    187 O2    s       0.000330     -0.000220     -0.000330      0.000000
    188 O2    s       0.000114      0.000350     -0.000211      0.000000
    189 O2    s      -0.000015      0.000274     -0.000292      0.000000
    190 O2    s      -0.000018      0.000419     -0.000662      0.000000
    191 O2    s      -0.000329      0.000050     -0.000294      0.000000
    192 O2    s      -0.000118      0.000227     -0.001540      0.000000
    193 O2    s      -0.000096     -0.000227     -0.000650      0.000000
    194 O2    s      -0.000151      0.000484     -0.000279      0.000000
    195 O2    s       0.000070     -0.000146      0.000224      0.000000
    196 O2    s      -0.000121      0.000328     -0.000183      0.000000
    197 O2    s      -0.000187     -0.000376      0.000273      0.000000
    198 O2    s       0.000039      0.000415     -0.000110      0.000000
    199 O3    s       0.000246     -0.000015      0.005385      0.000000
    200 O2    s      -0.000058      0.000265     -0.000111      0.000000
    201 O3    s       0.000057      0.000681     -0.001626      0.000000
    202 O2    s      -0.000001      0.000212     -0.000037      0.000000
    203 O2    s      -0.000224     -0.000350     -0.000149      0.000000
    204 O2    s      -0.000452     -0.000164      0.000036      0.000000
    205 O2    s      -0.000104      0.000327      0.000614      0.000000
    206 O2    s      -0.000132      0.000204     -0.000400      0.000000
    207 O2    s      -0.000055      0.000103      0.000025      0.000000
    208 O2    s       0.000116      0.000329     -0.000950      0.000000
    209 O2    s      -0.000003     -0.000061      0.000088      0.000000
    210 O2    s      -0.000567      0.000264     -0.000545      0.000000
    211 O2    s       0.000292      0.000404     -0.000458      0.000000
    212 O2    s       0.000329     -0.000726     -0.000415      0.000000
    213 O2    s      -0.000052      0.000587     -0.000220      0.000000
    214 O2    s      -0.000469      0.000113     -0.000541      0.000000
    215 O2    s      -0.000138      0.000191     -0.000152      0.000000
    216 O2    s       0.000399     -0.000283     -0.001173      0.000000
    217 O2    s      -0.000152      0.000651      0.001577      0.000000
    218 O2    s      -0.000085      0.000219     -0.000125      0.000000
    219 O2    s      -0.000438      0.000147     -0.001197      0.000000
    220 O2    s      -0.000049      0.000534     -0.001079      0.000000
    221 O2    s      -0.000969      0.000385      0.000048      0.000000
    222 O2    s       0.000084      0.000272      0.000147      0.000000
    223 O2    s      -0.000531      0.000611      0.001181      0.000000
    224 O2    s       0.000143     -0.000017     -0.000031      0.000000
    225 O2    s      -0.000109      0.000267      0.000090      0.000000
    226 O2    s       0.000234      0.000220      0.000163      0.000000
    227 O2    s       0.000058      0.000525     -0.000024      0.000000
    228 O3    s      -0.000651     -0.000451     -0.002706      0.000000
    229 O2    s       0.000345     -0.000164     -0.000630      0.000000
    230 O2    s      -0.001072      0.000326      0.000874      0.000000
    231 O2    s      -0.000055      0.000480     -0.000352      0.000000
    232 O2    s      -0.000679      0.000213      0.000095      0.000000
    233 O2    s      -0.000145      0.000483     -0.000546      0.000000
    234 O2    s       0.000072     -0.001006     -0.001297      0.000000
    235 O2    s      -0.000467     -0.000669     -0.000375      0.000000
    236 O2    s       0.000138      0.000482     -0.000251      0.000000
    237 O2    s      -0.000758      0.000086     -0.000612      0.000000
    238 O2    s       0.000135      0.000291     -0.000403      0.000000
    239 O2    s      -0.000527     -0.000021     -0.000194      0.000000
    240 O2    s       0.000610      0.000788      0.000313      0.000000
    241 O3    s      -0.000206      0.000506      0.001300      0.000000
    242 O3    s      -0.000008     -0.000030     -0.003899      0.000000
    243 O2    s      -0.000105      0.000201      0.000134      0.000000
    244 O2    s      -0.000047      0.000234     -0.000156      0.000000
    245 O2    s      -0.000181     -0.000148     -0.000992      0.000000
    246 O2    s      -0.000043     -0.000209     -0.000375      0.000000
    247 O2    s       0.000196     -0.000004     -0.000858      0.000000
    248 O2    s       0.000095     -0.000136      0.000548      0.000000
    249 O2    s      -0.000374      0.000743      0.000312      0.000000
    250 O2    s      -0.000166      0.000021     -0.000550      0.000000
    251 O2    s      -0.000050      0.000239     -0.000534      0.000000
    252 O2    s       0.000254     -0.000631     -0.000519      0.000000
    253 O2    s      -0.000152      0.000086      0.001228      0.000000
    254 O2    s       0.000283      0.000542     -0.000445      0.000000
    255 O2    s       0.000003      0.000180      0.000628      0.000000
    256 O2    s       0.000034      0.000237     -0.000463      0.000000
    257 O2    s      -0.000529      0.000178     -0.000203      0.000000
    258 O3    s      -0.000385     -0.000032      0.001223      0.000000
    259 O2    s      -0.000118     -0.000124     -0.001251      0.000000
    260 O2    s      -0.000248     -0.000214      0.000182      0.000000
    261 O2    s      -0.000080      0.000434     -0.000372      0.000000
    262 O2    s      -0.000257      0.000246     -0.000931      0.000000
    263 O2    s      -0.000003      0.000470     -0.000341      0.000000
    264 O2    s      -0.000397      0.000050      0.000528      0.000000
    265 O2    s       0.000303     -0.000794      0.000586      0.000000
    266 O2    s       0.000337      0.000524     -0.000793      0.000000
    267 O2    s       0.000018      0.000533      0.000186      0.000000
    268 O2    s      -0.000002      0.000249     -0.000336      0.000000
    269 O2    s      -0.000444      0.000083     -0.000376      0.000000
    270 O2    s      -0.000617     -0.000610     -0.000060      0.000000
    271 O2    s      -0.000211     -0.000003     -0.001232      0.000000
    272 O2    s      -0.000417     -0.000020      0.000436      0.000000
    273 O2    s       0.000012      0.000374      0.000086      0.000000
    274 O2    s      -0.000017      0.000013     -0.000468      0.000000
    275 O2    s       0.000203      0.000332     -0.000416      0.000000
    276 O2    s       0.000039     -0.000265     -0.000335      0.000000
    277 O2    s      -0.000507      0.000067     -0.000085      0.000000
    278 O3    s      -0.000339      0.000064     -0.000582      0.000000
    279 O2    s       0.000036      0.000369      0.000106      0.000000
    280 O2    s       0.000350      0.000230     -0.000456      0.000000
    281 O2    s      -0.000093     -0.000197      0.000108      0.000000
    282 O2    s      -0.000185     -0.000414     -0.000047      0.000000
    283 O2    s      -0.000109      0.000335     -0.000382      0.000000
    284 O2    s       0.000351     -0.000116      0.000510      0.000000
    285 O2    s      -0.000309      0.000623     -0.000358      0.000000
    286 O2    s      -0.000001      0.000482     -0.000189      0.000000
    287 O2    s      -0.000112      0.000288     -0.000009      0.000000
    288 O2    s      -0.000137     -0.000264     -0.000965      0.000000
    289 O3    s      -0.001374      0.000731      0.000207      0.000000
    290 O3    s       0.000087      0.000222     -0.002167      0.000000
    291 O2    s      -0.000116      0.000313     -0.000117      0.000000
    292 O2    s      -0.000133      0.000234     -0.001090      0.000000
    293 O2    s      -0.000680      0.000146     -0.000463      0.000000
    294 O2    s      -0.000172     -0.000067     -0.000645      0.000000
    295 O2    s       0.000170      0.000168     -0.000663      0.000000
    296 O2    s       0.000056     -0.000105     -0.000235      0.000000
    297 O2    s      -0.000319      0.000124      0.000490      0.000000
    298 O2    s       0.000141      0.000136     -0.000679      0.000000
    299 O2    s      -0.000047      0.000285     -0.000081      0.000000
    300 O3    s       0.000273      0.000159     -0.001677      0.000000
    301 O3    s      -0.000334     -0.000649     -0.000224      0.000000
    302 O2    s      -0.000298      0.000117     -0.000019      0.000000
    303 O3    s      -0.000013      0.000260     -0.000665      0.000000
    304 O2    s      -0.000749      0.000445      0.000282      0.000000
    305 O2    s      -0.000003      0.000190     -0.000509      0.000000
    306 O2    s      -0.000191     -0.000127      0.000176      0.000000
    307 F     s       0.000336      0.000326      0.000997      0.000000
    308 F     s      -0.000151      0.000168     -0.000266      0.000000
    309 F     s       0.000434     -0.000697      0.001609      0.000000
    310 F     s      -0.000135      0.000290     -0.000544      0.000000
    311 F     s       0.000038      0.000378     -0.000035      0.000000
    312 F     s       0.000001      0.000220     -0.000438      0.000000
--------------------------------------------------------------------------------
  Maximum abs         0.001723      0.001361      0.006381      0.000000
--------------------------------------------------------------------------------


  Time to end of optimisation =      46.0373 seconds


  Peak dynamic memory used =      19.13 MB 


  Timing analysis for GULP :

--------------------------------------------------------------------------------
  Task / Subroutine                                          Time (Seconds)
--------------------------------------------------------------------------------
  Calculation of reciprocal space energy and derivatives          1.2863
  Calculation of real space energy and derivatives               39.8786
  Calculation of three-body energy and derivatives                4.0382
  Calculation of matrix inversion                                 0.7445
  Global summation overhead                                       0.0001
--------------------------------------------------------------------------------
  Total CPU time                                                 46.0373
--------------------------------------------------------------------------------


  Dump file written as out.res                                                 
  CIF file written as out.cif                                                 


  Job Finished at 10:49.10 13th November   2016                               

