********************************************************************************
*                       GENERAL UTILITY LATTICE PROGRAM                        *
*                                 Julian Gale                                  *
*                      Nanochemistry Research Institute                        *
*                           Department of Chemistry                            *
*                    Curtin University, Western Australia                      *
********************************************************************************
* Version = 4.2.0 * Last modified =  20th January 2014                         *
********************************************************************************
*  optimise     - perform optimisation run                                     *
*  conp         - constant pressure calculation                                *
*  qok          - running with non charge neutral cell is OK                   *
********************************************************************************

  Job Started  at 02:22.59 15th November   2016                               

  Number of CPUs =     1


  Total number of configurations input =   1

********************************************************************************
*  Input for Configuration =   1                                               *
********************************************************************************

  Formula = Si57Ge3O120F6                                               

  Number of irreducible atoms/shells =     312


  Total number atoms/shells =     312

  Dimensionality = 3               :  Bulk   


  Charge on solid   =  -6.000000 =>neutralising background added


  Cartesian lattice vectors (Angstroms) :

       11.961491    0.000000    0.000000
       -5.889938   10.371844    0.000000
       -0.281880    0.332146   29.473341

  Cell parameters (Angstroms/Degrees):

  a =      11.9615    alpha =  89.1680
  b =      11.9276    beta  =  90.5479
  c =      29.4766    gamma = 119.5913

  Initial cell volume =        3656.542738 Angs**3

  Temperature of configuration =  0.000     K 

  Pressure of configuration =         0.000 GPa 

  Fractional coordinates of asymmetric unit :

--------------------------------------------------------------------------------
   No.  Atomic       x           y          z         Charge      Occupancy
        Label      (Frac)      (Frac)     (Frac)        (e)         (Frac)  
--------------------------------------------------------------------------------
      1 Si    c    0.699600    0.375700    0.033890     4.00000    1.000000    
      2 Si    c    0.618811 *  0.317700 *  0.364059 *   4.00000    1.000000    
      3 Si    c    0.673763 *  0.294978 *  0.698121 *   4.00000    1.000000    
      4 Si    c    0.308973 *  0.626803 *  0.535287 *   4.00000    1.000000    
      5 Si    c    0.380240 *  0.674728 *  0.869304 *   4.00000    1.000000    
      6 Si    c    0.327627 *  0.700209 *  0.201153 *   4.00000    1.000000    
      7 Si    c    0.380571 *  0.693452 *  0.302852 *   4.00000    1.000000    
      8 Si    c    0.323741 *  0.619200 *  0.971445 *   4.00000    1.000000    
      9 Si    c    0.294987 *  0.680010 *  0.636893 *   4.00000    1.000000    
     10 Si    c    0.622222 *  0.298925 *  0.798616 *   4.00000    1.000000    
     11 Si    c    0.670453 *  0.367866 *  0.466124 *   4.00000    1.000000    
     12 Si    c    0.704049 *  0.323891 *  0.135645 *   4.00000    1.000000    
     13 Ge    c    0.532016 *  0.429733 *  0.966338 *   4.00000    1.000000    
     14 Si    c    0.581752 *  0.105323 *  0.300953 *   4.00000    1.000000    
     15 Si    c    0.879491 *  0.471826 *  0.632327 *   4.00000    1.000000    
     16 Si    c    0.475575 *  0.588334 *  0.469944 *   4.00000    1.000000    
     17 Si    c    0.419233 *  0.887005 *  0.803138 *   4.00000    1.000000    
     18 Si    c    0.115811 *  0.530808 *  0.136409 *   4.00000    1.000000    
     19 Ge    c    0.434106 *  0.527209 *  0.371092 *   4.00000    1.000000    
     20 Si    c    0.110765 *  0.581257 *  0.034939 *   4.00000    1.000000    
     21 Si    c    0.468443 *  0.886217 *  0.701893 *   4.00000    1.000000    
     22 Si    c    0.593098 *  0.466814 *  0.866824 *   4.00000    1.000000    
     23 Si    c    0.880825 *  0.412906 *  0.530072 *   4.00000    1.000000    
     24 Si    c    0.531904 *  0.110687 *  0.199887 *   4.00000    1.000000    
     25 Si    c    0.305880 *  0.393866 *  0.854551 *   4.00000    1.000000    
     26 Si    c    0.604432 *  0.902197 *  0.186016 *   4.00000    1.000000    
     27 Ge    c    0.096559 *  0.685173 *  0.525396 *   4.00000    1.000000    
     28 Si    c    0.705900 *  0.604086 *  0.348210 *   4.00000    1.000000    
     29 Si    c    0.395454 *  0.094414 *  0.685671 *   4.00000    1.000000    
     30 Si    c    0.904593 *  0.302103 *  0.020875 *   4.00000    1.000000    
     31 Si    c    0.392286 *  0.297294 *  0.481540 *   4.00000    1.000000    
     32 Si    c    0.905474 *  0.601751 *  0.150170 *   4.00000    1.000000    
     33 Si    c    0.698870 *  0.096009 *  0.815695 *   4.00000    1.000000    
     34 Si    c    0.607851 *  0.702154 *  0.988537 *   4.00000    1.000000    
     35 Si    c    0.091672 *  0.398284 *  0.649831 *   4.00000    1.000000    
     36 Si    c    0.302912 *  0.897685 *  0.315850 *   4.00000    1.000000    
     37 Si    c    0.252098 *  0.332004 *  0.956685 *   4.00000    1.000000    
     38 Si    c    0.661193 *  0.905240 *  0.286915 *   4.00000    1.000000    
     39 Si    c    0.082158 *  0.755623 *  0.620815 *   4.00000    1.000000    
     40 Si    c    0.753555 *  0.658622 *  0.451204 *   4.00000    1.000000    
     41 Si    c    0.340624 *  0.088872 *  0.786405 *   4.00000    1.000000    
     42 Si    c    0.914846 *  0.253564 *  0.121511 *   4.00000    1.000000    
     43 Si    c    0.332163 *  0.245717 *  0.379446 *   4.00000    1.000000    
     44 Si    c    0.908782 *  0.657442 *  0.049028 *   4.00000    1.000000    
     45 Si    c    0.746471 *  0.086022 *  0.715279 *   4.00000    1.000000    
     46 Si    c    0.665965 *  0.746524 *  0.885516 *   4.00000    1.000000    
     47 Si    c    0.090024 *  0.340273 *  0.548399 *   4.00000    1.000000    
     48 Si    c    0.255508 *  0.909951 *  0.215113 *   4.00000    1.000000    
     49 Si    c    0.968180 *  0.122011 *  0.969353 *   4.00000    1.000000    
     50 Si    c    0.886633 *  0.849945 *  0.300566 *   4.00000    1.000000    
     51 Si    c    0.148305 *  0.032015 *  0.636033 *   4.00000    1.000000    
     52 Si    c    0.035237 *  0.872696 *  0.469606 *   4.00000    1.000000    
     53 Si    c    0.122237 *  0.149923 *  0.803161 *   4.00000    1.000000    
     54 Si    c    0.853291 *  0.973797 *  0.136165 *   4.00000    1.000000    
     55 Si    c    0.122700 *  0.961867 *  0.367563 *   4.00000    1.000000    
     56 Si    c    0.852733 *  0.883150 *  0.035798 *   4.00000    1.000000    
     57 Si    c    0.026639 *  0.151686 *  0.701955 *   4.00000    1.000000    
     58 Si    c    0.879135 *  0.028752 *  0.868211 *   4.00000    1.000000    
     59 Si    c    0.147139 *  0.117207 *  0.533190 *   4.00000    1.000000    
     60 Si    c    0.977200 *  0.850263 *  0.200146 *   4.00000    1.000000    
     61 O2    c    0.932591 *  0.000217 *  0.001300 *   0.87073    1.000000    
     62 O2    c    0.002730 *  0.927768 *  0.335005 *   0.87073    1.000000    
     63 O2    c    0.074350 *  0.080632 *  0.668328 *   0.87073    1.000000    
     64 O2    c    0.066937 *  0.997223 *  0.500780 *   0.87073    1.000000    
     65 O2    c    0.001352 *  0.069157 *  0.835834 *   0.87073    1.000000    
     66 O2    c    0.935091 *  0.931442 *  0.167827 *   0.87073    1.000000    
     67 O3    c    0.344972 *  0.575840 *  0.335423 *   1.33043    1.000000    
     68 O2    c    0.415805 *  0.759146 *  0.670526 *   0.87073    1.000000    
     69 O2    c    0.236856 *  0.656871 *  0.002146 *   0.87073    1.000000    
     70 O2    c    0.663327 *  0.425733 *  0.828527 *   0.87073    1.000000    
     71 O2    c    0.580927 *  0.238275 *  0.167854 *   0.87073    1.000000    
     72 O2    c    0.752292 *  0.326478 *  0.499711 *   0.87073    1.000000    
     73 O3    c    0.581728 *  0.341017 *  0.001572 *   1.33043    1.000000    
     74 O2    c    0.754463 *  0.417634 *  0.664594 *   0.87073    1.000000    
     75 O2    c    0.656981 *  0.231583 *  0.333194 *   0.87073    1.000000    
     76 O2    c    0.439776 *  0.658677 *  0.509669 *   0.87073    1.000000    
     77 O2    c    0.241768 *  0.578287 *  0.168469 *   0.87073    1.000000    
     78 O2    c    0.344167 *  0.761447 *  0.836164 *   0.87073    1.000000    
     79 O2    c    0.120184 *  0.212333 *  0.974711 *   0.87073    1.000000    
     80 O2    c    0.788788 *  0.905376 *  0.306546 *   0.87073    1.000000    
     81 O2    c    0.083512 *  0.878466 *  0.645170 *   0.87073    1.000000    
     82 O2    c    0.880179 *  0.776155 *  0.473473 *   0.87073    1.000000    
     83 O2    c    0.214162 *  0.086541 *  0.807059 *   0.87073    1.000000    
     84 O2    c    0.914372 *  0.126939 *  0.142506 *   0.87073    1.000000    
     85 O2    c    0.214227 *  0.114282 *  0.360933 *   0.87073    1.000000    
     86 O2    c    0.907373 *  0.784921 *  0.029323 *   0.87073    1.000000    
     87 O2    c    0.872613 *  0.084461 *  0.696062 *   0.87073    1.000000    
     88 O2    c    0.787342 *  0.874526 *  0.864078 *   0.87073    1.000000    
     89 O2    c    0.088425 *  0.213993 *  0.528686 *   0.87073    1.000000    
     90 O2    c    0.129871 *  0.910182 *  0.193898 *   0.87073    1.000000    
     91 O2    c    0.942343 *  0.869441 *  0.250490 *   0.87073    1.000000    
     92 O2    c    0.134328 *  0.068708 *  0.584865 *   0.87073    1.000000    
     93 O2    c    0.929741 *  0.071185 *  0.918428 *   0.87073    1.000000    
     94 O2    c    0.069031 *  0.140919 *  0.752564 *   0.87073    1.000000    
     95 O2    c    0.871481 *  0.939074 *  0.085591 *   0.87073    1.000000    
     96 O2    c    0.071728 *  0.925857 *  0.418400 *   0.87073    1.000000    
     97 O2    c    0.898571 *  0.203102 *  0.982013 *   0.87073    1.000000    
     98 O2    c    0.815097 *  0.697337 *  0.312021 *   0.87073    1.000000    
     99 O2    c    0.300142 *  0.098913 *  0.647146 *   0.87073    1.000000    
    100 O3    c    0.108303 *  0.799786 *  0.483510 *   1.33043    1.000000    
    101 O2    c    0.206780 *  0.300499 *  0.815923 *   0.87073    1.000000    
    102 O2    c    0.701777 *  0.901397 *  0.147840 *   0.87073    1.000000    
    103 O2    c    0.203335 *  0.891327 *  0.354566 *   0.87073    1.000000    
    104 O2    c    0.700913 *  0.812885 *  0.023924 *   0.87073    1.000000    
    105 O2    c    0.089679 *  0.303650 *  0.689883 *   0.87073    1.000000    
    106 O2    c    0.798196 *  0.099030 *  0.853974 *   0.87073    1.000000    
    107 O2    c    0.298173 *  0.200044 *  0.520713 *   0.87073    1.000000    
    108 O2    c    0.904451 *  0.698458 *  0.188353 *   0.87073    1.000000    
    109 O2    c    0.328596 *  0.643276 *  0.251306 *   0.87073    1.000000    
    110 O2    c    0.350735 *  0.680846 *  0.587133 *   0.87073    1.000000    
    111 O2    c    0.325775 *  0.670634 *  0.919576 *   0.87073    1.000000    
    112 O2    c    0.677018 *  0.353141 *  0.747916 *   0.87073    1.000000    
    113 O2    c    0.648313 *  0.323775 *  0.085285 *   0.87073    1.000000    
    114 O2    c    0.669214 *  0.316930 *  0.415634 *   0.87073    1.000000    
    115 O3    c    0.365372 *  0.313943 *  0.975857 *   1.33043    1.000000    
    116 O2    c    0.671556 *  0.038566 *  0.304946 *   0.87073    1.000000    
    117 O2    c    0.947605 *  0.627432 *  0.635650 *   0.87073    1.000000    
    118 O2    c    0.632615 *  0.670046 *  0.469713 *   0.87073    1.000000    
    119 O2    c    0.332712 *  0.957102 *  0.805817 *   0.87073    1.000000    
    120 O2    c    0.047243 *  0.374409 *  0.139814 *   0.87073    1.000000    
    121 O3    c    0.316614 *  0.361520 *  0.360904 *   1.33043    1.000000    
    122 O2    c    0.043024 *  0.670265 *  0.030729 *   0.87073    1.000000    
    123 O2    c    0.624098 *  0.953296 *  0.697713 *   0.87073    1.000000    
    124 O2    c    0.675696 *  0.625300 *  0.866345 *   0.87073    1.000000    
    125 O2    c    0.958256 *  0.332432 *  0.530395 *   0.87073    1.000000    
    126 O2    c    0.376097 *  0.042801 *  0.196217 *   0.87073    1.000000    
    127 O2    c    0.771044 *  0.301474 *  0.013338 *   0.87073    1.000000    
    128 O2    c    0.696454 *  0.463486 *  0.344265 *   0.87073    1.000000    
    129 O2    c    0.529769 *  0.226198 *  0.676901 *   0.87073    1.000000    
    130 O3    c    0.246933 *  0.700818 *  0.509929 *   1.33043    1.000000    
    131 O2    c    0.308946 *  0.530676 *  0.848817 *   0.87073    1.000000    
    132 O2    c    0.470235 *  0.769469 *  0.178444 *   0.87073    1.000000    
    133 O2    c    0.305206 *  0.765031 *  0.322772 *   0.87073    1.000000    
    134 O2    c    0.468817 *  0.696063 *  0.991166 *   0.87073    1.000000    
    135 O2    c    0.222659 *  0.533005 *  0.656322 *   0.87073    1.000000    
    136 O2    c    0.696167 *  0.229090 *  0.821813 *   0.87073    1.000000    
    137 O2    c    0.526528 *  0.296309 *  0.486524 *   0.87073    1.000000    
    138 O2    c    0.773022 *  0.467111 *  0.157663 *   0.87073    1.000000    
    139 O2    c    0.786159 *  0.533060 *  0.028701 *   0.87073    1.000000    
    140 O2    c    0.465023 *  0.255005 *  0.361606 *   0.87073    1.000000    
    141 O2    c    0.748701 *  0.212942 *  0.694101 *   0.87073    1.000000    
    142 O2    c    0.216140 *  0.469599 *  0.532224 *   0.87073    1.000000    
    143 O2    c    0.534267 *  0.738616 *  0.867732 *   0.87073    1.000000    
    144 O2    c    0.253812 *  0.783089 *  0.196184 *   0.87073    1.000000    
    145 O2    c    0.536883 *  0.781539 *  0.307134 *   0.87073    1.000000    
    146 O2    c    0.260469 *  0.464776 *  0.974151 *   0.87073    1.000000    
    147 O2    c    0.205110 *  0.745584 *  0.640186 *   0.87073    1.000000    
    148 O2    c    0.466553 *  0.216582 *  0.803982 *   0.87073    1.000000    
    149 O2    c    0.736597 *  0.522223 *  0.468577 *   0.87073    1.000000    
    150 O2    c    0.788379 *  0.251747 *  0.140671 *   0.87073    1.000000    
    151 O2    c    0.240276 *  0.322615 *  0.901424 *   0.87073    1.000000    
    152 O2    c    0.678294 *  0.904485 *  0.232565 *   0.87073    1.000000    
    153 O3    c    0.089036 *  0.786675 *  0.568435 *   1.33043    1.000000    
    154 O2    c    0.767831 *  0.672460 *  0.396939 *   0.87073    1.000000    
    155 O2    c    0.321777 *  0.089859 *  0.732096 *   0.87073    1.000000    
    156 O2    c    0.912772 *  0.232201 *  0.067275 *   0.87073    1.000000    
    157 O2    c    0.321033 *  0.233257 *  0.434747 *   0.87073    1.000000    
    158 O2    c    0.907555 *  0.674992 *  0.103274 *   0.87073    1.000000    
    159 O2    c    0.767858 *  0.090296 *  0.769467 *   0.87073    1.000000    
    160 O2    c    0.679164 *  0.761033 *  0.939570 *   0.87073    1.000000    
    161 O2    c    0.088893 *  0.328532 *  0.603167 *   0.87073    1.000000    
    162 O2    c    0.234227 *  0.906825 *  0.269333 *   0.87073    1.000000    
    163 O3    c    0.602201 *  0.571173 *  0.001350 *   1.33043    1.000000    
    164 O2    c    0.441541 *  0.024189 *  0.324826 *   0.87073    1.000000    
    165 O2    c    0.970504 *  0.420256 *  0.654058 *   0.87073    1.000000    
    166 O2    c    0.416540 *  0.440343 *  0.489527 *   0.87073    1.000000    
    167 O2    c    0.561017 *  0.969588 *  0.825450 *   0.87073    1.000000    
    168 O2    c    0.031680 *  0.588293 *  0.159031 *   0.87073    1.000000    
    169 O3    c    0.576194 *  0.601484 *  0.336326 *   1.33043    1.000000    
    170 O2    c    0.030827 *  0.440841 *  0.011163 *   0.87073    1.000000    
    171 O2    c    0.408268 *  0.967642 *  0.677602 *   0.87073    1.000000    
    172 O2    c    0.447139 *  0.413817 *  0.846744 *   0.87073    1.000000    
    173 O3    c    0.954909 *  0.548721 *  0.504901 *   1.33043    1.000000    
    174 O2    c    0.591144 *  0.028778 *  0.176501 *   0.87073    1.000000    
    175 O2    c    0.584714 *  0.164380 *  0.250609 *   0.87073    1.000000    
    176 O2    c    0.832365 *  0.419598 *  0.581424 *   0.87073    1.000000    
    177 O3    c    0.601493 *  0.409447 *  0.914480 *   1.33043    1.000000    
    178 O2    c    0.416829 *  0.831919 *  0.752795 *   0.87073    1.000000    
    179 O2    c    0.168705 *  0.583956 *  0.085297 *   0.87073    1.000000    
    180 O3    c    0.416420 *  0.598302 *  0.422804 *   1.33043    1.000000    
    181 F     c    0.457905 *  0.909158 *  0.250262 *   0.56000    1.000000    
    182 F     c    0.090483 *  0.575290 *  0.573986 *   0.56000    1.000000    
    183 F     c    0.476036 *  0.522164 *  0.928727 *   0.56000    1.000000    
    184 F     c    0.547046 *  0.091351 *  0.749842 *   0.56000    1.000000    
    185 F     c    0.912428 *  0.454363 *  0.084609 *   0.56000    1.000000    
    186 F     c    0.524593 *  0.468565 *  0.407837 *   0.56000    1.000000    
    187 O2    s    0.927680 *  0.001020 *  0.001509 *  -2.87073    1.000000    
    188 O2    s    0.003066 *  0.922770 *  0.334759 *  -2.87073    1.000000    
    189 O2    s    0.077152 *  0.083347 *  0.668574 *  -2.87073    1.000000    
    190 O2    s    0.072774 *  0.998304 *  0.501319 *  -2.87073    1.000000    
    191 O2    s    0.001573 *  0.073747 *  0.835701 *  -2.87073    1.000000    
    192 O2    s    0.930497 *  0.926987 *  0.167884 *  -2.87073    1.000000    
    193 O3    s    0.355117 *  0.585402 *  0.334347 *  -3.33043    1.000000    
    194 O2    s    0.408537 *  0.763891 *  0.670215 *  -2.87073    1.000000    
    195 O2    s    0.233808 *  0.645409 *  0.002048 *  -2.87073    1.000000    
    196 O2    s    0.651965 *  0.416436 *  0.829169 *  -2.87073    1.000000    
    197 O2    s    0.588683 *  0.234120 *  0.167791 *  -2.87073    1.000000    
    198 O2    s    0.756653 *  0.339303 *  0.499282 *  -2.87073    1.000000    
    199 O3    s    0.590805 *  0.350993 *  0.002539 *  -3.33043    1.000000    
    200 O2    s    0.759262 *  0.410663 *  0.664673 *  -2.87073    1.000000    
    201 O2    s    0.645380 *  0.228267 *  0.333333 *  -2.87073    1.000000    
    202 O2    s    0.429368 *  0.648174 *  0.508444 *  -2.87073    1.000000    
    203 O2    s    0.237531 *  0.585804 *  0.168485 *  -2.87073    1.000000    
    204 O2    s    0.355626 *  0.765150 *  0.836280 *  -2.87073    1.000000    
    205 O2    s    0.117582 *  0.215340 *  0.972150 *  -2.87073    1.000000    
    206 O2    s    0.786088 *  0.899469 *  0.303926 *  -2.87073    1.000000    
    207 O2    s    0.090140 *  0.882273 *  0.641851 *  -2.87073    1.000000    
    208 O2    s    0.882118 *  0.773259 *  0.470741 *  -2.87073    1.000000    
    209 O2    s    0.217499 *  0.093516 *  0.804540 *  -2.87073    1.000000    
    210 O2    s    0.907850 *  0.123637 *  0.139658 *  -2.87073    1.000000    
    211 O2    s    0.217153 *  0.111937 *  0.363691 *  -2.87073    1.000000    
    212 O2    s    0.901652 *  0.782386 *  0.032000 *  -2.87073    1.000000    
    213 O2    s    0.876020 *  0.091750 *  0.698636 *  -2.87073    1.000000    
    214 O2    s    0.784544 *  0.877635 *  0.866696 *  -2.87073    1.000000    
    215 O2    s    0.094686 *  0.217513 *  0.531234 *  -2.87073    1.000000    
    216 O2    s    0.126406 *  0.903697 *  0.196737 *  -2.87073    1.000000    
    217 O2    s    0.939898 *  0.865016 *  0.250522 *  -2.87073    1.000000    
    218 O2    s    0.137265 *  0.069886 *  0.584953 *  -2.87073    1.000000    
    219 O2    s    0.928103 *  0.071853 *  0.918206 *  -2.87073    1.000000    
    220 O2    s    0.070122 *  0.143102 *  0.752473 *  -2.87073    1.000000    
    221 O2    s    0.867254 *  0.936479 *  0.085504 *  -2.87073    1.000000    
    222 O2    s    0.073503 *  0.924162 *  0.418224 *  -2.87073    1.000000    
    223 O2    s    0.906775 *  0.204157 *  0.984502 *  -2.87073    1.000000    
    224 O2    s    0.811512 *  0.703824 *  0.314518 *  -2.87073    1.000000    
    225 O2    s    0.293950 *  0.091362 *  0.649965 *  -2.87073    1.000000    
    226 O3    s    0.099234 *  0.800160 *  0.484829 *  -3.33043    1.000000    
    227 O2    s    0.207907 *  0.294079 *  0.818487 *  -2.87073    1.000000    
    228 O2    s    0.708034 *  0.909132 *  0.150430 *  -2.87073    1.000000    
    229 O2    s    0.204730 *  0.899461 *  0.352080 *  -2.87073    1.000000    
    230 O2    s    0.707216 *  0.808922 *  0.021538 *  -2.87073    1.000000    
    231 O2    s    0.083259 *  0.297767 *  0.686887 *  -2.87073    1.000000    
    232 O2    s    0.796454 *  0.091215 *  0.851486 *  -2.87073    1.000000    
    233 O2    s    0.291915 *  0.201242 *  0.518032 *  -2.87073    1.000000    
    234 O2    s    0.912210 *  0.704611 *  0.185723 *  -2.87073    1.000000    
    235 O2    s    0.333643 *  0.654207 *  0.251079 *  -2.87073    1.000000    
    236 O2    s    0.340619 *  0.675437 *  0.587348 *  -2.87073    1.000000    
    237 O2    s    0.331351 *  0.665957 *  0.919404 *  -2.87073    1.000000    
    238 O2    s    0.671031 *  0.341468 *  0.747939 *  -2.87073    1.000000    
    239 O2    s    0.659351 *  0.329042 *  0.085403 *  -2.87073    1.000000    
    240 O2    s    0.664254 *  0.322408 *  0.415834 *  -2.87073    1.000000    
    241 O3    s    0.364169 *  0.323620 *  0.973118 *  -3.33043    1.000000    
    242 O2    s    0.661240 *  0.031861 *  0.302692 *  -2.87073    1.000000    
    243 O2    s    0.953834 *  0.623928 *  0.633826 *  -2.87073    1.000000    
    244 O2    s    0.629595 *  0.660666 *  0.467773 *  -2.87073    1.000000    
    245 O2    s    0.342562 *  0.963546 *  0.803508 *  -2.87073    1.000000    
    246 O2    s    0.040411 *  0.377804 *  0.137523 *  -2.87073    1.000000    
    247 O3    s    0.326143 *  0.359962 *  0.363640 *  -3.33043    1.000000    
    248 O2    s    0.036445 *  0.659803 *  0.033019 *  -2.87073    1.000000    
    249 O2    s    0.620896 *  0.960236 *  0.699976 *  -2.87073    1.000000    
    250 O2    s    0.666688 *  0.622766 *  0.868419 *  -2.87073    1.000000    
    251 O2    s    0.964364 *  0.341484 *  0.532282 *  -2.87073    1.000000    
    252 O2    s    0.379523 *  0.035914 *  0.198577 *  -2.87073    1.000000    
    253 O2    s    0.778429 *  0.309088 *  0.016293 *  -2.87073    1.000000    
    254 O2    s    0.689191 *  0.462331 *  0.346792 *  -2.87073    1.000000    
    255 O2    s    0.530627 *  0.219451 *  0.680077 *  -2.87073    1.000000    
    256 O3    s    0.242740 *  0.691922 *  0.513723 *  -3.33043    1.000000    
    257 O2    s    0.316096 *  0.531542 *  0.851563 *  -2.87073    1.000000    
    258 O2    s    0.469819 *  0.776346 *  0.181567 *  -2.87073    1.000000    
    259 O2    s    0.312481 *  0.772476 *  0.319990 *  -2.87073    1.000000    
    260 O2    s    0.467588 *  0.688568 *  0.988781 *  -2.87073    1.000000    
    261 O2    s    0.215986 *  0.533633 *  0.653599 *  -2.87073    1.000000    
    262 O2    s    0.688807 *  0.222068 *  0.818736 *  -2.87073    1.000000    
    263 O2    s    0.527586 *  0.303933 *  0.483840 *  -2.87073    1.000000    
    264 O2    s    0.779943 *  0.466680 *  0.154611 *  -2.87073    1.000000    
    265 O2    s    0.791463 *  0.531397 *  0.031424 *  -2.87073    1.000000    
    266 O2    s    0.468213 *  0.261041 *  0.363692 *  -2.87073    1.000000    
    267 O2    s    0.740638 *  0.207797 *  0.696746 *  -2.87073    1.000000    
    268 O2    s    0.211191 *  0.470698 *  0.534295 *  -2.87073    1.000000    
    269 O2    s    0.531695 *  0.732507 *  0.869784 *  -2.87073    1.000000    
    270 O2    s    0.261854 *  0.788332 *  0.198737 *  -2.87073    1.000000    
    271 O2    s    0.535090 *  0.786707 *  0.304485 *  -2.87073    1.000000    
    272 O2    s    0.266653 *  0.467917 *  0.972069 *  -2.87073    1.000000    
    273 O2    s    0.202035 *  0.739483 *  0.637874 *  -2.87073    1.000000    
    274 O2    s    0.468918 *  0.211120 *  0.801547 *  -2.87073    1.000000    
    275 O2    s    0.731093 *  0.519973 *  0.466473 *  -2.87073    1.000000    
    276 O2    s    0.793466 *  0.259661 *  0.138079 *  -2.87073    1.000000    
    277 O2    s    0.248656 *  0.331338 *  0.901787 *  -2.87073    1.000000    
    278 O2    s    0.668736 *  0.904324 *  0.233388 *  -2.87073    1.000000    
    279 O3    s    0.088766 *  0.776587 *  0.571167 *  -3.33043    1.000000    
    280 O2    s    0.760184 *  0.664265 *  0.398089 *  -2.87073    1.000000    
    281 O2    s    0.331470 *  0.090238 *  0.733031 *  -2.87073    1.000000    
    282 O2    s    0.912187 *  0.241778 *  0.068054 *  -2.87073    1.000000    
    283 O2    s    0.329896 *  0.241487 *  0.434369 *  -2.87073    1.000000    
    284 O2    s    0.907468 *  0.665441 *  0.102482 *  -2.87073    1.000000    
    285 O2    s    0.758301 *  0.090411 *  0.768505 *  -2.87073    1.000000    
    286 O2    s    0.670824 *  0.753689 *  0.938323 *  -2.87073    1.000000    
    287 O2    s    0.089319 *  0.337229 *  0.602458 *  -2.87073    1.000000    
    288 O2    s    0.243608 *  0.906243 *  0.268448 *  -2.87073    1.000000    
    289 O3    s    0.597894 *  0.576023 *  0.997634 *  -3.33043    1.000000    
    290 O2    s    0.441480 *  0.019192 *  0.321436 *  -2.87073    1.000000    
    291 O2    s    0.974418 *  0.423407 *  0.651280 *  -2.87073    1.000000    
    292 O2    s    0.419734 *  0.439025 *  0.486707 *  -2.87073    1.000000    
    293 O2    s    0.560746 *  0.974431 *  0.822070 *  -2.87073    1.000000    
    294 O2    s    0.026725 *  0.583566 *  0.155711 *  -2.87073    1.000000    
    295 O3    s    0.580732 *  0.596565 *  0.339954 *  -3.33043    1.000000    
    296 O2    s    0.025674 *  0.440688 *  0.014616 *  -2.87073    1.000000    
    297 O2    s    0.413334 *  0.972887 *  0.680998 *  -2.87073    1.000000    
    298 O2    s    0.445814 *  0.416917 *  0.849572 *  -2.87073    1.000000    
    299 O3    s    0.957405 *  0.544300 *  0.508967 *  -3.33043    1.000000    
    300 O2    s    0.586266 *  0.023515 *  0.179940 *  -2.87073    1.000000    
    301 O2    s    0.578943 *  0.152692 *  0.250642 *  -2.87073    1.000000    
    302 O2    s    0.842160 *  0.424547 *  0.581771 *  -2.87073    1.000000    
    303 O3    s    0.596191 *  0.416887 *  0.912658 *  -3.33043    1.000000    
    304 O2    s    0.422464 *  0.843294 *  0.752756 *  -2.87073    1.000000    
    305 O2    s    0.157301 *  0.578249 *  0.085250 *  -2.87073    1.000000    
    306 O3    s    0.423763 *  0.592726 *  0.424457 *  -3.33043    1.000000    
    307 F     s    0.458176 *  0.909883 *  0.250168 *  -1.56000    1.000000    
    308 F     s    0.090735 *  0.582243 *  0.571000 *  -1.56000    1.000000    
    309 F     s    0.479960 *  0.516168 *  0.931121 *  -1.56000    1.000000    
    310 F     s    0.547169 *  0.091313 *  0.749751 *  -1.56000    1.000000    
    311 F     s    0.912976 *  0.454472 *  0.084529 *  -1.56000    1.000000    
    312 F     s    0.518497 *  0.472731 *  0.405428 *  -1.56000    1.000000    
--------------------------------------------------------------------------------



********************************************************************************
*  General input information                                                   *
********************************************************************************

  Species output for all configurations : 

--------------------------------------------------------------------------------
  Species    Type    Atomic    Atomic    Charge       Radii (Angs)     Library
                     Number     Mass       (e)     Cova   Ionic  VDW   Symbol
--------------------------------------------------------------------------------
    Si       Core       14      28.09   4.000000   1.200  0.000  2.100          
    O1       Core        8      16.00   1.733957   0.730  0.000  1.360          
    O1       Shell       8       0.00  -3.733957   0.730  0.000  1.360          
    O2       Core        8      16.00   0.870733   0.730  0.000  1.360          
    O2       Shell       8       0.00  -2.870733   0.730  0.000  1.360          
    O3       Core        8      16.00   1.330431   0.730  0.000  1.360          
    O3       Shell       8       0.00  -3.330431   0.730  0.000  1.360          
    F        Core        9      19.00   0.560000   0.710  0.000  1.300          
    F        Shell       9       0.00  -1.560000   0.710  0.000  1.300          
    Ge       Core       32      72.61   4.000000   1.170  0.000  1.750          
--------------------------------------------------------------------------------


  Lattice summation method               =    Ewald          (3-D)
                                         =    Parry          (2-D)
                                         =    Saunders et al (1-D)
  Accuracy factor for lattice sums       =   12.000


  Time limit = Infinity

  Maximum range for interatomic potentials =        16.000000 Angstroms

  Taper potentials to zero over   1.0000 Angstroms using polynomial

  General interatomic potentials :

--------------------------------------------------------------------------------
Atom  Types   Potential         A         B         C         D     Cutoffs(Ang)
  1     2                                                            Min    Max 
--------------------------------------------------------------------------------
Si   c O1   s Buckingham    0.132E+04 0.318      10.1      0.00     0.000 16.000
Si   c O2   s Buckingham    0.132E+04 0.318      10.1      0.00     0.000 16.000
Si   c O3   s Buckingham    0.132E+04 0.318      10.1      0.00     0.000 16.000
Ge   c O1   s Buckingham    0.150E+04 0.326      16.8      0.00     0.000 16.000
Ge   c O2   s Buckingham    0.150E+04 0.326      16.8      0.00     0.000 16.000
Ge   c O3   s Buckingham    0.150E+04 0.326      16.8      0.00     0.000 16.000
O1   s O1   s Buckingham    0.228E+05 0.149      10.9      0.00     0.000 16.000
O1   s O2   s Buckingham    0.228E+05 0.149      10.9      0.00     0.000 16.000
O1   s O3   s Buckingham    0.228E+05 0.149      10.9      0.00     0.000 16.000
O2   s O2   s Buckingham    0.228E+05 0.149      10.9      0.00     0.000 16.000
O2   s O3   s Buckingham    0.228E+05 0.149      10.9      0.00     0.000 16.000
O3   s O3   s Buckingham    0.228E+05 0.149      10.9      0.00     0.000 16.000
Si   c F    s Buckingham     977.     0.282      0.00      0.00     0.000 16.000
Ge   c F    s Buckingham     681.     0.320      0.00      0.00     0.000 16.000
F    s F    s Buckingham     540.     0.262      0.00      0.00     0.000 16.000
O1   s F    s Buckingham    0.168E+04 0.268      0.00      0.00     0.000 16.000
O2   s F    s Buckingham    0.168E+04 0.268      0.00      0.00     0.000 16.000
O3   s F    s Buckingham    0.168E+04 0.268      0.00      0.00     0.000 16.000
O2   c O2   s Spring (c-s)   76.0      0.00      0.00      0.00     0.000  0.800
O3   c O3   s Spring (c-s)   128.      0.00      0.00      0.00     0.000  0.800
O1   c O1   s Spring (c-s)   180.      0.00      0.00      0.00     0.000  0.800
F    c F    s Spring (c-s)   33.5      0.00      0.00      0.00     0.000  0.800
--------------------------------------------------------------------------------

  General Three-body potentials :

  Harmonic form:

--------------------------------------------------------------------------------
Atom    Atom    Atom           Force Constants            Theta     Cutoffs  
  1       2       3     (eVrad**-2/eVrad**-3/eVrad**-4)   (deg)  1-2  1-3  2-3
--------------------------------------------------------------------------------
Si    c O1    s O1    s  1.261        0.0000    0.0000   109.470 0.00 0.00 0.00
                                                                 1.90 1.90 3.50
Si    c O1    s O2    s  1.261        0.0000    0.0000   109.470 0.00 0.00 0.00
                                                                 1.90 1.90 3.50
Si    c O2    s O2    s  1.261        0.0000    0.0000   109.470 0.00 0.00 0.00
                                                                 1.90 1.90 3.50
--------------------------------------------------------------------------------

********************************************************************************
*  Output for configuration   1                                                *
********************************************************************************


  Components of energy : 

--------------------------------------------------------------------------------
  Interatomic potentials     =        2067.66590554 eV
  Three-body potentials      =           0.46687392 eV
  Monopole - monopole (real) =       -6617.62385576 eV
  Monopole - monopole (recip)=       -3171.40516352 eV
  Monopole - monopole (total)=       -9789.02901928 eV
  Neutralising energy        =          -6.46018657 eV
--------------------------------------------------------------------------------
  Total lattice energy       =       -7727.35642638 eV
--------------------------------------------------------------------------------
  Total lattice energy       =         -745571.7717 kJ/(mole unit cells)
--------------------------------------------------------------------------------


  Number of variables =      939

  Maximum number of calculations  =          5000
  Maximum Hessian update interval =            10
  Maximum step size               =   0.100000000
  Maximum parameter tolerance     =   0.000010000
  Maximum function  tolerance     =   0.000010000
  Maximum gradient  tolerance     =   0.001000000
  Maximum gradient  component     =   0.010000000

  Symmetry not applied to optimisation

  Cell parameters to be optimised using strains

  Newton-Raphson optimiser to be used

  BFGS hessian update to be used

  Dumpfile to be written after every cycle

  Start of bulk optimisation :

  Cycle:      0 Energy:     -7727.356426  Gnorm:      0.010071  CPU:    2.046
  ** Hessian calculated **
  Cycle:      1 Energy:     -7727.356648  Gnorm:      0.003610  CPU:    5.244
  Cycle:      2 Energy:     -7727.356715  Gnorm:      0.002276  CPU:    8.066
  Cycle:      3 Energy:     -7727.356859  Gnorm:      0.001640  CPU:   12.923
  Cycle:      4 Energy:     -7727.357039  Gnorm:      0.003426  CPU:   17.101
  Cycle:      5 Energy:     -7727.357336  Gnorm:      0.006016  CPU:   21.957
  Cycle:      6 Energy:     -7727.357706  Gnorm:      0.008341  CPU:   26.135
  Cycle:      7 Energy:     -7727.358205  Gnorm:      0.010819  CPU:   30.313
  Cycle:      8 Energy:     -7727.358896  Gnorm:      0.013483  CPU:   34.491
  Cycle:      9 Energy:     -7727.359834  Gnorm:      0.015740  CPU:   38.670
  Cycle:     10 Energy:     -7727.361037  Gnorm:      0.017772  CPU:   42.848
  ** Hessian calculated **
  Cycle:     11 Energy:     -7727.361862  Gnorm:      0.004926  CPU:   48.041
  Cycle:     12 Energy:     -7727.362063  Gnorm:      0.003122  CPU:   51.541
  Cycle:     13 Energy:     -7727.362291  Gnorm:      0.003131  CPU:   55.719
  Cycle:     14 Energy:     -7727.362521  Gnorm:      0.003900  CPU:   59.897
  Cycle:     15 Energy:     -7727.362688  Gnorm:      0.003572  CPU:   63.397
  Cycle:     16 Energy:     -7727.362833  Gnorm:      0.002827  CPU:   66.898
  Cycle:     17 Energy:     -7727.363012  Gnorm:      0.002284  CPU:   71.075
  Cycle:     18 Energy:     -7727.363141  Gnorm:      0.001901  CPU:   73.898
  Cycle:     19 Energy:     -7727.363437  Gnorm:      0.002868  CPU:   78.753
  Cycle:     20 Energy:     -7727.363807  Gnorm:      0.004126  CPU:   82.931
  ** Hessian calculated **
  Cycle:     21 Energy:     -7727.364226  Gnorm:      0.004095  CPU:   88.802
  Cycle:     22 Energy:     -7727.364931  Gnorm:      0.004042  CPU:   93.657
  Cycle:     23 Energy:     -7727.366011  Gnorm:      0.003960  CPU:   98.513
  Cycle:     24 Energy:     -7727.367344  Gnorm:      0.003857  CPU:  102.691
  Cycle:     25 Energy:     -7727.369541  Gnorm:      0.003679  CPU:  107.548
  Cycle:     26 Energy:     -7727.372233  Gnorm:      0.003450  CPU:  111.726
  Cycle:     27 Energy:     -7727.376476  Gnorm:      0.003053  CPU:  116.583
  Cycle:     28 Energy:     -7727.381214  Gnorm:      0.002539  CPU:  120.761
  Cycle:     29 Energy:     -7727.386446  Gnorm:      0.001811  CPU:  124.941
  Cycle:     30 Energy:     -7727.390475  Gnorm:      0.000924  CPU:  129.120
  ** Hessian calculated **
  Cycle:     31 Energy:     -7727.391487  Gnorm:      0.000466  CPU:  134.991
  Cycle:     32 Energy:     -7727.391740  Gnorm:      0.000237  CPU:  139.171
  Cycle:     33 Energy:     -7727.391804  Gnorm:      0.000119  CPU:  143.350
  Cycle:     34 Energy:     -7727.391814  Gnorm:      0.000084  CPU:  146.172
  Cycle:     35 Energy:     -7727.391820  Gnorm:      0.000059  CPU:  148.996


  **** Optimisation achieved ****


  Final energy =   -7727.39182234 eV
  Final Gnorm  =       0.00004110

  Components of energy : 

--------------------------------------------------------------------------------
  Interatomic potentials     =        2067.51279871 eV
  Three-body potentials      =           0.47865752 eV
  Monopole - monopole (real) =       -6617.69440362 eV
  Monopole - monopole (recip)=       -3171.22904684 eV
  Monopole - monopole (total)=       -9788.92345046 eV
  Neutralising energy        =          -6.45982811 eV
--------------------------------------------------------------------------------
  Total lattice energy       =       -7727.39182234 eV
--------------------------------------------------------------------------------
  Total lattice energy       =         -745575.1869 kJ/(mole unit cells)
--------------------------------------------------------------------------------

  Final fractional coordinates of atoms :

--------------------------------------------------------------------------------
   No.  Atomic        x           y          z          Radius
        Label       (Frac)      (Frac)     (Frac)       (Angs) 
--------------------------------------------------------------------------------
     1  Si    c     0.699600    0.375700    0.033890    0.000000
     2  Si    c     0.617605    0.306259    0.364561    0.000000
     3  Si    c     0.670984    0.286324    0.697592    0.000000
     4  Si    c     0.308035    0.617175    0.535221    0.000000
     5  Si    c     0.381184    0.668400    0.868844    0.000000
     6  Si    c     0.330864    0.695345    0.200767    0.000000
     7  Si    c     0.382266    0.684929    0.302661    0.000000
     8  Si    c     0.324341    0.613767    0.971159    0.000000
     9  Si    c     0.293455    0.670424    0.636920    0.000000
    10  Si    c     0.620691    0.291162    0.798225    0.000000
    11  Si    c     0.667237    0.355387    0.466857    0.000000
    12  Si    c     0.707395    0.320995    0.135811    0.000000
    13  Ge    c     0.529549    0.423897    0.965841    0.000000
    14  Si    c     0.582740    0.095468    0.301486    0.000000
    15  Si    c     0.878385    0.463396    0.632385    0.000000
    16  Si    c     0.473857    0.576584    0.470042    0.000000
    17  Si    c     0.418900    0.880441    0.802733    0.000000
    18  Si    c     0.119423    0.526416    0.135830    0.000000
    19  Ge    c     0.434451    0.516845    0.370966    0.000000
    20  Si    c     0.111788    0.577149    0.034446    0.000000
    21  Si    c     0.466565    0.878025    0.701366    0.000000
    22  Si    c     0.592603    0.459560    0.866467    0.000000
    23  Si    c     0.880160    0.404714    0.530034    0.000000
    24  Si    c     0.535495    0.106391    0.200317    0.000000
    25  Si    c     0.305605    0.387517    0.854051    0.000000
    26  Si    c     0.607335    0.897277    0.186401    0.000000
    27  Ge    c     0.095978    0.676269    0.525658    0.000000
    28  Si    c     0.706193    0.592917    0.348390    0.000000
    29  Si    c     0.393351    0.086558    0.685188    0.000000
    30  Si    c     0.904177    0.299930    0.020496    0.000000
    31  Si    c     0.389562    0.285084    0.481908    0.000000
    32  Si    c     0.909804    0.597820    0.150031    0.000000
    33  Si    c     0.697888    0.088289    0.815248    0.000000
    34  Si    c     0.607794    0.696046    0.988767    0.000000
    35  Si    c     0.090391    0.389263    0.649969    0.000000
    36  Si    c     0.304326    0.888871    0.316301    0.000000
    37  Si    c     0.250497    0.326024    0.956433    0.000000
    38  Si    c     0.662627    0.896076    0.287301    0.000000
    39  Si    c     0.080766    0.746645    0.621054    0.000000
    40  Si    c     0.751701    0.646371    0.451605    0.000000
    41  Si    c     0.339791    0.082009    0.786090    0.000000
    42  Si    c     0.917792    0.249710    0.121020    0.000000
    43  Si    c     0.331550    0.235371    0.379467    0.000000
    44  Si    c     0.911478    0.655047    0.048988    0.000000
    45  Si    c     0.744060    0.077354    0.714669    0.000000
    46  Si    c     0.666331    0.739435    0.885454    0.000000
    47  Si    c     0.089147    0.331467    0.548465    0.000000
    48  Si    c     0.259099    0.905424    0.215379    0.000000
    49  Si    c     0.966217    0.118281    0.969381    0.000000
    50  Si    c     0.887247    0.839362    0.300849    0.000000
    51  Si    c     0.145052    0.022112    0.636205    0.000000
    52  Si    c     0.032764    0.862374    0.469819    0.000000
    53  Si    c     0.121447    0.142899    0.803315    0.000000
    54  Si    c     0.856182    0.969529    0.136387    0.000000
    55  Si    c     0.122931    0.951784    0.367863    0.000000
    56  Si    c     0.852719    0.878582    0.035854    0.000000
    57  Si    c     0.023870    0.142075    0.702139    0.000000
    58  Si    c     0.878694    0.022027    0.868407    0.000000
    59  Si    c     0.143022    0.106121    0.533191    0.000000
    60  Si    c     0.980670    0.845435    0.200308    0.000000
    61  O2    c     0.930439    0.997042    0.001702    0.000000
    62  O2    c     0.003437    0.916983    0.335093    0.000000
    63  O2    c     0.071439    0.070119    0.668910    0.000000
    64  O2    c     0.061932    0.986633    0.500734    0.000000
    65  O2    c     0.002431    0.063060    0.836811    0.000000
    66  O2    c     0.938287    0.927317    0.168184    0.000000
    67  O3    c     0.346426    0.566456    0.334950    0.000000
    68  O2    c     0.414220    0.750546    0.670381    0.000000
    69  O2    c     0.237365    0.652188    0.001412    0.000000
    70  O2    c     0.662274    0.417881    0.828180    0.000000
    71  O2    c     0.585273    0.234701    0.168446    0.000000
    72  O2    c     0.751202    0.316115    0.500317    0.000000
    73  O3    c     0.580869    0.337806    0.001984    0.000000
    74  O2    c     0.752606    0.409200    0.664230    0.000000
    75  O2    c     0.657016    0.220455    0.334164    0.000000
    76  O2    c     0.438337    0.647565    0.509616    0.000000
    77  O2    c     0.245709    0.574329    0.167756    0.000000
    78  O2    c     0.344466    0.755053    0.835844    0.000000
    79  O2    c     0.118269    0.207470    0.974449    0.000000
    80  O2    c     0.789259    0.894522    0.307048    0.000000
    81  O2    c     0.082027    0.868951    0.645684    0.000000
    82  O2    c     0.878286    0.763875    0.473708    0.000000
    83  O2    c     0.213626    0.079746    0.806901    0.000000
    84  O2    c     0.917683    0.122926    0.141915    0.000000
    85  O2    c     0.213653    0.104138    0.361096    0.000000
    86  O2    c     0.909630    0.782319    0.029119    0.000000
    87  O2    c     0.870276    0.075788    0.695610    0.000000
    88  O2    c     0.788186    0.867751    0.864404    0.000000
    89  O2    c     0.086769    0.205029    0.528631    0.000000
    90  O2    c     0.133576    0.906641    0.194404    0.000000
    91  O2    c     0.943348    0.860720    0.250745    0.000000
    92  O2    c     0.128255    0.056946    0.584960    0.000000
    93  O2    c     0.927119    0.065684    0.918719    0.000000
    94  O2    c     0.064787    0.131301    0.753070    0.000000
    95  O2    c     0.871971    0.932956    0.085852    0.000000
    96  O2    c     0.070208    0.915530    0.418567    0.000000
    97  O2    c     0.897524    0.200615    0.981564    0.000000
    98  O2    c     0.816155    0.686717    0.312396    0.000000
    99  O2    c     0.297156    0.090225    0.646749    0.000000
   100  O3    c     0.107974    0.791694    0.484015    0.000000
   101  O2    c     0.206558    0.293741    0.815517    0.000000
   102  O2    c     0.705200    0.897834    0.148247    0.000000
   103  O2    c     0.204581    0.881968    0.355098    0.000000
   104  O2    c     0.700924    0.806612    0.024050    0.000000
   105  O2    c     0.087798    0.294026    0.690023    0.000000
   106  O2    c     0.797652    0.091648    0.853382    0.000000
   107  O2    c     0.294073    0.187197    0.520755    0.000000
   108  O2    c     0.909458    0.694279    0.188287    0.000000
   109  O2    c     0.331878    0.637124    0.250793    0.000000
   110  O2    c     0.349154    0.670503    0.587189    0.000000
   111  O2    c     0.326339    0.663907    0.919055    0.000000
   112  O2    c     0.674165    0.344757    0.747317    0.000000
   113  O2    c     0.651288    0.324050    0.085745    0.000000
   114  O2    c     0.665650    0.304160    0.416441    0.000000
   115  O3    c     0.363594    0.306895    0.975295    0.000000
   116  O2    c     0.673209    0.029303    0.305434    0.000000
   117  O2    c     0.946616    0.618718    0.636054    0.000000
   118  O2    c     0.630712    0.657955    0.469911    0.000000
   119  O2    c     0.332097    0.950233    0.805489    0.000000
   120  O2    c     0.050404    0.370004    0.139273    0.000000
   121  O3    c     0.316436    0.351518    0.360832    0.000000
   122  O2    c     0.045052    0.667344    0.030359    0.000000
   123  O2    c     0.622003    0.945104    0.697029    0.000000
   124  O2    c     0.675380    0.618020    0.866061    0.000000
   125  O2    c     0.957831    0.324455    0.530591    0.000000
   126  O2    c     0.379773    0.038329    0.196583    0.000000
   127  O2    c     0.771476    0.301039    0.013534    0.000000
   128  O2    c     0.696235    0.452024    0.344720    0.000000
   129  O2    c     0.527386    0.218142    0.676130    0.000000
   130  O3    c     0.246342    0.691886    0.509970    0.000000
   131  O2    c     0.310277    0.525025    0.847974    0.000000
   132  O2    c     0.473441    0.765350    0.178132    0.000000
   133  O2    c     0.306126    0.755708    0.322637    0.000000
   134  O2    c     0.469166    0.691043    0.990901    0.000000
   135  O2    c     0.221148    0.523694    0.656684    0.000000
   136  O2    c     0.695082    0.221350    0.821236    0.000000
   137  O2    c     0.523567    0.283565    0.487479    0.000000
   138  O2    c     0.777737    0.463555    0.158095    0.000000
   139  O2    c     0.787541    0.532200    0.028698    0.000000
   140  O2    c     0.464080    0.244263    0.361472    0.000000
   141  O2    c     0.745751    0.204093    0.693476    0.000000
   142  O2    c     0.215132    0.460284    0.532108    0.000000
   143  O2    c     0.535156    0.732387    0.867472    0.000000
   144  O2    c     0.257753    0.779092    0.196160    0.000000
   145  O2    c     0.538233    0.772484    0.307417    0.000000
   146  O2    c     0.261402    0.459438    0.974328    0.000000
   147  O2    c     0.203713    0.736133    0.640199    0.000000
   148  O2    c     0.465339    0.209290    0.803820    0.000000
   149  O2    c     0.733331    0.509596    0.469311    0.000000
   150  O2    c     0.791741    0.248636    0.140163    0.000000
   151  O2    c     0.239374    0.317700    0.901104    0.000000
   152  O2    c     0.680299    0.896694    0.232895    0.000000
   153  O3    c     0.087475    0.777591    0.568617    0.000000
   154  O2    c     0.766804    0.660089    0.397327    0.000000
   155  O2    c     0.320681    0.083357    0.731742    0.000000
   156  O2    c     0.914464    0.229689    0.066683    0.000000
   157  O2    c     0.320192    0.222177    0.434811    0.000000
   158  O2    c     0.910733    0.671835    0.103301    0.000000
   159  O2    c     0.765508    0.081406    0.768881    0.000000
   160  O2    c     0.679118    0.752877    0.939575    0.000000
   161  O2    c     0.088708    0.320135    0.603308    0.000000
   162  O2    c     0.237459    0.900758    0.269647    0.000000
   163  O3    c     0.599586    0.563976    0.001542    0.000000
   164  O2    c     0.442974    0.014150    0.325594    0.000000
   165  O2    c     0.969177    0.411232    0.654093    0.000000
   166  O2    c     0.414304    0.428397    0.489684    0.000000
   167  O2    c     0.560273    0.962432    0.825215    0.000000
   168  O2    c     0.036141    0.584446    0.158718    0.000000
   169  O3    c     0.576800    0.590696    0.336306    0.000000
   170  O2    c     0.030972    0.437652    0.010355    0.000000
   171  O2    c     0.406256    0.959754    0.677208    0.000000
   172  O2    c     0.446601    0.406616    0.846551    0.000000
   173  O3    c     0.954608    0.540375    0.504781    0.000000
   174  O2    c     0.595034    0.024648    0.177096    0.000000
   175  O2    c     0.586460    0.157228    0.251420    0.000000
   176  O2    c     0.832362    0.412783    0.581344    0.000000
   177  O3    c     0.600232    0.402571    0.914384    0.000000
   178  O2    c     0.416267    0.824880    0.752496    0.000000
   179  O2    c     0.171387    0.579195    0.084541    0.000000
   180  O3    c     0.415847    0.587313    0.422686    0.000000
   181  F     c     0.461406    0.902693    0.250675    0.000000
   182  F     c     0.090006    0.566702    0.574088    0.000000
   183  F     c     0.475111    0.516180    0.928299    0.000000
   184  F     c     0.544935    0.083818    0.749411    0.000000
   185  F     c     0.916772    0.453454    0.084312    0.000000
   186  F     c     0.523563    0.456972    0.407936    0.000000
   187  O2    s     0.925735    0.997581    0.001840    0.000000
   188  O2    s     0.003711    0.912054    0.334901    0.000000
   189  O2    s     0.074235    0.073024    0.669063    0.000000
   190  O2    s     0.068112    0.987711    0.501308    0.000000
   191  O2    s     0.002259    0.067478    0.836503    0.000000
   192  O2    s     0.933740    0.922838    0.168203    0.000000
   193  O3    s     0.356493    0.576036    0.333919    0.000000
   194  O2    s     0.406944    0.755247    0.670058    0.000000
   195  O2    s     0.234412    0.640705    0.001376    0.000000
   196  O2    s     0.650932    0.408721    0.828836    0.000000
   197  O2    s     0.592771    0.230515    0.168327    0.000000
   198  O2    s     0.755367    0.328946    0.499830    0.000000
   199  O3    s     0.590134    0.348000    0.002892    0.000000
   200  O2    s     0.757386    0.402184    0.664337    0.000000
   201  O2    s     0.645374    0.217274    0.334210    0.000000
   202  O2    s     0.427938    0.637178    0.508412    0.000000
   203  O2    s     0.241366    0.581681    0.167827    0.000000
   204  O2    s     0.355973    0.758759    0.835938    0.000000
   205  O2    s     0.115817    0.210582    0.971907    0.000000
   206  O2    s     0.786660    0.888816    0.304391    0.000000
   207  O2    s     0.088495    0.872788    0.642293    0.000000
   208  O2    s     0.880191    0.761205    0.470998    0.000000
   209  O2    s     0.216895    0.086705    0.804387    0.000000
   210  O2    s     0.911091    0.119631    0.139178    0.000000
   211  O2    s     0.216652    0.101768    0.363849    0.000000
   212  O2    s     0.903726    0.779620    0.031834    0.000000
   213  O2    s     0.873615    0.082982    0.698238    0.000000
   214  O2    s     0.785213    0.870837    0.866961    0.000000
   215  O2    s     0.092859    0.208311    0.531200    0.000000
   216  O2    s     0.130096    0.899948    0.197168    0.000000
   217  O2    s     0.941139    0.856531    0.250769    0.000000
   218  O2    s     0.131769    0.058439    0.585066    0.000000
   219  O2    s     0.925796    0.066399    0.918446    0.000000
   220  O2    s     0.066465    0.133800    0.752897    0.000000
   221  O2    s     0.867951    0.930761    0.085738    0.000000
   222  O2    s     0.072074    0.913861    0.418411    0.000000
   223  O2    s     0.905653    0.201457    0.984065    0.000000
   224  O2    s     0.812469    0.693139    0.314839    0.000000
   225  O2    s     0.291060    0.082666    0.649615    0.000000
   226  O3    s     0.098637    0.791716    0.485280    0.000000
   227  O2    s     0.207613    0.287374    0.818114    0.000000
   228  O2    s     0.711407    0.905411    0.150830    0.000000
   229  O2    s     0.205882    0.890035    0.352586    0.000000
   230  O2    s     0.707180    0.802819    0.021663    0.000000
   231  O2    s     0.081353    0.288207    0.687034    0.000000
   232  O2    s     0.795842    0.083837    0.850967    0.000000
   233  O2    s     0.287985    0.188662    0.518113    0.000000
   234  O2    s     0.917032    0.700447    0.185659    0.000000
   235  O2    s     0.336729    0.647924    0.250626    0.000000
   236  O2    s     0.339139    0.665274    0.587408    0.000000
   237  O2    s     0.331982    0.659373    0.918907    0.000000
   238  O2    s     0.668321    0.333122    0.747381    0.000000
   239  O2    s     0.661975    0.328885    0.085838    0.000000
   240  O2    s     0.660979    0.309859    0.416626    0.000000
   241  O3    s     0.362422    0.316746    0.972591    0.000000
   242  O2    s     0.662818    0.022548    0.303170    0.000000
   243  O2    s     0.952813    0.615211    0.634170    0.000000
   244  O2    s     0.627743    0.648612    0.467983    0.000000
   245  O2    s     0.341957    0.956714    0.803165    0.000000
   246  O2    s     0.043633    0.373470    0.137001    0.000000
   247  O3    s     0.325915    0.349854    0.363567    0.000000
   248  O2    s     0.038362    0.656854    0.032673    0.000000
   249  O2    s     0.618815    0.952022    0.699318    0.000000
   250  O2    s     0.666468    0.615539    0.868146    0.000000
   251  O2    s     0.963926    0.333401    0.532455    0.000000
   252  O2    s     0.383160    0.031473    0.198929    0.000000
   253  O2    s     0.778967    0.308354    0.016365    0.000000
   254  O2    s     0.688958    0.450956    0.347213    0.000000
   255  O2    s     0.528224    0.211364    0.679353    0.000000
   256  O3    s     0.242203    0.682923    0.513762    0.000000
   257  O2    s     0.317190    0.525682    0.850790    0.000000
   258  O2    s     0.472985    0.772067    0.181322    0.000000
   259  O2    s     0.313501    0.763277    0.319913    0.000000
   260  O2    s     0.467913    0.683424    0.988573    0.000000
   261  O2    s     0.214531    0.524345    0.653915    0.000000
   262  O2    s     0.687690    0.214358    0.818190    0.000000
   263  O2    s     0.524676    0.291262    0.484721    0.000000
   264  O2    s     0.784443    0.463113    0.154946    0.000000
   265  O2    s     0.792622    0.530094    0.031422    0.000000
   266  O2    s     0.467268    0.250268    0.363637    0.000000
   267  O2    s     0.737785    0.198972    0.696137    0.000000
   268  O2    s     0.210185    0.461398    0.534205    0.000000
   269  O2    s     0.532564    0.726191    0.869521    0.000000
   270  O2    s     0.265658    0.784161    0.198707    0.000000
   271  O2    s     0.536462    0.777688    0.304728    0.000000
   272  O2    s     0.267273    0.462463    0.972154    0.000000
   273  O2    s     0.200664    0.730066    0.637905    0.000000
   274  O2    s     0.467753    0.203849    0.801345    0.000000
   275  O2    s     0.728024    0.507450    0.467174    0.000000
   276  O2    s     0.796761    0.256470    0.137634    0.000000
   277  O2    s     0.247736    0.326153    0.901458    0.000000
   278  O2    s     0.670775    0.896704    0.233732    0.000000
   279  O3    s     0.087286    0.767578    0.571421    0.000000
   280  O2    s     0.759197    0.652032    0.398450    0.000000
   281  O2    s     0.330278    0.083544    0.732659    0.000000
   282  O2    s     0.913779    0.239105    0.067546    0.000000
   283  O2    s     0.328895    0.230381    0.434482    0.000000
   284  O2    s     0.910728    0.662311    0.102445    0.000000
   285  O2    s     0.756072    0.081693    0.767941    0.000000
   286  O2    s     0.670851    0.745877    0.938332    0.000000
   287  O2    s     0.088932    0.328701    0.602600    0.000000
   288  O2    s     0.246676    0.900042    0.268779    0.000000
   289  O3    s     0.595634    0.569229    0.997793    0.000000
   290  O2    s     0.442792    0.009241    0.322141    0.000000
   291  O2    s     0.973117    0.414423    0.651338    0.000000
   292  O2    s     0.417479    0.427063    0.486891    0.000000
   293  O2    s     0.560073    0.967331    0.821792    0.000000
   294  O2    s     0.031084    0.579661    0.155386    0.000000
   295  O3    s     0.581315    0.585777    0.339936    0.000000
   296  O2    s     0.025875    0.437546    0.013881    0.000000
   297  O2    s     0.411319    0.964931    0.680576    0.000000
   298  O2    s     0.445302    0.409799    0.849336    0.000000
   299  O3    s     0.956935    0.535815    0.508864    0.000000
   300  O2    s     0.590012    0.019340    0.180500    0.000000
   301  O2    s     0.580803    0.145592    0.251327    0.000000
   302  O2    s     0.841996    0.417430    0.581725    0.000000
   303  O3    s     0.594963    0.410031    0.912493    0.000000
   304  O2    s     0.421793    0.836209    0.752408    0.000000
   305  O2    s     0.159922    0.573599    0.084570    0.000000
   306  O3    s     0.423117    0.581699    0.424376    0.000000
   307  F     s     0.461808    0.903473    0.250609    0.000000
   308  F     s     0.090289    0.573835    0.571027    0.000000
   309  F     s     0.479119    0.509843    0.930819    0.000000
   310  F     s     0.545027    0.083813    0.749326    0.000000
   311  F     s     0.917535    0.453802    0.084217    0.000000
   312  F     s     0.517515    0.461229    0.405492    0.000000
--------------------------------------------------------------------------------

  Final Cartesian lattice vectors (Angstroms) :

       11.963570    0.012844   -0.004552
       -5.879825   10.375277    0.016013
       -0.292788    0.371291   29.446062


  Final cell parameters and derivatives :

--------------------------------------------------------------------------------
       a           11.963577 Angstrom     dE/de1(xx)     0.001819 eV/strain
       b           11.925560 Angstrom     dE/de2(yy)     0.001775 eV/strain
       c           29.449858 Angstrom     dE/de3(zz)     0.004502 eV/strain
       alpha       89.013720 Degrees      dE/de4(yz)    -0.000450 eV/strain
       beta        90.590659 Degrees      dE/de5(xz)     0.000731 eV/strain
       gamma      119.479367 Degrees      dE/de6(xy)    -0.000902 eV/strain
--------------------------------------------------------------------------------

  Primitive cell volume =          3657.151478 Angs**3

  Density of cell =      1.749474 g/cm**3

  Non-primitive cell volume =          3657.151478 Angs**3


  Final internal derivatives :

--------------------------------------------------------------------------------
   No.  Atomic          a             b             c           Radius
        Label          (eV)          (eV)          (eV)        (eV/Angs)
--------------------------------------------------------------------------------
      1 Si    c       0.000000      0.000000      0.000000      0.000000
      2 Si    c       0.000569      0.001639      0.000739      0.000000
      3 Si    c       0.000978      0.001206     -0.000271      0.000000
      4 Si    c      -0.000339     -0.000153     -0.000339      0.000000
      5 Si    c      -0.000466     -0.000179     -0.001369      0.000000
      6 Si    c      -0.000646     -0.000920      0.000742      0.000000
      7 Si    c      -0.000759     -0.001294      0.001071      0.000000
      8 Si    c      -0.000164      0.000155     -0.001644      0.000000
      9 Si    c       0.001007     -0.001015     -0.000976      0.000000
     10 Si    c       0.000515      0.000709     -0.000959      0.000000
     11 Si    c       0.001025      0.001489     -0.001518      0.000000
     12 Si    c      -0.000095     -0.000790      0.000292      0.000000
     13 Ge    c      -0.000964      0.001744      0.000129      0.000000
     14 Si    c       0.000555      0.000827     -0.000536      0.000000
     15 Si    c       0.000434     -0.000025     -0.001558      0.000000
     16 Si    c      -0.000713      0.000099      0.001856      0.000000
     17 Si    c      -0.001088     -0.001730      0.000136      0.000000
     18 Si    c      -0.000472     -0.000074      0.000174      0.000000
     19 Ge    c      -0.001037      0.000036     -0.001141      0.000000
     20 Si    c       0.000253      0.000073      0.000957      0.000000
     21 Si    c       0.000786     -0.000576      0.001094      0.000000
     22 Si    c      -0.000942      0.000803      0.001385      0.000000
     23 Si    c       0.000078     -0.000873      0.001250      0.000000
     24 Si    c      -0.000376      0.000995     -0.003745      0.000000
     25 Si    c       0.000482     -0.000382     -0.000039      0.000000
     26 Si    c       0.000189      0.000028      0.000215      0.000000
     27 Ge    c      -0.000769      0.000583     -0.002173      0.000000
     28 Si    c      -0.000502     -0.000273     -0.000892      0.000000
     29 Si    c      -0.000449     -0.000191     -0.000115      0.000000
     30 Si    c      -0.000979     -0.000010      0.000734      0.000000
     31 Si    c       0.001035      0.001026     -0.000351      0.000000
     32 Si    c       0.000007      0.000046     -0.000674      0.000000
     33 Si    c       0.000964      0.000392     -0.000248      0.000000
     34 Si    c       0.000879     -0.000907     -0.000847      0.000000
     35 Si    c      -0.000067     -0.001079      0.001080      0.000000
     36 Si    c      -0.000631      0.000746      0.001277      0.000000
     37 Si    c       0.001936     -0.000121     -0.000894      0.000000
     38 Si    c       0.000836      0.000291      0.000263      0.000000
     39 Si    c      -0.000470      0.000421      0.002220      0.000000
     40 Si    c       0.000052     -0.000343     -0.001582      0.000000
     41 Si    c      -0.000536     -0.000734     -0.000935      0.000000
     42 Si    c      -0.001203     -0.000722      0.001045      0.000000
     43 Si    c       0.001411      0.000539      0.000853      0.000000
     44 Si    c       0.000139      0.002683     -0.000320      0.000000
     45 Si    c       0.001185      0.000348      0.000930      0.000000
     46 Si    c       0.000681     -0.001378      0.000282      0.000000
     47 Si    c      -0.000079     -0.000318      0.001571      0.000000
     48 Si    c      -0.001576     -0.000659      0.000674      0.000000
     49 Si    c      -0.000765     -0.002166     -0.000784      0.000000
     50 Si    c      -0.000039     -0.000453      0.001790      0.000000
     51 Si    c      -0.000375      0.000204     -0.000074      0.000000
     52 Si    c       0.001829      0.001351     -0.000987      0.000000
     53 Si    c      -0.000194     -0.000069      0.001845      0.000000
     54 Si    c       0.000187     -0.000212      0.001949      0.000000
     55 Si    c       0.000096     -0.000489     -0.000208      0.000000
     56 Si    c       0.001252      0.000055      0.000608      0.000000
     57 Si    c       0.000748      0.001012      0.000641      0.000000
     58 Si    c       0.000254     -0.000689     -0.003211      0.000000
     59 Si    c       0.000481      0.000470      0.002089      0.000000
     60 Si    c      -0.000338     -0.000398     -0.002622      0.000000
     61 O2    c       0.001277      0.000164     -0.002323      0.000000
     62 O2    c       0.000133      0.000119     -0.001967      0.000000
     63 O2    c       0.000134      0.000107     -0.000443      0.000000
     64 O2    c       0.000399     -0.000047     -0.001106      0.000000
     65 O2    c      -0.000641      0.000223      0.000313      0.000000
     66 O2    c      -0.000095      0.000567     -0.001087      0.000000
     67 O3    c       0.000858     -0.000175      0.002549      0.000000
     68 O2    c       0.000517     -0.000547     -0.001548      0.000000
     69 O2    c      -0.000619     -0.000026      0.000952      0.000000
     70 O2    c      -0.000196     -0.000337     -0.001438      0.000000
     71 O2    c      -0.000463      0.000072      0.002102      0.000000
     72 O2    c      -0.000681     -0.000219      0.000279      0.000000
     73 O3    c      -0.000544      0.000084      0.002820      0.000000
     74 O2    c       0.000111     -0.000083      0.002268      0.000000
     75 O2    c      -0.000947      0.000401      0.000929      0.000000
     76 O2    c       0.000224     -0.000222      0.000986      0.000000
     77 O2    c      -0.000601      0.000345     -0.001080      0.000000
     78 O2    c       0.000393      0.000084     -0.001851      0.000000
     79 O2    c       0.000398     -0.000757      0.000138      0.000000
     80 O2    c      -0.000448      0.000084     -0.001145      0.000000
     81 O2    c       0.000162     -0.000165      0.000121      0.000000
     82 O2    c      -0.000487     -0.000120     -0.000508      0.000000
     83 O2    c       0.000429      0.000295      0.001083      0.000000
     84 O2    c      -0.000531      0.000701     -0.001213      0.000000
     85 O2    c       0.000543     -0.000048      0.000522      0.000000
     86 O2    c      -0.000078     -0.000573      0.000752      0.000000
     87 O2    c      -0.000835      0.000134     -0.000113      0.000000
     88 O2    c       0.000481      0.000026     -0.000011      0.000000
     89 O2    c       0.000336      0.000109     -0.000989      0.000000
     90 O2    c      -0.000060      0.000178     -0.000073      0.000000
     91 O2    c      -0.000369      0.000632      0.001011      0.000000
     92 O2    c      -0.000187      0.000274     -0.004282      0.000000
     93 O2    c       0.001470     -0.000680      0.003861      0.000000
     94 O2    c      -0.000726      0.000401     -0.000301      0.000000
     95 O2    c       0.000322     -0.000757     -0.000184      0.000000
     96 O2    c       0.000331     -0.000533      0.002542      0.000000
     97 O2    c      -0.000128      0.001376      0.002884      0.000000
     98 O2    c      -0.000332      0.000584      0.001142      0.000000
     99 O2    c       0.000796      0.000357     -0.000393      0.000000
    100 O3    c      -0.000483     -0.001365      0.008152      0.000000
    101 O2    c      -0.000187      0.000304     -0.000384      0.000000
    102 O2    c      -0.000321     -0.000429      0.000437      0.000000
    103 O2    c      -0.000109      0.000572      0.000140      0.000000
    104 O2    c       0.000082     -0.000714     -0.001555      0.000000
    105 O2    c      -0.000189      0.000196     -0.002971      0.000000
    106 O2    c      -0.000786      0.000039      0.000854      0.000000
    107 O2    c       0.000275      0.000533     -0.000992      0.000000
    108 O2    c      -0.000418      0.000464     -0.001615      0.000000
    109 O2    c       0.000351     -0.000098     -0.003380      0.000000
    110 O2    c       0.001339     -0.000832     -0.001897      0.000000
    111 O2    c      -0.000936      0.001131      0.001125      0.000000
    112 O2    c      -0.000237     -0.000056      0.001665      0.000000
    113 O2    c      -0.000016      0.000314      0.001757      0.000000
    114 O2    c       0.000671     -0.000796     -0.001968      0.000000
    115 O3    c      -0.001333     -0.000600      0.003175      0.000000
    116 O2    c      -0.000482     -0.000021      0.000550      0.000000
    117 O2    c      -0.000824      0.000587      0.001723      0.000000
    118 O2    c       0.000358      0.000860     -0.000069      0.000000
    119 O2    c       0.000195      0.000613      0.000036      0.000000
    120 O2    c       0.000172      0.000169      0.000818      0.000000
    121 O3    c      -0.000296     -0.000277      0.001001      0.000000
    122 O2    c      -0.000608      0.000263      0.000515      0.000000
    123 O2    c       0.000594     -0.000562     -0.000296      0.000000
    124 O2    c       0.000014      0.000645     -0.001607      0.000000
    125 O2    c      -0.000409      0.000034     -0.000255      0.000000
    126 O2    c      -0.000710      0.000545     -0.000929      0.000000
    127 O2    c      -0.000434      0.000722      0.000929      0.000000
    128 O2    c      -0.000057      0.000918     -0.000918      0.000000
    129 O2    c       0.000256      0.000416     -0.000270      0.000000
    130 O3    c      -0.000655     -0.000336     -0.001689      0.000000
    131 O2    c      -0.000485      0.000029     -0.001277      0.000000
    132 O2    c       0.000078     -0.000837     -0.001675      0.000000
    133 O2    c       0.000298      0.000385      0.001781      0.000000
    134 O2    c      -0.000223      0.000524      0.000658      0.000000
    135 O2    c       0.001009      0.000063     -0.000952      0.000000
    136 O2    c      -0.000515     -0.000138      0.000148      0.000000
    137 O2    c      -0.000366      0.000209      0.001858      0.000000
    138 O2    c      -0.000788      0.000797      0.002010      0.000000
    139 O2    c      -0.001204      0.000986     -0.001625      0.000000
    140 O2    c      -0.001092     -0.000269     -0.001984      0.000000
    141 O2    c      -0.000028     -0.000193      0.001215      0.000000
    142 O2    c       0.000659     -0.000213      0.000100      0.000000
    143 O2    c       0.000059      0.000240     -0.001514      0.000000
    144 O2    c      -0.000363      0.000145     -0.000888      0.000000
    145 O2    c       0.000459     -0.000611      0.002086      0.000000
    146 O2    c      -0.000762      0.001206      0.002550      0.000000
    147 O2    c       0.000157      0.000837      0.002008      0.000000
    148 O2    c      -0.000355      0.000526      0.001274      0.000000
    149 O2    c       0.000863      0.001000      0.000197      0.000000
    150 O2    c      -0.000225     -0.000139      0.001451      0.000000
    151 O2    c       0.000127     -0.001005      0.000948      0.000000
    152 O2    c       0.000353     -0.000543     -0.000356      0.000000
    153 O3    c      -0.000907      0.000946     -0.008215      0.000000
    154 O2    c       0.000307      0.000387      0.001427      0.000000
    155 O2    c       0.000153      0.000080      0.002848      0.000000
    156 O2    c       0.000214     -0.000554     -0.001483      0.000000
    157 O2    c      -0.000626     -0.000483     -0.001985      0.000000
    158 O2    c      -0.000963      0.000030     -0.000057      0.000000
    159 O2    c       0.000028     -0.000667      0.000011      0.000000
    160 O2    c       0.001136     -0.000440     -0.001802      0.000000
    161 O2    c       0.000404     -0.000242     -0.001385      0.000000
    162 O2    c      -0.000434      0.000817     -0.003204      0.000000
    163 O3    c       0.002273     -0.000027      0.007737      0.000000
    164 O2    c      -0.000586      0.000742      0.001495      0.000000
    165 O2    c      -0.000213      0.000135      0.000812      0.000000
    166 O2    c       0.000014      0.000479      0.001141      0.000000
    167 O2    c       0.000161     -0.000338      0.000235      0.000000
    168 O2    c      -0.000381     -0.000260      0.000611      0.000000
    169 O3    c      -0.000533      0.000050      0.002804      0.000000
    170 O2    c       0.000383     -0.000122     -0.002039      0.000000
    171 O2    c       0.000041      0.000077      0.001153      0.000000
    172 O2    c      -0.000016      0.000032     -0.002363      0.000000
    173 O3    c      -0.000674     -0.000493      0.001889      0.000000
    174 O2    c      -0.000484     -0.000048      0.000493      0.000000
    175 O2    c      -0.000674      0.000346      0.004575      0.000000
    176 O2    c      -0.000031     -0.000094      0.001377      0.000000
    177 O3    c      -0.000680      0.000553     -0.005098      0.000000
    178 O2    c       0.000618      0.000007     -0.000773      0.000000
    179 O2    c       0.000379      0.000337     -0.001255      0.000000
    180 O3    c       0.000095      0.000912     -0.003179      0.000000
    181 F     c      -0.000173      0.000356     -0.000146      0.000000
    182 F     c       0.000132     -0.000039     -0.000540      0.000000
    183 F     c       0.000453     -0.000760      0.000516      0.000000
    184 F     c       0.000169     -0.000123     -0.000350      0.000000
    185 F     c      -0.000983      0.000302     -0.000430      0.000000
    186 F     c      -0.000811      0.000939     -0.000506      0.000000
    187 O2    s      -0.002072      0.001064      0.000676      0.000000
    188 O2    s      -0.001335      0.000262      0.001767      0.000000
    189 O2    s       0.000374      0.000569      0.000241      0.000000
    190 O2    s       0.001115     -0.001259     -0.002237      0.000000
    191 O2    s      -0.000856      0.000099      0.000220      0.000000
    192 O2    s      -0.000034      0.001484      0.000672      0.000000
    193 O3    s      -0.001129      0.000093     -0.002570      0.000000
    194 O2    s      -0.001140      0.001026      0.000401      0.000000
    195 O2    s       0.000275      0.000048      0.000700      0.000000
    196 O2    s       0.000213     -0.000342     -0.000325      0.000000
    197 O2    s      -0.001063     -0.000755     -0.001664      0.000000
    198 O2    s      -0.000230      0.001106     -0.001813      0.000000
    199 O3    s       0.001268      0.000798     -0.003630      0.000000
    200 O2    s       0.000043     -0.001198      0.000760      0.000000
    201 O2    s       0.000544      0.001196     -0.002885      0.000000
    202 O2    s      -0.000132      0.000622     -0.002953      0.000000
    203 O2    s      -0.000981      0.000291      0.002381      0.000000
    204 O2    s      -0.000334      0.000430      0.001115      0.000000
    205 O2    s      -0.001131      0.001671     -0.000477      0.000000
    206 O2    s       0.000068      0.000731      0.000523      0.000000
    207 O2    s       0.000624     -0.000414     -0.001734      0.000000
    208 O2    s      -0.001298      0.000976     -0.002397      0.000000
    209 O2    s      -0.000278     -0.000321     -0.002790      0.000000
    210 O2    s      -0.000981      0.000409      0.000700      0.000000
    211 O2    s      -0.000404      0.000382     -0.000417      0.000000
    212 O2    s       0.000712      0.000318     -0.000522      0.000000
    213 O2    s      -0.000462      0.000271     -0.000493      0.000000
    214 O2    s      -0.001704      0.000877      0.000617      0.000000
    215 O2    s      -0.000150     -0.000435     -0.000149      0.000000
    216 O2    s       0.000036      0.000073     -0.001104      0.000000
    217 O2    s      -0.000166      0.001014      0.000968      0.000000
    218 O2    s       0.001986      0.000743      0.002970      0.000000
    219 O2    s      -0.001509      0.001371     -0.001665      0.000000
    220 O2    s       0.002452     -0.000620     -0.000390      0.000000
    221 O2    s      -0.000942      0.002188     -0.000783      0.000000
    222 O2    s      -0.000232      0.000606      0.000025      0.000000
    223 O2    s      -0.000276     -0.001078     -0.003010      0.000000
    224 O2    s      -0.001845      0.000825     -0.000284      0.000000
    225 O2    s       0.000559     -0.000569      0.002514      0.000000
    226 O3    s       0.000499     -0.000552     -0.008140      0.000000
    227 O2    s       0.000061      0.000096     -0.000343      0.000000
    228 O2    s      -0.000535      0.000396     -0.000163      0.000000
    229 O2    s      -0.000433     -0.000157     -0.000370      0.000000
    230 O2    s      -0.002056      0.001867      0.000349      0.000000
    231 O2    s       0.000560      0.000354      0.000048      0.000000
    232 O2    s      -0.000268      0.000433     -0.001531      0.000000
    233 O2    s       0.000228      0.001078      0.000480      0.000000
    234 O2    s      -0.001098      0.000139      0.001988      0.000000
    235 O2    s      -0.002108     -0.000469      0.002461      0.000000
    236 O2    s      -0.000263      0.001582      0.003783      0.000000
    237 O2    s      -0.001506      0.000973     -0.000474      0.000000
    238 O2    s       0.001121      0.000663     -0.001608      0.000000
    239 O2    s      -0.000762     -0.000827     -0.001635      0.000000
    240 O2    s       0.002383      0.000361      0.001235      0.000000
    241 O3    s       0.000989     -0.000019     -0.002382      0.000000
    242 O2    s      -0.000179      0.000741     -0.002342      0.000000
    243 O2    s       0.000520     -0.000189     -0.001991      0.000000
    244 O2    s       0.000506      0.000529     -0.003033      0.000000
    245 O2    s      -0.000260     -0.000916     -0.000068      0.000000
    246 O2    s       0.000609     -0.000242      0.004236      0.000000
    247 O3    s       0.000291      0.000250     -0.000580      0.000000
    248 O2    s       0.000529     -0.000581     -0.000442      0.000000
    249 O2    s      -0.000600      0.000214      0.000318      0.000000
    250 O2    s       0.000257     -0.000263     -0.000112      0.000000
    251 O2    s      -0.000995     -0.000503     -0.000484      0.000000
    252 O2    s       0.000594      0.000294     -0.001227      0.000000
    253 O2    s      -0.000521      0.000223     -0.000549      0.000000
    254 O2    s      -0.000154      0.000629     -0.003231      0.000000
    255 O2    s      -0.000305      0.000393     -0.001383      0.000000
    256 O3    s       0.000633     -0.000106      0.000541      0.000000
    257 O2    s      -0.001118      0.000524     -0.000942      0.000000
    258 O2    s      -0.000136      0.000114     -0.001787      0.000000
    259 O2    s      -0.000243     -0.000392     -0.001829      0.000000
    260 O2    s       0.000357      0.000939      0.002948      0.000000
    261 O2    s      -0.000133      0.000869      0.001854      0.000000
    262 O2    s      -0.000015      0.000375      0.000331      0.000000
    263 O2    s      -0.000025      0.000870      0.000919      0.000000
    264 O2    s      -0.001151      0.001037     -0.001466      0.000000
    265 O2    s       0.001229     -0.002720      0.000935      0.000000
    266 O2    s      -0.000854      0.000966     -0.000855      0.000000
    267 O2    s       0.000559      0.000639      0.001295      0.000000
    268 O2    s      -0.000339     -0.000013     -0.001939      0.000000
    269 O2    s      -0.000541      0.000792      0.000528      0.000000
    270 O2    s      -0.000433     -0.000637      0.001173      0.000000
    271 O2    s      -0.000135     -0.000315      0.001179      0.000000
    272 O2    s      -0.001166      0.000016     -0.000234      0.000000
    273 O2    s       0.000016      0.000035     -0.001569      0.000000
    274 O2    s      -0.000411      0.000760      0.002228      0.000000
    275 O2    s       0.000283     -0.000043     -0.000013      0.000000
    276 O2    s      -0.000283     -0.000995     -0.002704      0.000000
    277 O2    s      -0.001256     -0.000028      0.000467      0.000000
    278 O2    s      -0.000043      0.001358      0.000238      0.000000
    279 O3    s       0.001189     -0.000413      0.004566      0.000000
    280 O2    s      -0.000660      0.002701      0.000672      0.000000
    281 O2    s      -0.001494     -0.000192     -0.002266      0.000000
    282 O2    s      -0.001213     -0.000970     -0.000654      0.000000
    283 O2    s      -0.001012      0.000772      0.000470      0.000000
    284 O2    s       0.000710      0.000085     -0.000932      0.000000
    285 O2    s      -0.000001      0.001782      0.000679      0.000000
    286 O2    s      -0.001202      0.003157      0.000709      0.000000
    287 O2    s      -0.000645     -0.000982      0.000419      0.000000
    288 O2    s      -0.000306     -0.000869      0.002877      0.000000
    289 O3    s      -0.001821      0.000549     -0.007391      0.000000
    290 O2    s      -0.000575      0.000249     -0.000550      0.000000
    291 O2    s      -0.000653      0.000124      0.000533      0.000000
    292 O2    s       0.000008      0.000147     -0.001713      0.000000
    293 O2    s       0.000108      0.000375      0.002546      0.000000
    294 O2    s      -0.000222      0.000602      0.000414      0.000000
    295 O3    s       0.001045      0.000259     -0.001073      0.000000
    296 O2    s       0.000470     -0.000055     -0.003275      0.000000
    297 O2    s       0.000401     -0.000627     -0.000919      0.000000
    298 O2    s       0.000083     -0.000509      0.001078      0.000000
    299 O3    s       0.000345      0.000308     -0.001697      0.000000
    300 O2    s      -0.000157      0.000206     -0.000360      0.000000
    301 O2    s       0.001523     -0.000503     -0.003879      0.000000
    302 O2    s      -0.001021     -0.000905     -0.002443      0.000000
    303 O3    s       0.001484     -0.001391      0.003476      0.000000
    304 O2    s      -0.001249     -0.000130      0.000089      0.000000
    305 O2    s      -0.000172      0.001151      0.000251      0.000000
    306 O3    s       0.000792     -0.001748      0.001386      0.000000
    307 F     s      -0.000512      0.000264     -0.000665      0.000000
    308 F     s      -0.000453      0.000086     -0.000347      0.000000
    309 F     s      -0.000080      0.000042     -0.000205      0.000000
    310 F     s       0.000415     -0.000273      0.000093      0.000000
    311 F     s      -0.000902      0.000817     -0.000288      0.000000
    312 F     s      -0.001680      0.002056     -0.001363      0.000000
--------------------------------------------------------------------------------
  Maximum abs         0.002452      0.003157      0.008215      0.000000
--------------------------------------------------------------------------------


  Time to end of optimisation =     151.8215 seconds


  Peak dynamic memory used =      19.13 MB 


  Timing analysis for GULP :

--------------------------------------------------------------------------------
  Task / Subroutine                                          Time (Seconds)
--------------------------------------------------------------------------------
  Calculation of reciprocal space energy and derivatives          3.6187
  Calculation of real space energy and derivatives              132.9565
  Calculation of three-body energy and derivatives               13.5730
  Calculation of matrix inversion                                 1.4873
  Global summation overhead                                       0.0001
--------------------------------------------------------------------------------
  Total CPU time                                                151.8215
--------------------------------------------------------------------------------


  Dump file written as out.res                                                 
  CIF file written as out.cif                                                 


  Job Finished at 02:25.31 15th November   2016                               

