********************************************************************************
*                       GENERAL UTILITY LATTICE PROGRAM                        *
*                                 Julian Gale                                  *
*                      Nanochemistry Research Institute                        *
*                           Department of Chemistry                            *
*                    Curtin University, Western Australia                      *
********************************************************************************
* Version = 4.2.0 * Last modified =  20th January 2014                         *
********************************************************************************
*  optimise     - perform optimisation run                                     *
*  conp         - constant pressure calculation                                *
*  qok          - running with non charge neutral cell is OK                   *
********************************************************************************

  Job Started  at 08:31.18 16th November   2016                               

  Number of CPUs =     1


  Total number of configurations input =   1

********************************************************************************
*  Input for Configuration =   1                                               *
********************************************************************************

  Formula = Si57Ge3O120F6                                               

  Number of irreducible atoms/shells =     312


  Total number atoms/shells =     312

  Dimensionality = 3               :  Bulk   


  Charge on solid   =  -6.000000 =>neutralising background added


  Cartesian lattice vectors (Angstroms) :

       11.962787    0.000000    0.000000
       -5.941138   10.378523    0.000000
       -0.102712    0.184407   29.507700

  Cell parameters (Angstroms/Degrees):

  a =      11.9628    alpha =  89.5902
  b =      11.9587    beta  =  90.1994
  c =      29.5085    gamma = 119.7888

  Initial cell volume =        3663.559907 Angs**3

  Temperature of configuration =  0.000     K 

  Pressure of configuration =         0.000 GPa 

  Fractional coordinates of asymmetric unit :

--------------------------------------------------------------------------------
   No.  Atomic       x           y          z         Charge      Occupancy
        Label      (Frac)      (Frac)     (Frac)        (e)         (Frac)  
--------------------------------------------------------------------------------
      1 Si    c    0.699600    0.375700    0.033890     4.00000    1.000000    
      2 Si    c    0.621750 *  0.322713 *  0.365281 *   4.00000    1.000000    
      3 Si    c    0.677202 *  0.290042 *  0.695805 *   4.00000    1.000000    
      4 Si    c    0.301152 *  0.620833 *  0.531879 *   4.00000    1.000000    
      5 Si    c    0.380554 *  0.675396 *  0.866368 *   4.00000    1.000000    
      6 Si    c    0.328808 *  0.705713 *  0.198878 *   4.00000    1.000000    
      7 Si    c    0.382352 *  0.703472 *  0.299539 *   4.00000    1.000000    
      8 Si    c    0.324630 *  0.621439 *  0.968381 *   4.00000    1.000000    
      9 Si    c    0.298560 *  0.667849 *  0.632923 *   4.00000    1.000000    
     10 Si    c    0.624523 *  0.296579 *  0.796005 *   4.00000    1.000000    
     11 Si    c    0.676571 *  0.377292 *  0.465466 *   4.00000    1.000000    
     12 Si    c    0.708711 *  0.326462 *  0.135328 *   4.00000    1.000000    
     13 Ge    c    0.532474 *  0.424885 *  0.966020 *   4.00000    1.000000    
     14 Si    c    0.585365 *  0.112957 *  0.300971 *   4.00000    1.000000    
     15 Si    c    0.886982 *  0.460007 *  0.630889 *   4.00000    1.000000    
     16 Si    c    0.471365 *  0.581540 *  0.466689 *   4.00000    1.000000    
     17 Si    c    0.418791 *  0.886036 *  0.799763 *   4.00000    1.000000    
     18 Si    c    0.118865 *  0.534014 *  0.133924 *   4.00000    1.000000    
     19 Si    c    0.418715 *  0.530107 *  0.365117 *   4.00000    1.000000    
     20 Si    c    0.111889 *  0.582252 *  0.032734 *   4.00000    1.000000    
     21 Si    c    0.467247 *  0.876785 *  0.698560 *   4.00000    1.000000    
     22 Ge    c    0.589358 *  0.463946 *  0.865986 *   4.00000    1.000000    
     23 Si    c    0.889123 *  0.416044 *  0.529318 *   4.00000    1.000000    
     24 Si    c    0.534134 *  0.115520 *  0.199502 *   4.00000    1.000000    
     25 Si    c    0.301848 *  0.392622 *  0.851294 *   4.00000    1.000000    
     26 Si    c    0.606851 *  0.907329 *  0.184533 *   4.00000    1.000000    
     27 Si    c    0.099093 *  0.697975 *  0.517438 *   4.00000    1.000000    
     28 Si    c    0.699476 *  0.601559 *  0.350769 *   4.00000    1.000000    
     29 Si    c    0.400040 *  0.089112 *  0.682570 *   4.00000    1.000000    
     30 Si    c    0.904776 *  0.302360 *  0.019687 *   4.00000    1.000000    
     31 Si    c    0.399418 *  0.300338 *  0.480849 *   4.00000    1.000000    
     32 Si    c    0.909331 *  0.604577 *  0.148416 *   4.00000    1.000000    
     33 Si    c    0.698764 *  0.092743 *  0.813382 *   4.00000    1.000000    
     34 Si    c    0.607658 *  0.702017 *  0.986001 *   4.00000    1.000000    
     35 Si    c    0.096478 *  0.388909 *  0.645371 *   4.00000    1.000000    
     36 Si    c    0.305407 *  0.904555 *  0.314564 *   4.00000    1.000000    
     37 Si    c    0.251980 *  0.333607 *  0.953755 *   4.00000    1.000000    
     38 Si    c    0.662919 *  0.912012 *  0.285218 *   4.00000    1.000000    
     39 Si    c    0.088320 *  0.738198 *  0.618350 *   4.00000    1.000000    
     40 Si    c    0.749928 *  0.658699 *  0.451279 *   4.00000    1.000000    
     41 Si    c    0.341631 *  0.088305 *  0.782847 *   4.00000    1.000000    
     42 Si    c    0.918593 *  0.255793 *  0.120172 *   4.00000    1.000000    
     43 Si    c    0.340857 *  0.250774 *  0.380316 *   4.00000    1.000000    
     44 Si    c    0.909721 *  0.658525 *  0.047531 *   4.00000    1.000000    
     45 Si    c    0.745365 *  0.078999 *  0.713033 *   4.00000    1.000000    
     46 Si    c    0.667784 *  0.747032 *  0.883340 *   4.00000    1.000000    
     47 Si    c    0.091703 *  0.339539 *  0.544354 *   4.00000    1.000000    
     48 Si    c    0.256064 *  0.914430 *  0.214043 *   4.00000    1.000000    
     49 Si    c    0.968287 *  0.122430 *  0.967826 *   4.00000    1.000000    
     50 Si    c    0.880854 *  0.849381 *  0.300035 *   4.00000    1.000000    
     51 Ge    c    0.148233 *  0.020671 *  0.632522 *   4.00000    1.000000    
     52 Si    c    0.029573 *  0.876704 *  0.465567 *   4.00000    1.000000    
     53 Si    c    0.120209 *  0.148073 *  0.800662 *   4.00000    1.000000    
     54 Si    c    0.855775 *  0.976022 *  0.134595 *   4.00000    1.000000    
     55 Si    c    0.124013 *  0.970894 *  0.364837 *   4.00000    1.000000    
     56 Si    c    0.853135 *  0.883012 *  0.034021 *   4.00000    1.000000    
     57 Si    c    0.025014 *  0.142904 *  0.699419 *   4.00000    1.000000    
     58 Si    c    0.880088 *  0.030139 *  0.866482 *   4.00000    1.000000    
     59 Si    c    0.149512 *  0.120425 *  0.529611 *   4.00000    1.000000    
     60 Si    c    0.975876 *  0.851178 *  0.199398 *   4.00000    1.000000    
     61 O2    c    0.932836 *  0.000758 *  0.999829 *   0.87073    1.000000    
     62 O2    c    0.002935 *  0.929950 *  0.332143 *   0.87073    1.000000    
     63 O3    c    0.062798 *  0.056397 *  0.670469 *   1.33043    1.000000    
     64 O2    c    0.071003 *  0.999914 *  0.496744 *   0.87073    1.000000    
     65 O2    c    0.002636 *  0.065850 *  0.834826 *   0.87073    1.000000    
     66 O2    c    0.933668 *  0.932002 *  0.167329 *   0.87073    1.000000    
     67 O2    c    0.343003 *  0.579877 *  0.332392 *   0.87073    1.000000    
     68 O2    c    0.419034 *  0.750423 *  0.666904 *   0.87073    1.000000    
     69 O2    c    0.236933 *  0.657728 *  0.999525 *   0.87073    1.000000    
     70 O3    c    0.667427 *  0.421349 *  0.825538 *   1.33043    1.000000    
     71 O2    c    0.585408 *  0.242931 *  0.167954 *   0.87073    1.000000    
     72 O2    c    0.764054 *  0.339456 *  0.497166 *   0.87073    1.000000    
     73 O3    c    0.578014 *  0.338423 *  0.003851 *   1.33043    1.000000    
     74 O2    c    0.760732 *  0.411218 *  0.662530 *   0.87073    1.000000    
     75 O2    c    0.660995 *  0.238212 *  0.333167 *   0.87073    1.000000    
     76 O2    c    0.424024 *  0.659196 *  0.499201 *   0.87073    1.000000    
     77 O2    c    0.245367 *  0.584010 *  0.165941 *   0.87073    1.000000    
     78 O2    c    0.344810 *  0.761603 *  0.833490 *   0.87073    1.000000    
     79 O2    c    0.120502 *  0.214823 *  0.973084 *   0.87073    1.000000    
     80 O2    c    0.789632 *  0.912433 *  0.305263 *   0.87073    1.000000    
     81 O3    c    0.082773 *  0.857340 *  0.639920 *   1.33043    1.000000    
     82 O2    c    0.875821 *  0.784616 *  0.471301 *   0.87073    1.000000    
     83 O2    c    0.215843 *  0.088915 *  0.803258 *   0.87073    1.000000    
     84 O2    c    0.919557 *  0.129718 *  0.140544 *   0.87073    1.000000    
     85 O2    c    0.214383 *  0.125346 *  0.360379 *   0.87073    1.000000    
     86 O2    c    0.908307 *  0.785158 *  0.027709 *   0.87073    1.000000    
     87 O2    c    0.871312 *  0.079730 *  0.693194 *   0.87073    1.000000    
     88 O2    c    0.787232 *  0.877094 *  0.862688 *   0.87073    1.000000    
     89 O2    c    0.091091 *  0.215547 *  0.522384 *   0.87073    1.000000    
     90 O2    c    0.129964 *  0.915308 *  0.194084 *   0.87073    1.000000    
     91 O2    c    0.934216 *  0.861388 *  0.249796 *   0.87073    1.000000    
     92 O3    c    0.124916 *  0.065233 *  0.579809 *   1.33043    1.000000    
     93 O2    c    0.929621 *  0.073133 *  0.916963 *   0.87073    1.000000    
     94 O2    c    0.063057 *  0.138058 *  0.751153 *   0.87073    1.000000    
     95 O2    c    0.872322 *  0.938150 *  0.084227 *   0.87073    1.000000    
     96 O2    c    0.068665 *  0.926989 *  0.414828 *   0.87073    1.000000    
     97 O2    c    0.897608 *  0.202116 *  0.981213 *   0.87073    1.000000    
     98 O2    c    0.798340 *  0.698034 *  0.312554 *   0.87073    1.000000    
     99 O3    c    0.310587 *  0.094511 *  0.642943 *   1.33043    1.000000    
    100 O2    c    0.101324 *  0.797364 *  0.479250 *   0.87073    1.000000    
    101 O2    c    0.197870 *  0.298564 *  0.813966 *   0.87073    1.000000    
    102 O2    c    0.703863 *  0.907072 *  0.146119 *   0.87073    1.000000    
    103 O2    c    0.206994 *  0.902345 *  0.352847 *   0.87073    1.000000    
    104 O2    c    0.701074 *  0.810402 *  0.022365 *   0.87073    1.000000    
    105 O2    c    0.098343 *  0.292253 *  0.683790 *   0.87073    1.000000    
    106 O2    c    0.799602 *  0.099746 *  0.851733 *   0.87073    1.000000    
    107 O2    c    0.302600 *  0.200782 *  0.519191 *   0.87073    1.000000    
    108 O2    c    0.907666 *  0.700747 *  0.186659 *   0.87073    1.000000    
    109 O2    c    0.327097 *  0.647227 *  0.249205 *   0.87073    1.000000    
    110 O2    c    0.357504 *  0.673184 *  0.582596 *   0.87073    1.000000    
    111 O2    c    0.328223 *  0.674444 *  0.917110 *   0.87073    1.000000    
    112 O2    c    0.680123 *  0.348855 *  0.745350 *   0.87073    1.000000    
    113 O2    c    0.651416 *  0.324779 *  0.085520 *   0.87073    1.000000    
    114 O2    c    0.677529 *  0.320633 *  0.415548 *   0.87073    1.000000    
    115 O3    c    0.364729 *  0.315950 *  0.973798 *   1.33043    1.000000    
    116 O2    c    0.672773 *  0.043742 *  0.304042 *   0.87073    1.000000    
    117 O2    c    0.955286 *  0.614876 *  0.635182 *   0.87073    1.000000    
    118 O2    c    0.627455 *  0.668539 *  0.469611 *   0.87073    1.000000    
    119 O2    c    0.332393 *  0.956349 *  0.802720 *   0.87073    1.000000    
    120 O2    c    0.051506 *  0.377912 *  0.137955 *   0.87073    1.000000    
    121 O2    c    0.331148 *  0.374061 *  0.362265 *   0.87073    1.000000    
    122 O2    c    0.043426 *  0.670232 *  0.029020 *   0.87073    1.000000    
    123 O2    c    0.623319 *  0.945339 *  0.695847 *   0.87073    1.000000    
    124 O3    c    0.685222 *  0.632933 *  0.864336 *   1.33043    1.000000    
    125 O2    c    0.959906 *  0.330531 *  0.526011 *   0.87073    1.000000    
    126 O2    c    0.378118 *  0.047355 *  0.195960 *   0.87073    1.000000    
    127 O2    c    0.771438 *  0.302325 *  0.012812 *   0.87073    1.000000    
    128 O2    c    0.697475 *  0.466564 *  0.343234 *   0.87073    1.000000    
    129 O2    c    0.533750 *  0.221773 *  0.674502 *   0.87073    1.000000    
    130 O2    c    0.233157 *  0.697560 *  0.510219 *   0.87073    1.000000    
    131 O2    c    0.305713 *  0.530051 *  0.847088 *   0.87073    1.000000    
    132 O2    c    0.472592 *  0.774273 *  0.176998 *   0.87073    1.000000    
    133 O2    c    0.306423 *  0.770743 *  0.321893 *   0.87073    1.000000    
    134 O2    c    0.469030 *  0.696267 *  0.988809 *   0.87073    1.000000    
    135 O2    c    0.229679 *  0.522654 *  0.653863 *   0.87073    1.000000    
    136 O2    c    0.695545 *  0.224823 *  0.819605 *   0.87073    1.000000    
    137 O2    c    0.534201 *  0.301364 *  0.488545 *   0.87073    1.000000    
    138 O2    c    0.777845 *  0.469829 *  0.157165 *   0.87073    1.000000    
    139 O2    c    0.785995 *  0.532926 *  0.028035 *   0.87073    1.000000    
    140 O2    c    0.465898 *  0.249857 *  0.360496 *   0.87073    1.000000    
    141 O2    c    0.747282 *  0.204381 *  0.691967 *   0.87073    1.000000    
    142 O2    c    0.218854 *  0.465685 *  0.526127 *   0.87073    1.000000    
    143 O2    c    0.533950 *  0.733588 *  0.864944 *   0.87073    1.000000    
    144 O2    c    0.255428 *  0.788710 *  0.194327 *   0.87073    1.000000    
    145 O2    c    0.538195 *  0.784835 *  0.304573 *   0.87073    1.000000    
    146 O2    c    0.262510 *  0.467501 *  0.970556 *   0.87073    1.000000    
    147 O2    c    0.215651 *  0.740594 *  0.638039 *   0.87073    1.000000    
    148 O2    c    0.467154 *  0.216328 *  0.801218 *   0.87073    1.000000    
    149 O2    c    0.751171 *  0.533077 *  0.470862 *   0.87073    1.000000    
    150 O2    c    0.792641 *  0.254062 *  0.140329 *   0.87073    1.000000    
    151 O2    c    0.240266 *  0.321763 *  0.898967 *   0.87073    1.000000    
    152 O2    c    0.680944 *  0.911142 *  0.231007 *   0.87073    1.000000    
    153 O2    c    0.094688 *  0.766298 *  0.564154 *   0.87073    1.000000    
    154 O2    c    0.769084 *  0.675755 *  0.397049 *   0.87073    1.000000    
    155 O2    c    0.322048 *  0.085726 *  0.728345 *   0.87073    1.000000    
    156 O2    c    0.914266 *  0.234103 *  0.066031 *   0.87073    1.000000    
    157 O2    c    0.324498 *  0.230791 *  0.434619 *   0.87073    1.000000    
    158 O2    c    0.909484 *  0.676656 *  0.101781 *   0.87073    1.000000    
    159 O2    c    0.766251 *  0.084218 *  0.767204 *   0.87073    1.000000    
    160 O2    c    0.678893 *  0.762362 *  0.937673 *   0.87073    1.000000    
    161 O2    c    0.094045 *  0.317542 *  0.598582 *   0.87073    1.000000    
    162 O2    c    0.235967 *  0.911088 *  0.268262 *   0.87073    1.000000    
    163 O3    c    0.598762 *  0.569556 *  0.998433 *   1.33043    1.000000    
    164 O2    c    0.444300 *  0.029110 *  0.324037 *   0.87073    1.000000    
    165 O2    c    0.969471 *  0.400228 *  0.653913 *   0.87073    1.000000    
    166 O2    c    0.413589 *  0.439828 *  0.489840 *   0.87073    1.000000    
    167 O2    c    0.560171 *  0.966238 *  0.822920 *   0.87073    1.000000    
    168 O2    c    0.036596 *  0.593142 *  0.156986 *   0.87073    1.000000    
    169 O2    c    0.559934 *  0.587466 *  0.342198 *   0.87073    1.000000    
    170 O2    c    0.030974 *  0.441015 *  0.009595 *   0.87073    1.000000    
    171 O2    c    0.410616 *  0.961041 *  0.674927 *   0.87073    1.000000    
    172 O3    c    0.438088 *  0.408337 *  0.840542 *   1.33043    1.000000    
    173 O2    c    0.973745 *  0.559587 *  0.507899 *   0.87073    1.000000    
    174 O2    c    0.591634 *  0.032360 *  0.176037 *   0.87073    1.000000    
    175 O2    c    0.585902 *  0.167155 *  0.250328 *   0.87073    1.000000    
    176 O2    c    0.834390 *  0.410738 *  0.580048 *   0.87073    1.000000    
    177 O1    c    0.601206 *  0.401060 *  0.916491 *   1.73396    1.000000    
    178 O2    c    0.414745 *  0.826922 *  0.749843 *   0.87073    1.000000    
    179 O2    c    0.171249 *  0.585985 *  0.082810 *   0.87073    1.000000    
    180 O2    c    0.418321 *  0.582361 *  0.415907 *   0.87073    1.000000    
    181 F     c    0.456163 *  0.906695 *  0.250044 *   0.56000    1.000000    
    182 F     c    0.096946 *  0.543721 *  0.581798 *   0.56000    1.000000    
    183 F     c    0.480917 *  0.519123 *  0.922881 *   0.56000    1.000000    
    184 F     c    0.543815 *  0.086917 *  0.748351 *   0.56000    1.000000    
    185 F     c    0.914963 *  0.456360 *  0.084082 *   0.56000    1.000000    
    186 F     c    0.549009 *  0.450436 *  0.416369 *   0.56000    1.000000    
    187 O2    s    0.927890 *  0.001224 *  0.000061 *  -2.87073    1.000000    
    188 O2    s    0.002874 *  0.925543 *  0.332222 *  -2.87073    1.000000    
    189 O3    s    0.066078 *  0.062791 *  0.670343 *  -3.33043    1.000000    
    190 O2    s    0.075062 *  0.999412 *  0.496875 *  -2.87073    1.000000    
    191 O2    s    0.002150 *  0.070944 *  0.834542 *  -2.87073    1.000000    
    192 O2    s    0.929624 *  0.927839 *  0.167251 *  -2.87073    1.000000    
    193 O2    s    0.354862 *  0.587390 *  0.332400 *  -2.87073    1.000000    
    194 O2    s    0.411749 *  0.754951 *  0.666688 *  -2.87073    1.000000    
    195 O2    s    0.233871 *  0.646371 *  0.999487 *  -2.87073    1.000000    
    196 O3    s    0.657096 *  0.411676 *  0.825537 *  -3.33043    1.000000    
    197 O2    s    0.592743 *  0.238239 *  0.167882 *  -2.87073    1.000000    
    198 O2    s    0.768099 *  0.351344 *  0.497252 *  -2.87073    1.000000    
    199 O3    s    0.588115 *  0.348477 *  0.004509 *  -3.33043    1.000000    
    200 O2    s    0.765088 *  0.403536 *  0.662743 *  -2.87073    1.000000    
    201 O2    s    0.649153 *  0.234054 *  0.333183 *  -2.87073    1.000000    
    202 O2    s    0.416222 *  0.647350 *  0.499259 *  -2.87073    1.000000    
    203 O2    s    0.241054 *  0.591470 *  0.166078 *  -2.87073    1.000000    
    204 O2    s    0.355956 *  0.764910 *  0.833608 *  -2.87073    1.000000    
    205 O2    s    0.117729 *  0.217384 *  0.970427 *  -2.87073    1.000000    
    206 O2    s    0.786245 *  0.905663 *  0.302658 *  -2.87073    1.000000    
    207 O3    s    0.088775 *  0.858895 *  0.637141 *  -3.33043    1.000000    
    208 O2    s    0.879107 *  0.781377 *  0.468660 *  -2.87073    1.000000    
    209 O2    s    0.218670 *  0.095069 *  0.800919 *  -2.87073    1.000000    
    210 O2    s    0.912650 *  0.126289 *  0.137838 *  -2.87073    1.000000    
    211 O2    s    0.217872 *  0.121948 *  0.362885 *  -2.87073    1.000000    
    212 O2    s    0.902609 *  0.782583 *  0.030370 *  -2.87073    1.000000    
    213 O2    s    0.874233 *  0.086355 *  0.695941 *  -2.87073    1.000000    
    214 O2    s    0.784817 *  0.880175 *  0.865255 *  -2.87073    1.000000    
    215 O2    s    0.097333 *  0.218477 *  0.525413 *  -2.87073    1.000000    
    216 O2    s    0.126660 *  0.908404 *  0.196693 *  -2.87073    1.000000    
    217 O2    s    0.932868 *  0.858870 *  0.249806 *  -2.87073    1.000000    
    218 O3    s    0.129589 *  0.067197 *  0.579088 *  -3.33043    1.000000    
    219 O2    s    0.928323 *  0.073757 *  0.916922 *  -2.87073    1.000000    
    220 O2    s    0.065389 *  0.139736 *  0.751080 *  -2.87073    1.000000    
    221 O2    s    0.868296 *  0.936144 *  0.084182 *  -2.87073    1.000000    
    222 O2    s    0.070490 *  0.926239 *  0.414949 *  -2.87073    1.000000    
    223 O2    s    0.905967 *  0.203643 *  0.983655 *  -2.87073    1.000000    
    224 O2    s    0.796936 *  0.704179 *  0.315155 *  -2.87073    1.000000    
    225 O3    s    0.305764 *  0.087837 *  0.645921 *  -3.33043    1.000000    
    226 O2    s    0.093461 *  0.795561 *  0.481732 *  -2.87073    1.000000    
    227 O2    s    0.200214 *  0.292202 *  0.816357 *  -2.87073    1.000000    
    228 O2    s    0.710007 *  0.914367 *  0.148812 *  -2.87073    1.000000    
    229 O2    s    0.208206 *  0.909891 *  0.350213 *  -2.87073    1.000000    
    230 O2    s    0.707584 *  0.807126 *  0.019926 *  -2.87073    1.000000    
    231 O2    s    0.090420 *  0.286433 *  0.681466 *  -2.87073    1.000000    
    232 O2    s    0.797837 *  0.091588 *  0.849359 *  -2.87073    1.000000    
    233 O2    s    0.296414 *  0.202390 *  0.516455 *  -2.87073    1.000000    
    234 O2    s    0.915170 *  0.707045 *  0.184106 *  -2.87073    1.000000    
    235 O2    s    0.332909 *  0.658898 *  0.249232 *  -2.87073    1.000000    
    236 O2    s    0.345886 *  0.667384 *  0.582587 *  -2.87073    1.000000    
    237 O2    s    0.333261 *  0.669189 *  0.917063 *  -2.87073    1.000000    
    238 O2    s    0.674084 *  0.337237 *  0.745326 *  -2.87073    1.000000    
    239 O2    s    0.662429 *  0.330104 *  0.085641 *  -2.87073    1.000000    
    240 O2    s    0.671682 *  0.326685 *  0.415532 *  -2.87073    1.000000    
    241 O3    s    0.364401 *  0.325425 *  0.971081 *  -3.33043    1.000000    
    242 O2    s    0.662746 *  0.037106 *  0.301753 *  -2.87073    1.000000    
    243 O2    s    0.962123 *  0.611450 *  0.632927 *  -2.87073    1.000000    
    244 O2    s    0.624234 *  0.658575 *  0.467386 *  -2.87073    1.000000    
    245 O2    s    0.342205 *  0.962527 *  0.800387 *  -2.87073    1.000000    
    246 O2    s    0.044540 *  0.381156 *  0.135675 *  -2.87073    1.000000    
    247 O2    s    0.341159 *  0.377183 *  0.364461 *  -2.87073    1.000000    
    248 O2    s    0.036903 *  0.659999 *  0.031289 *  -2.87073    1.000000    
    249 O2    s    0.619990 *  0.952219 *  0.697936 *  -2.87073    1.000000    
    250 O3    s    0.676372 *  0.632290 *  0.866455 *  -3.33043    1.000000    
    251 O2    s    0.966528 *  0.340394 *  0.528313 *  -2.87073    1.000000    
    252 O2    s    0.381374 *  0.040455 *  0.198223 *  -2.87073    1.000000    
    253 O2    s    0.778772 *  0.309780 *  0.015735 *  -2.87073    1.000000    
    254 O2    s    0.689884 *  0.465967 *  0.346331 *  -2.87073    1.000000    
    255 O2    s    0.534691 *  0.214851 *  0.677662 *  -2.87073    1.000000    
    256 O2    s    0.226126 *  0.689698 *  0.513245 *  -2.87073    1.000000    
    257 O2    s    0.313163 *  0.531262 *  0.849562 *  -2.87073    1.000000    
    258 O2    s    0.471974 *  0.781236 *  0.180066 *  -2.87073    1.000000    
    259 O2    s    0.314120 *  0.777954 *  0.318790 *  -2.87073    1.000000    
    260 O2    s    0.467953 *  0.688985 *  0.986348 *  -2.87073    1.000000    
    261 O2    s    0.222881 *  0.523645 *  0.650783 *  -2.87073    1.000000    
    262 O2    s    0.688628 *  0.217756 *  0.816507 *  -2.87073    1.000000    
    263 O2    s    0.534630 *  0.309013 *  0.485354 *  -2.87073    1.000000    
    264 O2    s    0.784664 *  0.469340 *  0.153966 *  -2.87073    1.000000    
    265 O2    s    0.791391 *  0.531449 *  0.030709 *  -2.87073    1.000000    
    266 O2    s    0.468599 *  0.257641 *  0.363111 *  -2.87073    1.000000    
    267 O2    s    0.739527 *  0.199634 *  0.694654 *  -2.87073    1.000000    
    268 O2    s    0.213544 *  0.468265 *  0.528703 *  -2.87073    1.000000    
    269 O2    s    0.531272 *  0.728583 *  0.867022 *  -2.87073    1.000000    
    270 O2    s    0.263288 *  0.793779 *  0.196921 *  -2.87073    1.000000    
    271 O2    s    0.535455 *  0.790207 *  0.301984 *  -2.87073    1.000000    
    272 O2    s    0.268323 *  0.470409 *  0.968578 *  -2.87073    1.000000    
    273 O2    s    0.210683 *  0.732551 *  0.635406 *  -2.87073    1.000000    
    274 O2    s    0.469302 *  0.210529 *  0.798799 *  -2.87073    1.000000    
    275 O2    s    0.743198 *  0.530514 *  0.468214 *  -2.87073    1.000000    
    276 O2    s    0.797652 *  0.261878 *  0.137658 *  -2.87073    1.000000    
    277 O2    s    0.248024 *  0.330448 *  0.899578 *  -2.87073    1.000000    
    278 O2    s    0.671265 *  0.910837 *  0.231877 *  -2.87073    1.000000    
    279 O2    s    0.094551 *  0.756431 *  0.564851 *  -2.87073    1.000000    
    280 O2    s    0.759745 *  0.666165 *  0.397972 *  -2.87073    1.000000    
    281 O2    s    0.331793 *  0.086261 *  0.729396 *  -2.87073    1.000000    
    282 O2    s    0.913760 *  0.243527 *  0.066899 *  -2.87073    1.000000    
    283 O2    s    0.334060 *  0.240179 *  0.433719 *  -2.87073    1.000000    
    284 O2    s    0.909508 *  0.667175 *  0.100964 *  -2.87073    1.000000    
    285 O2    s    0.756851 *  0.084533 *  0.766326 *  -2.87073    1.000000    
    286 O2    s    0.670576 *  0.754620 *  0.936720 *  -2.87073    1.000000    
    287 O2    s    0.094088 *  0.327222 *  0.597834 *  -2.87073    1.000000    
    288 O2    s    0.245406 *  0.910763 *  0.267392 *  -2.87073    1.000000    
    289 O3    s    0.594921 *  0.573792 *  0.994820 *  -3.33043    1.000000    
    290 O2    s    0.444074 *  0.024283 *  0.320610 *  -2.87073    1.000000    
    291 O2    s    0.974746 *  0.405381 *  0.650590 *  -2.87073    1.000000    
    292 O2    s    0.418245 *  0.439595 *  0.486474 *  -2.87073    1.000000    
    293 O2    s    0.560107 *  0.971341 *  0.819519 *  -2.87073    1.000000    
    294 O2    s    0.031347 *  0.588039 *  0.153651 *  -2.87073    1.000000    
    295 O2    s    0.560269 *  0.582823 *  0.345527 *  -2.87073    1.000000    
    296 O2    s    0.025975 *  0.441039 *  0.013040 *  -2.87073    1.000000    
    297 O2    s    0.415584 *  0.965975 *  0.678240 *  -2.87073    1.000000    
    298 O3    s    0.434920 *  0.410986 *  0.843640 *  -3.33043    1.000000    
    299 O2    s    0.978529 *  0.559441 *  0.511170 *  -2.87073    1.000000    
    300 O2    s    0.587115 *  0.027333 *  0.179401 *  -2.87073    1.000000    
    301 O2    s    0.580444 *  0.156085 *  0.250342 *  -2.87073    1.000000    
    302 O2    s    0.845630 *  0.416463 *  0.580096 *  -2.87073    1.000000    
    303 O1    s    0.595739 *  0.407644 *  0.915728 *  -3.73396    1.000000    
    304 O2    s    0.420501 *  0.838074 *  0.749747 *  -2.87073    1.000000    
    305 O2    s    0.159772 *  0.580276 *  0.082875 *  -2.87073    1.000000    
    306 O2    s    0.423843 *  0.576898 *  0.415937 *  -2.87073    1.000000    
    307 F     s    0.455993 *  0.906395 *  0.250092 *  -1.56000    1.000000    
    308 F     s    0.097239 *  0.543967 *  0.581857 *  -1.56000    1.000000    
    309 F     s    0.484699 *  0.513994 *  0.924370 *  -1.56000    1.000000    
    310 F     s    0.543605 *  0.086901 *  0.748387 *  -1.56000    1.000000    
    311 F     s    0.915511 *  0.456508 *  0.084101 *  -1.56000    1.000000    
    312 F     s    0.549251 *  0.450149 *  0.416447 *  -1.56000    1.000000    
--------------------------------------------------------------------------------



********************************************************************************
*  General input information                                                   *
********************************************************************************

  Species output for all configurations : 

--------------------------------------------------------------------------------
  Species    Type    Atomic    Atomic    Charge       Radii (Angs)     Library
                     Number     Mass       (e)     Cova   Ionic  VDW   Symbol
--------------------------------------------------------------------------------
    Si       Core       14      28.09   4.000000   1.200  0.000  2.100          
    O1       Core        8      16.00   1.733957   0.730  0.000  1.360          
    O1       Shell       8       0.00  -3.733957   0.730  0.000  1.360          
    O2       Core        8      16.00   0.870733   0.730  0.000  1.360          
    O2       Shell       8       0.00  -2.870733   0.730  0.000  1.360          
    O3       Core        8      16.00   1.330431   0.730  0.000  1.360          
    O3       Shell       8       0.00  -3.330431   0.730  0.000  1.360          
    F        Core        9      19.00   0.560000   0.710  0.000  1.300          
    F        Shell       9       0.00  -1.560000   0.710  0.000  1.300          
    Ge       Core       32      72.61   4.000000   1.170  0.000  1.750          
--------------------------------------------------------------------------------


  Lattice summation method               =    Ewald          (3-D)
                                         =    Parry          (2-D)
                                         =    Saunders et al (1-D)
  Accuracy factor for lattice sums       =   12.000


  Time limit = Infinity

  Maximum range for interatomic potentials =        16.000000 Angstroms

  Taper potentials to zero over   1.0000 Angstroms using polynomial

  General interatomic potentials :

--------------------------------------------------------------------------------
Atom  Types   Potential         A         B         C         D     Cutoffs(Ang)
  1     2                                                            Min    Max 
--------------------------------------------------------------------------------
Si   c O1   s Buckingham    0.132E+04 0.318      10.1      0.00     0.000 16.000
Si   c O2   s Buckingham    0.132E+04 0.318      10.1      0.00     0.000 16.000
Si   c O3   s Buckingham    0.132E+04 0.318      10.1      0.00     0.000 16.000
Ge   c O1   s Buckingham    0.150E+04 0.326      16.8      0.00     0.000 16.000
Ge   c O2   s Buckingham    0.150E+04 0.326      16.8      0.00     0.000 16.000
Ge   c O3   s Buckingham    0.150E+04 0.326      16.8      0.00     0.000 16.000
O1   s O1   s Buckingham    0.228E+05 0.149      10.9      0.00     0.000 16.000
O1   s O2   s Buckingham    0.228E+05 0.149      10.9      0.00     0.000 16.000
O1   s O3   s Buckingham    0.228E+05 0.149      10.9      0.00     0.000 16.000
O2   s O2   s Buckingham    0.228E+05 0.149      10.9      0.00     0.000 16.000
O2   s O3   s Buckingham    0.228E+05 0.149      10.9      0.00     0.000 16.000
O3   s O3   s Buckingham    0.228E+05 0.149      10.9      0.00     0.000 16.000
Si   c F    s Buckingham     977.     0.282      0.00      0.00     0.000 16.000
Ge   c F    s Buckingham     681.     0.320      0.00      0.00     0.000 16.000
F    s F    s Buckingham     540.     0.262      0.00      0.00     0.000 16.000
O1   s F    s Buckingham    0.168E+04 0.268      0.00      0.00     0.000 16.000
O2   s F    s Buckingham    0.168E+04 0.268      0.00      0.00     0.000 16.000
O3   s F    s Buckingham    0.168E+04 0.268      0.00      0.00     0.000 16.000
O2   c O2   s Spring (c-s)   76.0      0.00      0.00      0.00     0.000  0.800
O3   c O3   s Spring (c-s)   128.      0.00      0.00      0.00     0.000  0.800
O1   c O1   s Spring (c-s)   180.      0.00      0.00      0.00     0.000  0.800
F    c F    s Spring (c-s)   33.5      0.00      0.00      0.00     0.000  0.800
--------------------------------------------------------------------------------

  General Three-body potentials :

  Harmonic form:

--------------------------------------------------------------------------------
Atom    Atom    Atom           Force Constants            Theta     Cutoffs  
  1       2       3     (eVrad**-2/eVrad**-3/eVrad**-4)   (deg)  1-2  1-3  2-3
--------------------------------------------------------------------------------
Si    c O1    s O1    s  1.261        0.0000    0.0000   109.470 0.00 0.00 0.00
                                                                 1.90 1.90 3.50
Si    c O1    s O2    s  1.261        0.0000    0.0000   109.470 0.00 0.00 0.00
                                                                 1.90 1.90 3.50
Si    c O2    s O2    s  1.261        0.0000    0.0000   109.470 0.00 0.00 0.00
                                                                 1.90 1.90 3.50
--------------------------------------------------------------------------------

********************************************************************************
*  Output for configuration   1                                                *
********************************************************************************


  Components of energy : 

--------------------------------------------------------------------------------
  Interatomic potentials     =        2061.63740186 eV
  Three-body potentials      =           0.44088007 eV
  Monopole - monopole (real) =       -6612.04350662 eV
  Monopole - monopole (recip)=       -3169.73941043 eV
  Monopole - monopole (total)=       -9781.78291704 eV
  Neutralising energy        =          -6.45605932 eV
--------------------------------------------------------------------------------
  Total lattice energy       =       -7726.16069444 eV
--------------------------------------------------------------------------------
  Total lattice energy       =         -745456.4018 kJ/(mole unit cells)
--------------------------------------------------------------------------------


  Number of variables =      939

  Maximum number of calculations  =          5000
  Maximum Hessian update interval =            10
  Maximum step size               =   0.100000000
  Maximum parameter tolerance     =   0.000010000
  Maximum function  tolerance     =   0.000010000
  Maximum gradient  tolerance     =   0.001000000
  Maximum gradient  component     =   0.010000000

  Symmetry not applied to optimisation

  Cell parameters to be optimised using strains

  Newton-Raphson optimiser to be used

  BFGS hessian update to be used

  Dumpfile to be written after every cycle

  Start of bulk optimisation :

  Cycle:      0 Energy:     -7726.160694  Gnorm:      0.000398  CPU:    2.015
  ** Hessian calculated **
  Cycle:      1 Energy:     -7726.170211  Gnorm:      0.000591  CPU:    6.581
  Cycle:      2 Energy:     -7726.173368  Gnorm:      0.000558  CPU:   10.771
  Cycle:      3 Energy:     -7726.174086  Gnorm:      0.000272  CPU:   14.960
  Cycle:      4 Energy:     -7726.174262  Gnorm:      0.000177  CPU:   19.149
  Cycle:      5 Energy:     -7726.174292  Gnorm:      0.000112  CPU:   21.979
  Cycle:      6 Energy:     -7726.174306  Gnorm:      0.000087  CPU:   24.808
  Cycle:      7 Energy:     -7726.174313  Gnorm:      0.000056  CPU:   27.638
  Cycle:      8 Energy:     -7726.174317  Gnorm:      0.000042  CPU:   30.467


  **** Optimisation achieved ****


  Final energy =   -7726.17431854 eV
  Final Gnorm  =       0.00002749

  Components of energy : 

--------------------------------------------------------------------------------
  Interatomic potentials     =        2061.73477639 eV
  Three-body potentials      =           0.44209874 eV
  Monopole - monopole (real) =       -6612.17180798 eV
  Monopole - monopole (recip)=       -3169.72335828 eV
  Monopole - monopole (total)=       -9781.89516626 eV
  Neutralising energy        =          -6.45602741 eV
--------------------------------------------------------------------------------
  Total lattice energy       =       -7726.17431854 eV
--------------------------------------------------------------------------------
  Total lattice energy       =         -745457.7163 kJ/(mole unit cells)
--------------------------------------------------------------------------------

  Final fractional coordinates of atoms :

--------------------------------------------------------------------------------
   No.  Atomic        x           y          z          Radius
        Label       (Frac)      (Frac)     (Frac)       (Angs) 
--------------------------------------------------------------------------------
     1  Si    c     0.699600    0.375700    0.033890    0.000000
     2  Si    c     0.624878    0.318153    0.365085    0.000000
     3  Si    c     0.679202    0.282307    0.695488    0.000000
     4  Si    c     0.303684    0.613591    0.531763    0.000000
     5  Si    c     0.382478    0.669194    0.866259    0.000000
     6  Si    c     0.331332    0.702245    0.198630    0.000000
     7  Si    c     0.385284    0.699057    0.299284    0.000000
     8  Si    c     0.325791    0.617483    0.968324    0.000000
     9  Si    c     0.300358    0.659836    0.632827    0.000000
    10  Si    c     0.626202    0.289338    0.795624    0.000000
    11  Si    c     0.679539    0.371440    0.465287    0.000000
    12  Si    c     0.710740    0.325180    0.135255    0.000000
    13  Ge    c     0.531139    0.421230    0.965742    0.000000
    14  Si    c     0.588305    0.108677    0.300803    0.000000
    15  Si    c     0.889214    0.452200    0.630641    0.000000
    16  Si    c     0.474513    0.575571    0.466528    0.000000
    17  Si    c     0.420637    0.879110    0.799435    0.000000
    18  Si    c     0.121000    0.531549    0.133564    0.000000
    19  Si    c     0.421819    0.525448    0.364903    0.000000
    20  Si    c     0.112973    0.579499    0.032411    0.000000
    21  Si    c     0.469180    0.868895    0.698325    0.000000
    22  Ge    c     0.591494    0.456974    0.865750    0.000000
    23  Si    c     0.891629    0.408754    0.529072    0.000000
    24  Si    c     0.537294    0.112882    0.199372    0.000000
    25  Si    c     0.303172    0.386157    0.851523    0.000000
    26  Si    c     0.609335    0.904093    0.184554    0.000000
    27  Si    c     0.101550    0.690702    0.517207    0.000000
    28  Si    c     0.702738    0.597014    0.350587    0.000000
    29  Si    c     0.402158    0.081428    0.682356    0.000000
    30  Si    c     0.904168    0.300393    0.019368    0.000000
    31  Si    c     0.402332    0.294324    0.480762    0.000000
    32  Si    c     0.912156    0.602817    0.148286    0.000000
    33  Si    c     0.700385    0.085471    0.812980    0.000000
    34  Si    c     0.608494    0.697770    0.986538    0.000000
    35  Si    c     0.098473    0.380870    0.645188    0.000000
    36  Si    c     0.308535    0.900328    0.314400    0.000000
    37  Si    c     0.251344    0.328837    0.954090    0.000000
    38  Si    c     0.665787    0.907726    0.285119    0.000000
    39  Si    c     0.090307    0.730474    0.618154    0.000000
    40  Si    c     0.753010    0.652881    0.451165    0.000000
    41  Si    c     0.343272    0.081294    0.782563    0.000000
    42  Si    c     0.919923    0.253494    0.119755    0.000000
    43  Si    c     0.343960    0.245988    0.380163    0.000000
    44  Si    c     0.912057    0.657159    0.047491    0.000000
    45  Si    c     0.747312    0.071080    0.712712    0.000000
    46  Si    c     0.669512    0.740602    0.883721    0.000000
    47  Si    c     0.094179    0.332318    0.544146    0.000000
    48  Si    c     0.259161    0.911469    0.213944    0.000000
    49  Si    c     0.967110    0.119545    0.967877    0.000000
    50  Si    c     0.883961    0.845426    0.300093    0.000000
    51  Ge    c     0.150298    0.013065    0.632534    0.000000
    52  Si    c     0.032771    0.870285    0.465539    0.000000
    53  Si    c     0.121937    0.141200    0.800849    0.000000
    54  Si    c     0.858463    0.973906    0.134705    0.000000
    55  Si    c     0.127081    0.966142    0.364885    0.000000
    56  Si    c     0.854012    0.880267    0.034200    0.000000
    57  Si    c     0.026996    0.134986    0.699493    0.000000
    58  Si    c     0.881760    0.023889    0.866642    0.000000
    59  Si    c     0.152700    0.113844    0.529674    0.000000
    60  Si    c     0.979311    0.849410    0.199358    0.000000
    61  O2    c     0.931526    0.998308    0.000021    0.000000
    62  O2    c     0.005479    0.925320    0.332484    0.000000
    63  O3    c     0.065506    0.048208    0.671026    0.000000
    64  O2    c     0.074508    0.992616    0.497162    0.000000
    65  O2    c     0.004968    0.059168    0.835320    0.000000
    66  O2    c     0.937378    0.931249    0.167599    0.000000
    67  O2    c     0.346213    0.575395    0.332153    0.000000
    68  O2    c     0.420800    0.742333    0.666813    0.000000
    69  O2    c     0.237851    0.654374    0.999067    0.000000
    70  O3    c     0.669047    0.414221    0.825232    0.000000
    71  O2    c     0.587932    0.240639    0.168022    0.000000
    72  O2    c     0.766659    0.332801    0.496877    0.000000
    73  O3    c     0.577733    0.336455    0.004028    0.000000
    74  O2    c     0.762820    0.403426    0.662221    0.000000
    75  O2    c     0.664212    0.233805    0.332979    0.000000
    76  O2    c     0.426824    0.652677    0.499175    0.000000
    77  O2    c     0.247640    0.581044    0.165530    0.000000
    78  O2    c     0.346604    0.754843    0.833163    0.000000
    79  O2    c     0.119177    0.211659    0.973441    0.000000
    80  O2    c     0.792373    0.908092    0.305281    0.000000
    81  O3    c     0.084429    0.849570    0.639621    0.000000
    82  O2    c     0.878982    0.778609    0.471196    0.000000
    83  O2    c     0.217597    0.081960    0.803052    0.000000
    84  O2    c     0.921308    0.127625    0.140172    0.000000
    85  O2    c     0.217370    0.120589    0.360324    0.000000
    86  O2    c     0.910762    0.783828    0.027586    0.000000
    87  O2    c     0.873328    0.071692    0.692964    0.000000
    88  O2    c     0.789564    0.870638    0.863242    0.000000
    89  O2    c     0.093881    0.208544    0.522122    0.000000
    90  O2    c     0.133348    0.913022    0.194014    0.000000
    91  O2    c     0.938123    0.858878    0.249916    0.000000
    92  O3    c     0.127843    0.059537    0.580034    0.000000
    93  O2    c     0.929971    0.069192    0.917060    0.000000
    94  O2    c     0.063997    0.131077    0.751451    0.000000
    95  O2    c     0.874497    0.935196    0.084435    0.000000
    96  O2    c     0.072496    0.922097    0.414978    0.000000
    97  O2    c     0.896399    0.199654    0.980821    0.000000
    98  O2    c     0.801522    0.693873    0.312409    0.000000
    99  O3    c     0.312715    0.086413    0.642682    0.000000
   100  O2    c     0.103861    0.790042    0.478961    0.000000
   101  O2    c     0.199854    0.291652    0.814130    0.000000
   102  O2    c     0.706595    0.904163    0.146200    0.000000
   103  O2    c     0.209947    0.897605    0.352721    0.000000
   104  O2    c     0.701736    0.806489    0.022802    0.000000
   105  O2    c     0.100408    0.284063    0.683558    0.000000
   106  O2    c     0.801242    0.092865    0.851289    0.000000
   107  O2    c     0.305695    0.194436    0.519108    0.000000
   108  O2    c     0.910683    0.699140    0.186491    0.000000
   109  O2    c     0.329888    0.643311    0.248902    0.000000
   110  O2    c     0.359571    0.665395    0.582550    0.000000
   111  O2    c     0.329640    0.669076    0.916807    0.000000
   112  O2    c     0.682105    0.341444    0.744997    0.000000
   113  O2    c     0.652900    0.325124    0.085710    0.000000
   114  O2    c     0.680609    0.315449    0.415292    0.000000
   115  O3    c     0.363727    0.310529    0.974043    0.000000
   116  O2    c     0.675664    0.039420    0.303949    0.000000
   117  O2    c     0.957396    0.607039    0.635001    0.000000
   118  O2    c     0.630548    0.662705    0.469553    0.000000
   119  O2    c     0.334263    0.949464    0.802449    0.000000
   120  O2    c     0.053032    0.375393    0.137498    0.000000
   121  O2    c     0.334309    0.369382    0.362129    0.000000
   122  O2    c     0.045289    0.668300    0.028755    0.000000
   123  O2    c     0.625254    0.937368    0.695624    0.000000
   124  O3    c     0.686514    0.626146    0.864719    0.000000
   125  O2    c     0.962339    0.323138    0.525753    0.000000
   126  O2    c     0.381273    0.044356    0.195921    0.000000
   127  O2    c     0.771562    0.301791    0.012916    0.000000
   128  O2    c     0.700677    0.462014    0.343019    0.000000
   129  O2    c     0.535759    0.214109    0.674240    0.000000
   130  O2    c     0.235657    0.690353    0.510148    0.000000
   131  O2    c     0.307888    0.523906    0.846957    0.000000
   132  O2    c     0.475195    0.771128    0.176802    0.000000
   133  O2    c     0.309437    0.766386    0.321664    0.000000
   134  O2    c     0.470118    0.692946    0.988768    0.000000
   135  O2    c     0.231521    0.514638    0.653787    0.000000
   136  O2    c     0.697100    0.217577    0.819264    0.000000
   137  O2    c     0.537169    0.295399    0.488356    0.000000
   138  O2    c     0.780642    0.468254    0.157314    0.000000
   139  O2    c     0.787378    0.532459    0.028042    0.000000
   140  O2    c     0.469039    0.245315    0.360272    0.000000
   141  O2    c     0.749052    0.196399    0.691636    0.000000
   142  O2    c     0.221344    0.458497    0.525952    0.000000
   143  O2    c     0.535884    0.727189    0.865081    0.000000
   144  O2    c     0.258339    0.785662    0.194247    0.000000
   145  O2    c     0.541075    0.780284    0.304348    0.000000
   146  O2    c     0.263602    0.463576    0.970810    0.000000
   147  O2    c     0.217524    0.732726    0.637909    0.000000
   148  O2    c     0.468891    0.209512    0.800793    0.000000
   149  O2    c     0.754267    0.527203    0.470766    0.000000
   150  O2    c     0.794209    0.252190    0.139904    0.000000
   151  O2    c     0.240594    0.316657    0.899250    0.000000
   152  O2    c     0.683739    0.907311    0.230898    0.000000
   153  O2    c     0.096821    0.758656    0.563961    0.000000
   154  O2    c     0.772312    0.670562    0.396948    0.000000
   155  O2    c     0.323895    0.078326    0.728051    0.000000
   156  O2    c     0.914556    0.232000    0.065595    0.000000
   157  O2    c     0.327609    0.225484    0.434460    0.000000
   158  O2    c     0.912187    0.675348    0.101741    0.000000
   159  O2    c     0.767972    0.076640    0.766882    0.000000
   160  O2    c     0.680134    0.756189    0.938023    0.000000
   161  O2    c     0.096306    0.309846    0.598364    0.000000
   162  O2    c     0.239179    0.907583    0.268180    0.000000
   163  O3    c     0.598158    0.564936    0.999051    0.000000
   164  O2    c     0.447320    0.024840    0.323950    0.000000
   165  O2    c     0.971341    0.392032    0.653739    0.000000
   166  O2    c     0.416625    0.433857    0.489736    0.000000
   167  O2    c     0.561947    0.959017    0.822626    0.000000
   168  O2    c     0.039487    0.591361    0.156792    0.000000
   169  O2    c     0.563148    0.582893    0.342082    0.000000
   170  O2    c     0.031087    0.438518    0.009214    0.000000
   171  O2    c     0.412769    0.953366    0.674712    0.000000
   172  O3    c     0.439417    0.401433    0.841054    0.000000
   173  O2    c     0.976420    0.552289    0.507681    0.000000
   174  O2    c     0.594675    0.029505    0.175997    0.000000
   175  O2    c     0.588966    0.163580    0.250262    0.000000
   176  O2    c     0.836709    0.403116    0.579798    0.000000
   177  O1    c     0.601152    0.395356    0.916627    0.000000
   178  O2    c     0.416615    0.819536    0.749623    0.000000
   179  O2    c     0.173052    0.583272    0.082381    0.000000
   180  O2    c     0.421490    0.577142    0.415795    0.000000
   181  F     c     0.459407    0.902924    0.249982    0.000000
   182  F     c     0.098949    0.535724    0.581740    0.000000
   183  F     c     0.481007    0.513968    0.923523    0.000000
   184  F     c     0.545639    0.079538    0.748134    0.000000
   185  F     c     0.917232    0.455700    0.084015    0.000000
   186  F     c     0.552342    0.445419    0.416273    0.000000
   187  O2    s     0.926791    0.998685    0.000239    0.000000
   188  O2    s     0.005544    0.920978    0.332500    0.000000
   189  O3    s     0.068624    0.054684    0.670809    0.000000
   190  O2    s     0.078520    0.992315    0.497208    0.000000
   191  O2    s     0.004362    0.064275    0.834963    0.000000
   192  O2    s     0.933216    0.926836    0.167471    0.000000
   193  O2    s     0.358006    0.582863    0.332167    0.000000
   194  O2    s     0.413556    0.746920    0.666589    0.000000
   195  O2    s     0.234854    0.643022    0.999077    0.000000
   196  O3    s     0.658768    0.404682    0.825271    0.000000
   197  O2    s     0.595254    0.235999    0.167923    0.000000
   198  O2    s     0.770752    0.344713    0.496985    0.000000
   199  O3    s     0.587967    0.346659    0.004679    0.000000
   200  O2    s     0.767154    0.395722    0.662450    0.000000
   201  O2    s     0.652308    0.229652    0.333001    0.000000
   202  O2    s     0.419002    0.640808    0.499218    0.000000
   203  O2    s     0.243377    0.588505    0.165698    0.000000
   204  O2    s     0.357814    0.758232    0.833296    0.000000
   205  O2    s     0.116595    0.214176    0.970728    0.000000
   206  O2    s     0.789044    0.901362    0.302669    0.000000
   207  O3    s     0.090497    0.851150    0.636879    0.000000
   208  O2    s     0.882274    0.775356    0.468563    0.000000
   209  O2    s     0.220426    0.088113    0.800744    0.000000
   210  O2    s     0.914451    0.124156    0.137512    0.000000
   211  O2    s     0.220884    0.117198    0.362830    0.000000
   212  O2    s     0.904880    0.781117    0.030286    0.000000
   213  O2    s     0.876210    0.078327    0.695728    0.000000
   214  O2    s     0.787038    0.873761    0.865741    0.000000
   215  O2    s     0.100133    0.211495    0.525190    0.000000
   216  O2    s     0.130023    0.906108    0.196620    0.000000
   217  O2    s     0.936615    0.856279    0.249911    0.000000
   218  O3    s     0.132458    0.061217    0.579296    0.000000
   219  O2    s     0.928642    0.069663    0.917010    0.000000
   220  O2    s     0.066533    0.132659    0.751342    0.000000
   221  O2    s     0.870370    0.933304    0.084375    0.000000
   222  O2    s     0.074146    0.921176    0.415079    0.000000
   223  O2    s     0.904778    0.201097    0.983275    0.000000
   224  O2    s     0.800110    0.699978    0.315025    0.000000
   225  O3    s     0.307908    0.079819    0.645699    0.000000
   226  O2    s     0.096069    0.788327    0.481480    0.000000
   227  O2    s     0.202087    0.285324    0.816524    0.000000
   228  O2    s     0.712732    0.911527    0.148895    0.000000
   229  O2    s     0.211174    0.905211    0.350104    0.000000
   230  O2    s     0.708247    0.803280    0.020343    0.000000
   231  O2    s     0.092463    0.278274    0.681274    0.000000
   232  O2    s     0.799442    0.084697    0.848960    0.000000
   233  O2    s     0.299488    0.196039    0.516393    0.000000
   234  O2    s     0.918227    0.705438    0.183957    0.000000
   235  O2    s     0.335670    0.654937    0.248946    0.000000
   236  O2    s     0.347957    0.659624    0.582534    0.000000
   237  O2    s     0.334721    0.663872    0.916793    0.000000
   238  O2    s     0.676027    0.329827    0.745003    0.000000
   239  O2    s     0.663804    0.330226    0.085813    0.000000
   240  O2    s     0.674750    0.321517    0.415300    0.000000
   241  O3    s     0.363283    0.320119    0.971299    0.000000
   242  O2    s     0.665624    0.032777    0.301647    0.000000
   243  O2    s     0.964237    0.603636    0.632737    0.000000
   244  O2    s     0.627326    0.652732    0.467313    0.000000
   245  O2    s     0.344056    0.955654    0.800104    0.000000
   246  O2    s     0.046128    0.378690    0.135234    0.000000
   247  O2    s     0.344297    0.372492    0.364312    0.000000
   248  O2    s     0.038699    0.658054    0.031043    0.000000
   249  O2    s     0.621941    0.944268    0.697698    0.000000
   250  O3    s     0.677801    0.625524    0.866780    0.000000
   251  O2    s     0.968966    0.333029    0.528061    0.000000
   252  O2    s     0.384511    0.037479    0.198171    0.000000
   253  O2    s     0.779012    0.309023    0.015750    0.000000
   254  O2    s     0.693088    0.461439    0.346120    0.000000
   255  O2    s     0.536723    0.207186    0.677403    0.000000
   256  O2    s     0.228603    0.682475    0.513157    0.000000
   257  O2    s     0.315221    0.525050    0.849469    0.000000
   258  O2    s     0.474549    0.778041    0.179887    0.000000
   259  O2    s     0.317139    0.773584    0.318565    0.000000
   260  O2    s     0.468977    0.685513    0.986366    0.000000
   261  O2    s     0.224746    0.515642    0.650695    0.000000
   262  O2    s     0.690176    0.210575    0.816150    0.000000
   263  O2    s     0.537588    0.303057    0.485177    0.000000
   264  O2    s     0.787356    0.467750    0.154067    0.000000
   265  O2    s     0.792639    0.530739    0.030718    0.000000
   266  O2    s     0.471707    0.253067    0.362899    0.000000
   267  O2    s     0.741342    0.191682    0.694327    0.000000
   268  O2    s     0.216039    0.461078    0.528532    0.000000
   269  O2    s     0.533195    0.722217    0.867156    0.000000
   270  O2    s     0.266182    0.790698    0.196824    0.000000
   271  O2    s     0.538321    0.785683    0.301770    0.000000
   272  O2    s     0.269256    0.466423    0.968809    0.000000
   273  O2    s     0.212564    0.724697    0.635276    0.000000
   274  O2    s     0.471085    0.203710    0.798397    0.000000
   275  O2    s     0.746283    0.524640    0.468112    0.000000
   276  O2    s     0.799257    0.260018    0.137267    0.000000
   277  O2    s     0.248373    0.325258    0.899818    0.000000
   278  O2    s     0.674044    0.907020    0.231798    0.000000
   279  O2    s     0.096702    0.748820    0.564656    0.000000
   280  O2    s     0.762962    0.660975    0.397861    0.000000
   281  O2    s     0.333629    0.078876    0.729126    0.000000
   282  O2    s     0.914070    0.241385    0.066498    0.000000
   283  O2    s     0.337160    0.234864    0.433581    0.000000
   284  O2    s     0.912184    0.665822    0.100901    0.000000
   285  O2    s     0.758573    0.076955    0.765989    0.000000
   286  O2    s     0.671875    0.748651    0.937047    0.000000
   287  O2    s     0.096344    0.319551    0.597630    0.000000
   288  O2    s     0.248594    0.907240    0.267298    0.000000
   289  O3    s     0.594507    0.569565    0.995400    0.000000
   290  O2    s     0.447078    0.020004    0.320509    0.000000
   291  O2    s     0.976664    0.397240    0.650413    0.000000
   292  O2    s     0.421270    0.433592    0.486367    0.000000
   293  O2    s     0.561898    0.964171    0.819207    0.000000
   294  O2    s     0.034156    0.586197    0.153452    0.000000
   295  O2    s     0.563460    0.578240    0.345395    0.000000
   296  O2    s     0.026146    0.438607    0.012667    0.000000
   297  O2    s     0.417721    0.958268    0.678027    0.000000
   298  O3    s     0.436353    0.404132    0.844067    0.000000
   299  O2    s     0.981175    0.552156    0.510952    0.000000
   300  O2    s     0.590100    0.024490    0.179360    0.000000
   301  O2    s     0.583498    0.152525    0.250253    0.000000
   302  O2    s     0.847965    0.408863    0.579851    0.000000
   303  O1    s     0.595873    0.402004    0.915675    0.000000
   304  O2    s     0.422389    0.830705    0.749507    0.000000
   305  O2    s     0.161553    0.577590    0.082472    0.000000
   306  O2    s     0.426996    0.571664    0.415806    0.000000
   307  F     s     0.459272    0.902618    0.250039    0.000000
   308  F     s     0.099216    0.535933    0.581812    0.000000
   309  F     s     0.484868    0.508378    0.925338    0.000000
   310  F     s     0.545425    0.079531    0.748180    0.000000
   311  F     s     0.917867    0.455972    0.084049    0.000000
   312  F     s     0.552606    0.445156    0.416356    0.000000
--------------------------------------------------------------------------------

  Final Cartesian lattice vectors (Angstroms) :

       11.962200    0.002703    0.000316
       -5.938501   10.378004    0.002675
       -0.101886    0.192449   29.507298


  Final cell parameters and derivatives :

--------------------------------------------------------------------------------
       a           11.962200 Angstrom     dE/de1(xx)     0.002522 eV/strain
       b           11.956955 Angstrom     dE/de2(yy)     0.002486 eV/strain
       c           29.508102 Angstrom     dE/de3(zz)     0.004284 eV/strain
       alpha       89.564593 Degrees      dE/de4(yz)     0.000010 eV/strain
       beta        90.196236 Degrees      dE/de5(xz)    -0.000029 eV/strain
       gamma      119.766107 Degrees      dE/de6(xy)    -0.000234 eV/strain
--------------------------------------------------------------------------------

  Primitive cell volume =          3663.614246 Angs**3

  Density of cell =      1.746388 g/cm**3

  Non-primitive cell volume =          3663.614246 Angs**3


  Final internal derivatives :

--------------------------------------------------------------------------------
   No.  Atomic          a             b             c           Radius
        Label          (eV)          (eV)          (eV)        (eV/Angs)
--------------------------------------------------------------------------------
      1 Si    c       0.000000      0.000000      0.000000      0.000000
      2 Si    c      -0.000085      0.000043     -0.000317      0.000000
      3 Si    c      -0.000111      0.000253     -0.000332      0.000000
      4 Si    c      -0.000210      0.000162      0.000077      0.000000
      5 Si    c       0.000466     -0.000487     -0.000023      0.000000
      6 Si    c      -0.000059      0.000071      0.000244      0.000000
      7 Si    c      -0.000117      0.000013     -0.000002      0.000000
      8 Si    c       0.000685     -0.000759     -0.000138      0.000000
      9 Si    c      -0.000041      0.000211     -0.000077      0.000000
     10 Si    c      -0.000144      0.000299     -0.000044      0.000000
     11 Si    c      -0.000257      0.000277     -0.000054      0.000000
     12 Si    c       0.000705     -0.000366      0.001823      0.000000
     13 Ge    c      -0.004199      0.004607     -0.002592      0.000000
     14 Si    c      -0.000031     -0.000096      0.000294      0.000000
     15 Si    c      -0.000106      0.000245     -0.000164      0.000000
     16 Si    c      -0.000031     -0.000048      0.000210      0.000000
     17 Si    c      -0.000112      0.000125      0.000599      0.000000
     18 Si    c      -0.000093     -0.000110     -0.000369      0.000000
     19 Si    c      -0.000107     -0.000003     -0.000461      0.000000
     20 Si    c       0.000264     -0.000039      0.000257      0.000000
     21 Si    c      -0.000078      0.000253     -0.000375      0.000000
     22 Ge    c      -0.000247      0.001151     -0.009441      0.000000
     23 Si    c       0.000025      0.000205      0.000127      0.000000
     24 Si    c       0.000031     -0.000454     -0.000025      0.000000
     25 Si    c      -0.000026      0.000743     -0.000420      0.000000
     26 Si    c      -0.000068      0.000085     -0.000571      0.000000
     27 Si    c      -0.000113      0.000126     -0.000208      0.000000
     28 Si    c      -0.000093     -0.000070     -0.000263      0.000000
     29 Si    c      -0.000046      0.000224     -0.000374      0.000000
     30 Si    c       0.000320     -0.000643     -0.000749      0.000000
     31 Si    c      -0.000088      0.000191      0.000207      0.000000
     32 Si    c       0.000091      0.000023      0.000552      0.000000
     33 Si    c      -0.000193      0.000215      0.000211      0.000000
     34 Si    c      -0.000228      0.000472      0.000688      0.000000
     35 Si    c      -0.000070      0.000237      0.000053      0.000000
     36 Si    c      -0.000002     -0.000125      0.000134      0.000000
     37 Si    c       0.000555      0.000731     -0.000893      0.000000
     38 Si    c      -0.000161      0.000061     -0.000007      0.000000
     39 Si    c      -0.000063      0.000188     -0.000015      0.000000
     40 Si    c      -0.000072      0.000051      0.000268      0.000000
     41 Si    c      -0.000143      0.000212      0.000116      0.000000
     42 Si    c      -0.000074      0.000103      0.000869      0.000000
     43 Si    c      -0.000085      0.000071     -0.000227      0.000000
     44 Si    c      -0.000504      0.001238      0.000291      0.000000
     45 Si    c      -0.000073      0.000223     -0.000481      0.000000
     46 Si    c      -0.000731      0.000070      0.000884      0.000000
     47 Si    c      -0.000056      0.000230     -0.000178      0.000000
     48 Si    c       0.000004     -0.000119     -0.000308      0.000000
     49 Si    c       0.000073      0.000249      0.004604      0.000000
     50 Si    c      -0.000299      0.000026      0.000656      0.000000
     51 Ge    c       0.000295     -0.000133      0.000273      0.000000
     52 Si    c      -0.000172     -0.000250      0.000212      0.000000
     53 Si    c      -0.000262      0.000470      0.000417      0.000000
     54 Si    c      -0.000272     -0.000199     -0.000405      0.000000
     55 Si    c       0.000070      0.000000     -0.000334      0.000000
     56 Si    c      -0.000487     -0.000182      0.000715      0.000000
     57 Si    c      -0.000489      0.000622     -0.000924      0.000000
     58 Si    c      -0.000567     -0.000333     -0.006357      0.000000
     59 Si    c      -0.000017      0.000280     -0.000362      0.000000
     60 Si    c       0.000095     -0.000241     -0.000685      0.000000
     61 O2    c       0.000600      0.000790     -0.002845      0.000000
     62 O2    c      -0.000075      0.000091     -0.000090      0.000000
     63 O3    c      -0.000317     -0.000010      0.000754      0.000000
     64 O2    c      -0.000382      0.000576      0.000155      0.000000
     65 O2    c      -0.000001      0.000161      0.000346      0.000000
     66 O2    c       0.000100     -0.000000      0.000404      0.000000
     67 O2    c      -0.000095     -0.000028     -0.000119      0.000000
     68 O2    c      -0.000061      0.000243     -0.000158      0.000000
     69 O2    c      -0.000299      0.000219      0.000393      0.000000
     70 O3    c      -0.000075      0.000075     -0.001109      0.000000
     71 O2    c      -0.000419      0.000108      0.000242      0.000000
     72 O2    c      -0.000051      0.000038      0.000047      0.000000
     73 O3    c      -0.001442      0.000041     -0.002447      0.000000
     74 O2    c      -0.000101      0.000284     -0.000078      0.000000
     75 O2    c      -0.000098      0.000060      0.000047      0.000000
     76 O2    c      -0.000056      0.000164     -0.000144      0.000000
     77 O2    c      -0.000058     -0.000149     -0.000269      0.000000
     78 O2    c      -0.000188      0.000310     -0.000068      0.000000
     79 O2    c      -0.000291     -0.000658      0.000799      0.000000
     80 O2    c      -0.000121     -0.000009     -0.000048      0.000000
     81 O3    c      -0.000102      0.000099      0.000165      0.000000
     82 O2    c      -0.000125      0.000130      0.000039      0.000000
     83 O2    c       0.000039      0.000047     -0.000016      0.000000
     84 O2    c      -0.000117      0.000524      0.000195      0.000000
     85 O2    c      -0.000071      0.000016     -0.000129      0.000000
     86 O2    c       0.000555     -0.000783     -0.000459      0.000000
     87 O2    c      -0.000162      0.000227     -0.000248      0.000000
     88 O2    c      -0.000151      0.000149     -0.000014      0.000000
     89 O2    c      -0.000264      0.000342     -0.000147      0.000000
     90 O2    c      -0.000141      0.000037     -0.000106      0.000000
     91 O2    c      -0.000063      0.000044     -0.000365      0.000000
     92 O3    c      -0.000580      0.000328     -0.001064      0.000000
     93 O2    c       0.000570      0.000077      0.004011      0.000000
     94 O2    c       0.000044      0.000054      0.001745      0.000000
     95 O2    c      -0.000086      0.000263      0.000828      0.000000
     96 O2    c      -0.000119      0.000130     -0.000798      0.000000
     97 O2    c      -0.000397      0.000368      0.000444      0.000000
     98 O2    c      -0.000036     -0.000041     -0.000108      0.000000
     99 O3    c      -0.000045      0.000321     -0.000144      0.000000
    100 O2    c       0.000125     -0.000045     -0.000008      0.000000
    101 O2    c      -0.000269      0.000138     -0.000126      0.000000
    102 O2    c      -0.000265      0.000068      0.000061      0.000000
    103 O2    c      -0.000125     -0.000033      0.000042      0.000000
    104 O2    c      -0.000372     -0.000160     -0.000637      0.000000
    105 O2    c      -0.000052      0.000299     -0.000024      0.000000
    106 O2    c      -0.000601      0.000648      0.000006      0.000000
    107 O2    c      -0.000085      0.000133     -0.000078      0.000000
    108 O2    c      -0.000070     -0.000079      0.000043      0.000000
    109 O2    c      -0.000113     -0.000065     -0.000159      0.000000
    110 O2    c      -0.000041      0.000208      0.000054      0.000000
    111 O2    c      -0.000249      0.000336     -0.000849      0.000000
    112 O2    c      -0.000167      0.000315     -0.000064      0.000000
    113 O2    c      -0.000608     -0.000065     -0.001180      0.000000
    114 O2    c      -0.000011      0.000007      0.000028      0.000000
    115 O3    c      -0.001006     -0.000087      0.000835      0.000000
    116 O2    c      -0.000109     -0.000014     -0.000101      0.000000
    117 O2    c      -0.000091      0.000243     -0.000111      0.000000
    118 O2    c      -0.000074      0.000102     -0.000026      0.000000
    119 O2    c      -0.000154      0.000185      0.000111      0.000000
    120 O2    c      -0.000065     -0.000102     -0.000034      0.000000
    121 O2    c      -0.000070      0.000014     -0.000117      0.000000
    122 O2    c       0.000016      0.000105     -0.000144      0.000000
    123 O2    c      -0.000093      0.000265     -0.000190      0.000000
    124 O3    c      -0.000258      0.001099     -0.000223      0.000000
    125 O2    c      -0.000099      0.000196     -0.000077      0.000000
    126 O2    c      -0.000134     -0.000013     -0.000023      0.000000
    127 O2    c      -0.000838      0.000188     -0.000291      0.000000
    128 O2    c      -0.000072      0.000042     -0.000102      0.000000
    129 O2    c      -0.000116      0.000269     -0.000153      0.000000
    130 O2    c      -0.000042      0.000133     -0.000184      0.000000
    131 O2    c      -0.000214      0.000536      0.000409      0.000000
    132 O2    c      -0.000139     -0.000049     -0.000100      0.000000
    133 O2    c      -0.000124     -0.000026     -0.000158      0.000000
    134 O2    c      -0.000731      0.000447     -0.000638      0.000000
    135 O2    c      -0.000039      0.000256     -0.000097      0.000000
    136 O2    c      -0.000125      0.000225      0.000009      0.000000
    137 O2    c      -0.000099      0.000108      0.000004      0.000000
    138 O2    c      -0.000086      0.000161      0.000456      0.000000
    139 O2    c      -0.001296      0.000872     -0.001220      0.000000
    140 O2    c      -0.000057      0.000021     -0.000078      0.000000
    141 O2    c      -0.000068      0.000260     -0.000170      0.000000
    142 O2    c      -0.000060      0.000142     -0.000097      0.000000
    143 O2    c      -0.000144      0.000128      0.000265      0.000000
    144 O2    c      -0.000164      0.000031     -0.000054      0.000000
    145 O2    c      -0.000165     -0.000039     -0.000116      0.000000
    146 O2    c      -0.000156      0.000734      0.000403      0.000000
    147 O2    c      -0.000058      0.000229     -0.000094      0.000000
    148 O2    c      -0.000144      0.000196     -0.000044      0.000000
    149 O2    c      -0.000105      0.000125     -0.000058      0.000000
    150 O2    c       0.000165     -0.000247      0.000124      0.000000
    151 O2    c      -0.000207     -0.000325      0.002211      0.000000
    152 O2    c       0.000073     -0.000104      0.000270      0.000000
    153 O2    c      -0.000082      0.000199      0.000051      0.000000
    154 O2    c      -0.000057      0.000106      0.000003      0.000000
    155 O2    c      -0.000215      0.000310     -0.000211      0.000000
    156 O2    c       0.000155     -0.000312     -0.000861      0.000000
    157 O2    c      -0.000113      0.000000     -0.000094      0.000000
    158 O2    c      -0.000138      0.000140     -0.000142      0.000000
    159 O2    c      -0.000056      0.000191      0.000077      0.000000
    160 O2    c       0.000364      0.000107     -0.003122      0.000000
    161 O2    c      -0.000075      0.000207      0.000030      0.000000
    162 O2    c      -0.000206      0.000024      0.000040      0.000000
    163 O3    c       0.001513     -0.000191      0.005413      0.000000
    164 O2    c      -0.000102     -0.000028     -0.000064      0.000000
    165 O2    c      -0.000032      0.000218     -0.000018      0.000000
    166 O2    c      -0.000125      0.000120      0.000000      0.000000
    167 O2    c      -0.000117      0.000181      0.000137      0.000000
    168 O2    c      -0.000217      0.000072      0.000182      0.000000
    169 O2    c      -0.000066      0.000022     -0.000144      0.000000
    170 O2    c       0.000176     -0.000155     -0.000575      0.000000
    171 O2    c      -0.000127      0.000250     -0.000214      0.000000
    172 O3    c      -0.001036      0.000439     -0.001470      0.000000
    173 O2    c      -0.000109      0.000177     -0.000050      0.000000
    174 O2    c      -0.000059      0.000098     -0.000137      0.000000
    175 O2    c      -0.000094      0.000110      0.000182      0.000000
    176 O2    c      -0.000098      0.000214      0.000114      0.000000
    177 O1    c       0.005216     -0.005466      0.005113      0.000000
    178 O2    c      -0.000090      0.000121     -0.000152      0.000000
    179 O2    c       0.000015     -0.000070      0.000281      0.000000
    180 O2    c      -0.000181      0.000142     -0.000041      0.000000
    181 F     c      -0.000088     -0.000004     -0.000266      0.000000
    182 F     c      -0.000059      0.000206     -0.000089      0.000000
    183 F     c       0.001102     -0.001281      0.000836      0.000000
    184 F     c      -0.000141      0.000200     -0.000039      0.000000
    185 F     c      -0.000131     -0.000103      0.000016      0.000000
    186 F     c      -0.000123      0.000085      0.000018      0.000000
    187 O2    s       0.000349     -0.000185      0.000108      0.000000
    188 O2    s      -0.000133      0.000185      0.000104      0.000000
    189 O3    s       0.000066      0.000068     -0.000691      0.000000
    190 O2    s      -0.000166      0.000245     -0.000225      0.000000
    191 O2    s       0.000281     -0.000217     -0.001459      0.000000
    192 O2    s       0.000013     -0.000077      0.000278      0.000000
    193 O2    s      -0.000119      0.000018      0.000083      0.000000
    194 O2    s      -0.000077      0.000283      0.000019      0.000000
    195 O2    s      -0.000177      0.000341      0.000303      0.000000
    196 O3    s      -0.000182      0.000201      0.001082      0.000000
    197 O2    s      -0.000093      0.000022      0.000259      0.000000
    198 O2    s      -0.000089      0.000166     -0.000030      0.000000
    199 O3    s       0.000720      0.000066      0.002038      0.000000
    200 O2    s      -0.000064      0.000252      0.000114      0.000000
    201 O2    s      -0.000113     -0.000010      0.000005      0.000000
    202 O2    s      -0.000121      0.000163     -0.000000      0.000000
    203 O2    s      -0.000004      0.000060     -0.000048      0.000000
    204 O2    s      -0.000262      0.000331     -0.000495      0.000000
    205 O2    s       0.000058      0.000247      0.000209      0.000000
    206 O2    s      -0.000156      0.000121      0.000120      0.000000
    207 O3    s       0.000055      0.000081     -0.000185      0.000000
    208 O2    s      -0.000268      0.000051     -0.000189      0.000000
    209 O2    s      -0.000090      0.000167      0.000025      0.000000
    210 O2    s      -0.000005     -0.000100      0.000023      0.000000
    211 O2    s      -0.000093      0.000082      0.000038      0.000000
    212 O2    s       0.000204     -0.000143      0.000535      0.000000
    213 O2    s      -0.000382      0.000438      0.000068      0.000000
    214 O2    s       0.000117     -0.000521     -0.000807      0.000000
    215 O2    s      -0.000128      0.000203     -0.000023      0.000000
    216 O2    s      -0.000017      0.000012     -0.000040      0.000000
    217 O2    s      -0.000159      0.000101     -0.000132      0.000000
    218 O3    s       0.000180      0.000009      0.000491      0.000000
    219 O2    s      -0.000291      0.000308     -0.000279      0.000000
    220 O2    s      -0.000178      0.000206     -0.000279      0.000000
    221 O2    s      -0.000349      0.000029      0.000374      0.000000
    222 O2    s      -0.000199      0.000172     -0.000184      0.000000
    223 O2    s      -0.000096      0.000077     -0.001011      0.000000
    224 O2    s      -0.000154     -0.000015      0.000022      0.000000
    225 O3    s      -0.000069      0.000302      0.000129      0.000000
    226 O2    s       0.000032     -0.000024      0.000318      0.000000
    227 O2    s      -0.000098      0.000161     -0.001182      0.000000
    228 O2    s      -0.000112     -0.000167     -0.000142      0.000000
    229 O2    s      -0.000053      0.000038     -0.000008      0.000000
    230 O2    s      -0.000816      0.000701      0.001071      0.000000
    231 O2    s      -0.000185      0.000449     -0.000309      0.000000
    232 O2    s      -0.000679      0.000830     -0.000632      0.000000
    233 O2    s      -0.000068      0.000064      0.000044      0.000000
    234 O2    s      -0.000065     -0.000129     -0.000233      0.000000
    235 O2    s      -0.000086     -0.000041      0.000198      0.000000
    236 O2    s      -0.000085      0.000254     -0.000048      0.000000
    237 O2    s      -0.000768      0.000706     -0.000201      0.000000
    238 O2    s      -0.000105      0.000190      0.000127      0.000000
    239 O2    s      -0.000127      0.000311     -0.001163      0.000000
    240 O2    s      -0.000099      0.000090     -0.000232      0.000000
    241 O3    s       0.001789     -0.000465     -0.000650      0.000000
    242 O2    s      -0.000114      0.000016      0.000086      0.000000
    243 O2    s      -0.000038      0.000218      0.000092      0.000000
    244 O2    s      -0.000149      0.000109     -0.000177      0.000000
    245 O2    s      -0.000134      0.000225     -0.000319      0.000000
    246 O2    s       0.000129     -0.000148      0.000255      0.000000
    247 O2    s      -0.000096      0.000044      0.000090      0.000000
    248 O2    s      -0.000279     -0.000077      0.000080      0.000000
    249 O2    s      -0.000166      0.000344      0.000248      0.000000
    250 O3    s       0.000457     -0.001368      0.000228      0.000000
    251 O2    s      -0.000085      0.000136      0.000029      0.000000
    252 O2    s      -0.000108      0.000038      0.000039      0.000000
    253 O2    s      -0.000805      0.001047      0.000718      0.000000
    254 O2    s      -0.000068      0.000007      0.000044      0.000000
    255 O2    s      -0.000086      0.000260      0.000219      0.000000
    256 O2    s      -0.000128      0.000224      0.000183      0.000000
    257 O2    s      -0.000643      0.000419     -0.001733      0.000000
    258 O2    s      -0.000013     -0.000000     -0.000083      0.000000
    259 O2    s      -0.000129     -0.000039      0.000221      0.000000
    260 O2    s      -0.000042      0.000296      0.002306      0.000000
    261 O2    s      -0.000058      0.000245      0.000044      0.000000
    262 O2    s      -0.000150      0.000293     -0.000137      0.000000
    263 O2    s      -0.000109      0.000078     -0.000086      0.000000
    264 O2    s      -0.000383      0.000330      0.000117      0.000000
    265 O2    s       0.001532     -0.002185      0.000772      0.000000
    266 O2    s      -0.000076      0.000007     -0.000040      0.000000
    267 O2    s      -0.000129      0.000329      0.000281      0.000000
    268 O2    s      -0.000116      0.000201      0.000020      0.000000
    269 O2    s      -0.000087      0.000639     -0.001426      0.000000
    270 O2    s      -0.000164      0.000069     -0.000107      0.000000
    271 O2    s      -0.000067     -0.000013      0.000268      0.000000
    272 O2    s      -0.000590     -0.000114      0.000479      0.000000
    273 O2    s      -0.000073      0.000229      0.000031      0.000000
    274 O2    s      -0.000129      0.000223      0.000076      0.000000
    275 O2    s      -0.000103      0.000131     -0.000018      0.000000
    276 O2    s       0.000029     -0.000119     -0.000119      0.000000
    277 O2    s      -0.000405     -0.000003     -0.000652      0.000000
    278 O2    s      -0.000230      0.000086     -0.000188      0.000000
    279 O2    s      -0.000069      0.000254     -0.000153      0.000000
    280 O2    s      -0.000119      0.000074     -0.000036      0.000000
    281 O2    s      -0.000056      0.000157      0.000162      0.000000
    282 O2    s      -0.000256      0.000149      0.000815      0.000000
    283 O2    s      -0.000127      0.000144     -0.000037      0.000000
    284 O2    s       0.000133     -0.000316      0.000308      0.000000
    285 O2    s      -0.000192      0.000344     -0.000053      0.000000
    286 O2    s       0.000104      0.000756      0.001354      0.000000
    287 O2    s      -0.000055      0.000161     -0.000070      0.000000
    288 O2    s      -0.000090      0.000011     -0.000157      0.000000
    289 O3    s      -0.001387     -0.000854     -0.006131      0.000000
    290 O2    s      -0.000126      0.000048      0.000054      0.000000
    291 O2    s      -0.000096      0.000280     -0.000006      0.000000
    292 O2    s      -0.000098      0.000103     -0.000182      0.000000
    293 O2    s      -0.000195      0.000378     -0.000478      0.000000
    294 O2    s      -0.000202      0.000165     -0.000014      0.000000
    295 O2    s      -0.000104      0.000054      0.000084      0.000000
    296 O2    s      -0.000140      0.000174     -0.000265      0.000000
    297 O2    s      -0.000156      0.000275      0.000247      0.000000
    298 O3    s       0.001857     -0.000921      0.001048      0.000000
    299 O2    s      -0.000099      0.000207     -0.000010      0.000000
    300 O2    s      -0.000192     -0.000029      0.000183      0.000000
    301 O2    s      -0.000134     -0.000072     -0.000043      0.000000
    302 O2    s      -0.000076      0.000191     -0.000072      0.000000
    303 O1    s      -0.004923      0.005168     -0.003925      0.000000
    304 O2    s      -0.000171      0.000355      0.000012      0.000000
    305 O2    s      -0.000066      0.000201     -0.000147      0.000000
    306 O2    s      -0.000069      0.000025     -0.000129      0.000000
    307 F     s      -0.000220     -0.000063      0.000405      0.000000
    308 F     s      -0.000050      0.000222      0.000054      0.000000
    309 F     s       0.001056     -0.001317      0.006030      0.000000
    310 F     s      -0.000135      0.000259     -0.000046      0.000000
    311 F     s      -0.000297      0.000236     -0.000146      0.000000
    312 F     s      -0.000039      0.000003     -0.000195      0.000000
--------------------------------------------------------------------------------
  Maximum abs         0.005216      0.005466      0.009441      0.000000
--------------------------------------------------------------------------------


  Time to end of optimisation =      33.2995 seconds


  Peak dynamic memory used =      19.13 MB 


  Timing analysis for GULP :

--------------------------------------------------------------------------------
  Task / Subroutine                                          Time (Seconds)
--------------------------------------------------------------------------------
  Calculation of reciprocal space energy and derivatives          0.8131
  Calculation of real space energy and derivatives               29.0158
  Calculation of three-body energy and derivatives                3.0313
  Calculation of matrix inversion                                 0.3725
  Global summation overhead                                       0.0001
--------------------------------------------------------------------------------
  Total CPU time                                                 33.2995
--------------------------------------------------------------------------------


  Dump file written as out.res                                                 
  CIF file written as out.cif                                                 


  Job Finished at 08:31.51 16th November   2016                               

