********************************************************************************
*                       GENERAL UTILITY LATTICE PROGRAM                        *
*                                 Julian Gale                                  *
*                      Nanochemistry Research Institute                        *
*                           Department of Chemistry                            *
*                    Curtin University, Western Australia                      *
********************************************************************************
* Version = 4.2.0 * Last modified =  20th January 2014                         *
********************************************************************************
*  optimise     - perform optimisation run                                     *
*  conp         - constant pressure calculation                                *
*  qok          - running with non charge neutral cell is OK                   *
********************************************************************************

  Job Started  at 07:54.59 16th November   2016                               

  Number of CPUs =     1


  Total number of configurations input =   1

********************************************************************************
*  Input for Configuration =   1                                               *
********************************************************************************

  Formula = Si57Ge3O120F6                                               

  Number of irreducible atoms/shells =     312


  Total number atoms/shells =     312

  Dimensionality = 3               :  Bulk   


  Charge on solid   =  -6.000000 =>neutralising background added


  Cartesian lattice vectors (Angstroms) :

       11.931830    0.000000    0.000000
       -5.915448   10.398032    0.000000
        0.188572   -0.057054   29.516668

  Cell parameters (Angstroms/Degrees):

  a =      11.9318    alpha =  90.2773
  b =      11.9629    beta  =  89.6340
  c =      29.5173    gamma = 119.6356

  Initial cell volume =        3662.060691 Angs**3

  Temperature of configuration =  0.000     K 

  Pressure of configuration =         0.000 GPa 

  Fractional coordinates of asymmetric unit :

--------------------------------------------------------------------------------
   No.  Atomic       x           y          z         Charge      Occupancy
        Label      (Frac)      (Frac)     (Frac)        (e)         (Frac)  
--------------------------------------------------------------------------------
      1 Si    c    0.699600    0.375700    0.033890     4.00000    1.000000    
      2 Si    c    0.622556 *  0.324261 *  0.362302 *   4.00000    1.000000    
      3 Si    c    0.670613 *  0.296437 *  0.692647 *   4.00000    1.000000    
      4 Si    c    0.295328 *  0.620776 *  0.528126 *   4.00000    1.000000    
      5 Si    c    0.375156 *  0.679647 *  0.859547 *   4.00000    1.000000    
      6 Si    c    0.329022 *  0.704197 *  0.195163 *   4.00000    1.000000    
      7 Si    c    0.380369 *  0.700671 *  0.295772 *   4.00000    1.000000    
      8 Si    c    0.327666 *  0.628617 *  0.961841 *   4.00000    1.000000    
      9 Si    c    0.293701 *  0.675879 *  0.628726 *   4.00000    1.000000    
     10 Si    c    0.619369 *  0.306623 *  0.794028 *   4.00000    1.000000    
     11 Si    c    0.676002 *  0.380129 *  0.462438 *   4.00000    1.000000    
     12 Si    c    0.709963 *  0.324490 *  0.134009 *   4.00000    1.000000    
     13 Ge    c    0.541778 *  0.419834 *  0.962979 *   4.00000    1.000000    
     14 Si    c    0.584465 *  0.111400 *  0.298913 *   4.00000    1.000000    
     15 Si    c    0.882115 *  0.470002 *  0.628331 *   4.00000    1.000000    
     16 Si    c    0.467858 *  0.582747 *  0.462421 *   4.00000    1.000000    
     17 Si    c    0.415485 *  0.892482 *  0.795080 *   4.00000    1.000000    
     18 Si    c    0.120945 *  0.531949 *  0.129702 *   4.00000    1.000000    
     19 Si    c    0.418029 *  0.529189 *  0.360835 *   4.00000    1.000000    
     20 Si    c    0.113824 *  0.581443 *  0.028510 *   4.00000    1.000000    
     21 Si    c    0.464740 *  0.886027 *  0.693905 *   4.00000    1.000000    
     22 Ge    c    0.573053 *  0.474397 *  0.862800 *   4.00000    1.000000    
     23 Si    c    0.886010 *  0.418461 *  0.526897 *   4.00000    1.000000    
     24 Si    c    0.534530 *  0.113361 *  0.197621 *   4.00000    1.000000    
     25 Si    c    0.294190 *  0.395820 *  0.842850 *   4.00000    1.000000    
     26 Si    c    0.607346 *  0.905565 *  0.181893 *   4.00000    1.000000    
     27 Si    c    0.093732 *  0.697847 *  0.512989 *   4.00000    1.000000    
     28 Si    c    0.699639 *  0.601208 *  0.346890 *   4.00000    1.000000    
     29 Si    c    0.392899 *  0.094689 *  0.679197 *   4.00000    1.000000    
     30 Si    c    0.903863 *  0.303113 *  0.015768 *   4.00000    1.000000    
     31 Si    c    0.396933 *  0.302306 *  0.476627 *   4.00000    1.000000    
     32 Si    c    0.910743 *  0.603003 *  0.146087 *   4.00000    1.000000    
     33 Si    c    0.694466 *  0.101699 *  0.808352 *   4.00000    1.000000    
     34 Si    c    0.610913 *  0.708388 *  0.976146 *   4.00000    1.000000    
     35 Si    c    0.092017 *  0.398532 *  0.642761 *   4.00000    1.000000    
     36 Si    c    0.303767 *  0.902597 *  0.311623 *   4.00000    1.000000    
     37 Si    c    0.257895 *  0.341735 *  0.945828 *   4.00000    1.000000    
     38 Si    c    0.661605 *  0.909621 *  0.282378 *   4.00000    1.000000    
     39 Si    c    0.083474 *  0.747544 *  0.613495 *   4.00000    1.000000    
     40 Si    c    0.747725 *  0.660594 *  0.447431 *   4.00000    1.000000    
     41 Si    c    0.338354 *  0.094033 *  0.779929 *   4.00000    1.000000    
     42 Si    c    0.920129 *  0.253095 *  0.115535 *   4.00000    1.000000    
     43 Si    c    0.340504 *  0.250858 *  0.376094 *   4.00000    1.000000    
     44 Si    c    0.909373 *  0.656046 *  0.045467 *   4.00000    1.000000    
     45 Si    c    0.742598 *  0.087248 *  0.708061 *   4.00000    1.000000    
     46 Si    c    0.664506 *  0.754069 *  0.873188 *   4.00000    1.000000    
     47 Si    c    0.087416 *  0.340716 *  0.542337 *   4.00000    1.000000    
     48 Si    c    0.256191 *  0.912977 *  0.211172 *   4.00000    1.000000    
     49 Ge    c    0.971681 *  0.123310 *  0.962238 *   4.00000    1.000000    
     50 Si    c    0.880385 *  0.848536 *  0.296798 *   4.00000    1.000000    
     51 Si    c    0.146143 *  0.027397 *  0.627765 *   4.00000    1.000000    
     52 Si    c    0.026870 *  0.878422 *  0.462338 *   4.00000    1.000000    
     53 Si    c    0.114958 *  0.151864 *  0.792961 *   4.00000    1.000000    
     54 Si    c    0.855688 *  0.972943 *  0.130409 *   4.00000    1.000000    
     55 Si    c    0.122737 *  0.971286 *  0.361764 *   4.00000    1.000000    
     56 Si    c    0.854973 *  0.880504 *  0.028932 *   4.00000    1.000000    
     57 Si    c    0.023001 *  0.149857 *  0.692325 *   4.00000    1.000000    
     58 Si    c    0.874626 *  0.035549 *  0.858358 *   4.00000    1.000000    
     59 Si    c    0.148919 *  0.121704 *  0.527064 *   4.00000    1.000000    
     60 Si    c    0.976606 *  0.851548 *  0.195960 *   4.00000    1.000000    
     61 O3    c    0.944138 *  0.996785 *  0.996800 *   1.33043    1.000000    
     62 O2    c    0.002114 *  0.929131 *  0.328861 *   0.87073    1.000000    
     63 O2    c    0.064124 *  0.070503 *  0.658964 *   0.87073    1.000000    
     64 O2    c    0.068358 *  0.000748 *  0.494455 *   0.87073    1.000000    
     65 O2    c    0.993182 *  0.069877 *  0.824877 *   0.87073    1.000000    
     66 O2    c    0.935301 *  0.929556 *  0.162360 *   0.87073    1.000000    
     67 O2    c    0.341564 *  0.577361 *  0.328013 *   0.87073    1.000000    
     68 O2    c    0.415316 *  0.759674 *  0.661760 *   0.87073    1.000000    
     69 O2    c    0.238467 *  0.659224 *  0.995266 *   0.87073    1.000000    
     70 O3    c    0.657358 *  0.427630 *  0.824229 *   1.33043    1.000000    
     71 O2    c    0.587609 *  0.241712 *  0.166880 *   0.87073    1.000000    
     72 O2    c    0.760728 *  0.341582 *  0.494770 *   0.87073    1.000000    
     73 O3    c    0.575799 *  0.336754 *  0.004102 *   1.33043    1.000000    
     74 O2    c    0.754753 *  0.419142 *  0.659931 *   0.87073    1.000000    
     75 O2    c    0.661523 *  0.236935 *  0.330823 *   0.87073    1.000000    
     76 O2    c    0.418475 *  0.659121 *  0.495089 *   0.87073    1.000000    
     77 O2    c    0.247349 *  0.582768 *  0.161529 *   0.87073    1.000000    
     78 O2    c    0.339396 *  0.767426 *  0.828145 *   0.87073    1.000000    
     79 O3    c    0.133294 *  0.226385 *  0.968842 *   1.33043    1.000000    
     80 O2    c    0.787439 *  0.909898 *  0.302859 *   0.87073    1.000000    
     81 O2    c    0.082382 *  0.873633 *  0.633452 *   0.87073    1.000000    
     82 O2    c    0.872598 *  0.787448 *  0.467423 *   0.87073    1.000000    
     83 O2    c    0.211961 *  0.095683 *  0.800030 *   0.87073    1.000000    
     84 O2    c    0.921432 *  0.127342 *  0.135349 *   0.87073    1.000000    
     85 O2    c    0.214332 *  0.124894 *  0.356200 *   0.87073    1.000000    
     86 O2    c    0.907829 *  0.780104 *  0.024940 *   0.87073    1.000000    
     87 O2    c    0.868882 *  0.086414 *  0.687671 *   0.87073    1.000000    
     88 O2    c    0.779411 *  0.884144 *  0.852154 *   0.87073    1.000000    
     89 O2    c    0.086474 *  0.213763 *  0.522227 *   0.87073    1.000000    
     90 O2    c    0.131011 *  0.915279 *  0.191085 *   0.87073    1.000000    
     91 O2    c    0.933197 *  0.864196 *  0.246033 *   0.87073    1.000000    
     92 O2    c    0.136492 *  0.067033 *  0.577029 *   0.87073    1.000000    
     93 O3    c    0.929843 *  0.067205 *  0.908335 *   1.33043    1.000000    
     94 O2    c    0.065838 *  0.135862 *  0.742070 *   0.87073    1.000000    
     95 O2    c    0.864832 *  0.931906 *  0.079644 *   0.87073    1.000000    
     96 O2    c    0.067631 *  0.931710 *  0.411961 *   0.87073    1.000000    
     97 O3    c    0.891617 *  0.204293 *  0.976565 *   1.33043    1.000000    
     98 O2    c    0.799377 *  0.697172 *  0.308656 *   0.87073    1.000000    
     99 O2    c    0.296525 *  0.096067 *  0.640862 *   0.87073    1.000000    
    100 O2    c    0.096394 *  0.796232 *  0.474606 *   0.87073    1.000000    
    101 O2    c    0.185503 *  0.302496 *  0.806550 *   0.87073    1.000000    
    102 O2    c    0.704807 *  0.905350 *  0.143302 *   0.87073    1.000000    
    103 O2    c    0.204758 *  0.900645 *  0.350007 *   0.87073    1.000000    
    104 O2    c    0.705558 *  0.812511 *  0.013388 *   0.87073    1.000000    
    105 O2    c    0.092059 *  0.301444 *  0.681019 *   0.87073    1.000000    
    106 O2    c    0.795219 *  0.108785 *  0.846997 *   0.87073    1.000000    
    107 O2    c    0.300406 *  0.203724 *  0.514727 *   0.87073    1.000000    
    108 O2    c    0.909923 *  0.700251 *  0.184355 *   0.87073    1.000000    
    109 O2    c    0.326285 *  0.645240 *  0.245154 *   0.87073    1.000000    
    110 O2    c    0.352040 *  0.676670 *  0.578418 *   0.87073    1.000000    
    111 O2    c    0.324450 *  0.678682 *  0.911090 *   0.87073    1.000000    
    112 O2    c    0.670565 *  0.353838 *  0.742325 *   0.87073    1.000000    
    113 O2    c    0.649429 *  0.323366 *  0.084884 *   0.87073    1.000000    
    114 O2    c    0.678800 *  0.323743 *  0.412343 *   0.87073    1.000000    
    115 O3    c    0.373615 *  0.323904 *  0.963032 *   1.33043    1.000000    
    116 O2    c    0.671346 *  0.041433 *  0.301291 *   0.87073    1.000000    
    117 O2    c    0.950728 *  0.625923 *  0.631690 *   0.87073    1.000000    
    118 O2    c    0.623965 *  0.670189 *  0.465219 *   0.87073    1.000000    
    119 O2    c    0.326996 *  0.960782 *  0.798585 *   0.87073    1.000000    
    120 O2    c    0.053281 *  0.376039 *  0.132748 *   0.87073    1.000000    
    121 O2    c    0.330858 *  0.373376 *  0.357667 *   0.87073    1.000000    
    122 O2    c    0.041900 *  0.666321 *  0.025844 *   0.87073    1.000000    
    123 O2    c    0.621052 *  0.954149 *  0.690102 *   0.87073    1.000000    
    124 O3    c    0.682744 *  0.641146 *  0.853749 *   1.33043    1.000000    
    125 O2    c    0.955378 *  0.331046 *  0.523730 *   0.87073    1.000000    
    126 O2    c    0.378596 *  0.045453 *  0.193237 *   0.87073    1.000000    
    127 O2    c    0.769761 *  0.303406 *  0.010458 *   0.87073    1.000000    
    128 O2    c    0.698530 *  0.466334 *  0.339329 *   0.87073    1.000000    
    129 O2    c    0.527324 *  0.226364 *  0.670545 *   0.87073    1.000000    
    130 O2    c    0.227775 *  0.696637 *  0.505781 *   0.87073    1.000000    
    131 O2    c    0.299674 *  0.534596 *  0.839828 *   0.87073    1.000000    
    132 O2    c    0.473346 *  0.773043 *  0.173380 *   0.87073    1.000000    
    133 O2    c    0.303875 *  0.768370 *  0.318106 *   0.87073    1.000000    
    134 O2    c    0.473881 *  0.706265 *  0.980495 *   0.87073    1.000000    
    135 O2    c    0.225076 *  0.532391 *  0.650585 *   0.87073    1.000000    
    136 O2    c    0.693173 *  0.234337 *  0.815091 *   0.87073    1.000000    
    137 O2    c    0.532123 *  0.304393 *  0.484401 *   0.87073    1.000000    
    138 O2    c    0.780094 *  0.468387 *  0.155508 *   0.87073    1.000000    
    139 O2    c    0.780882 *  0.531902 *  0.027066 *   0.87073    1.000000    
    140 O2    c    0.466565 *  0.249586 *  0.356648 *   0.87073    1.000000    
    141 O2    c    0.743868 *  0.213022 *  0.688026 *   0.87073    1.000000    
    142 O2    c    0.214500 *  0.465138 *  0.523034 *   0.87073    1.000000    
    143 O2    c    0.528833 *  0.740945 *  0.857031 *   0.87073    1.000000    
    144 O2    c    0.254703 *  0.786593 *  0.190918 *   0.87073    1.000000    
    145 O2    c    0.536013 *  0.782820 *  0.300967 *   0.87073    1.000000    
    146 O2    c    0.273918 *  0.476783 *  0.963804 *   0.87073    1.000000    
    147 O2    c    0.209860 *  0.748704 *  0.633100 *   0.87073    1.000000    
    148 O2    c    0.462691 *  0.218727 *  0.799467 *   0.87073    1.000000    
    149 O2    c    0.748680 *  0.535797 *  0.467334 *   0.87073    1.000000    
    150 O2    c    0.794672 *  0.252387 *  0.136601 *   0.87073    1.000000    
    151 O2    c    0.234141 *  0.327056 *  0.891590 *   0.87073    1.000000    
    152 O2    c    0.680887 *  0.908494 *  0.228127 *   0.87073    1.000000    
    153 O2    c    0.086540 *  0.767099 *  0.559271 *   0.87073    1.000000    
    154 O2    c    0.768503 *  0.676265 *  0.393175 *   0.87073    1.000000    
    155 O2    c    0.319972 *  0.094000 *  0.725696 *   0.87073    1.000000    
    156 O2    c    0.915653 *  0.232613 *  0.061148 *   0.87073    1.000000    
    157 O2    c    0.323130 *  0.232302 *  0.430298 *   0.87073    1.000000    
    158 O2    c    0.910356 *  0.674585 *  0.099733 *   0.87073    1.000000    
    159 O2    c    0.763746 *  0.091997 *  0.762232 *   0.87073    1.000000    
    160 O2    c    0.679457 *  0.769261 *  0.928077 *   0.87073    1.000000    
    161 O2    c    0.088716 *  0.323578 *  0.596529 *   0.87073    1.000000    
    162 O2    c    0.235278 *  0.909838 *  0.265361 *   0.87073    1.000000    
    163 O3    c    0.596022 *  0.572576 *  0.987048 *   1.33043    1.000000    
    164 O2    c    0.442742 *  0.026293 *  0.321509 *   0.87073    1.000000    
    165 O2    c    0.966328 *  0.413049 *  0.651472 *   0.87073    1.000000    
    166 O2    c    0.410582 *  0.441676 *  0.485190 *   0.87073    1.000000    
    167 O2    c    0.556452 *  0.974668 *  0.818409 *   0.87073    1.000000    
    168 O2    c    0.037576 *  0.590040 *  0.153245 *   0.87073    1.000000    
    169 O2    c    0.560011 *  0.587213 *  0.337863 *   0.87073    1.000000    
    170 O2    c    0.032270 *  0.440104 *  0.005482 *   0.87073    1.000000    
    171 O2    c    0.404949 *  0.967669 *  0.670659 *   0.87073    1.000000    
    172 O3    c    0.426565 *  0.403890 *  0.830719 *   1.33043    1.000000    
    173 O2    c    0.969256 *  0.559028 *  0.503631 *   0.87073    1.000000    
    174 O2    c    0.593920 *  0.031568 *  0.173615 *   0.87073    1.000000    
    175 O2    c    0.584751 *  0.164932 *  0.248442 *   0.87073    1.000000    
    176 O2    c    0.831230 *  0.418375 *  0.577417 *   0.87073    1.000000    
    177 O1    c    0.604203 *  0.409840 *  0.912247 *   1.73396    1.000000    
    178 O2    c    0.412721 *  0.833491 *  0.744975 *   0.87073    1.000000    
    179 O2    c    0.171720 *  0.583826 *  0.078522 *   0.87073    1.000000    
    180 O2    c    0.415885 *  0.582392 *  0.411500 *   0.87073    1.000000    
    181 F     c    0.455236 *  0.904778 *  0.246132 *   0.56000    1.000000    
    182 F     c    0.092379 *  0.547434 *  0.577517 *   0.56000    1.000000    
    183 F     c    0.481169 *  0.526445 *  0.904862 *   0.56000    1.000000    
    184 F     c    0.540439 *  0.089435 *  0.743678 *   0.56000    1.000000    
    185 F     c    0.911032 *  0.452754 *  0.079755 *   0.56000    1.000000    
    186 F     c    0.548276 *  0.451660 *  0.411217 *   0.56000    1.000000    
    187 O3    s    0.936927 *  0.994976 *  0.997323 *  -3.33043    1.000000    
    188 O2    s    0.001920 *  0.924787 *  0.328935 *  -2.87073    1.000000    
    189 O2    s    0.068753 *  0.074573 *  0.659199 *  -2.87073    1.000000    
    190 O2    s    0.072679 *  0.000514 *  0.494490 *  -2.87073    1.000000    
    191 O2    s    0.993774 *  0.075388 *  0.824994 *  -2.87073    1.000000    
    192 O2    s    0.931011 *  0.925716 *  0.162535 *  -2.87073    1.000000    
    193 O2    s    0.353386 *  0.585181 *  0.328023 *  -2.87073    1.000000    
    194 O2    s    0.407809 *  0.763887 *  0.661615 *  -2.87073    1.000000    
    195 O2    s    0.235440 *  0.648234 *  0.995051 *  -2.87073    1.000000    
    196 O3    s    0.647320 *  0.417466 *  0.823550 *  -3.33043    1.000000    
    197 O2    s    0.594926 *  0.237086 *  0.166614 *  -2.87073    1.000000    
    198 O2    s    0.764856 *  0.353525 *  0.494718 *  -2.87073    1.000000    
    199 O3    s    0.586057 *  0.347068 *  0.004082 *  -3.33043    1.000000    
    200 O2    s    0.759392 *  0.411892 *  0.659995 *  -2.87073    1.000000    
    201 O2    s    0.649498 *  0.232803 *  0.330729 *  -2.87073    1.000000    
    202 O2    s    0.410995 *  0.647304 *  0.495098 *  -2.87073    1.000000    
    203 O2    s    0.242647 *  0.589889 *  0.161682 *  -2.87073    1.000000    
    204 O2    s    0.350693 *  0.770430 *  0.828235 *  -2.87073    1.000000    
    205 O3    s    0.132167 *  0.229341 *  0.965953 *  -3.33043    1.000000    
    206 O2    s    0.784242 *  0.903306 *  0.300102 *  -2.87073    1.000000    
    207 O2    s    0.089257 *  0.876892 *  0.630809 *  -2.87073    1.000000    
    208 O2    s    0.876031 *  0.783989 *  0.464849 *  -2.87073    1.000000    
    209 O2    s    0.214621 *  0.101474 *  0.797257 *  -2.87073    1.000000    
    210 O2    s    0.914387 *  0.124039 *  0.132807 *  -2.87073    1.000000    
    211 O2    s    0.217617 *  0.121609 *  0.358805 *  -2.87073    1.000000    
    212 O2    s    0.902332 *  0.777611 *  0.027526 *  -2.87073    1.000000    
    213 O2    s    0.872353 *  0.093301 *  0.690251 *  -2.87073    1.000000    
    214 O2    s    0.777296 *  0.886627 *  0.855126 *  -2.87073    1.000000    
    215 O2    s    0.093242 *  0.217083 *  0.524798 *  -2.87073    1.000000    
    216 O2    s    0.127507 *  0.908261 *  0.193653 *  -2.87073    1.000000    
    217 O2    s    0.932199 *  0.861005 *  0.246051 *  -2.87073    1.000000    
    218 O2    s    0.138996 *  0.068787 *  0.577069 *  -2.87073    1.000000    
    219 O3    s    0.927676 *  0.068829 *  0.907807 *  -3.33043    1.000000    
    220 O2    s    0.066593 *  0.139285 *  0.742247 *  -2.87073    1.000000    
    221 O2    s    0.862703 *  0.930805 *  0.079724 *  -2.87073    1.000000    
    222 O2    s    0.069303 *  0.930207 *  0.411928 *  -2.87073    1.000000    
    223 O3    s    0.899496 *  0.207095 *  0.979172 *  -3.33043    1.000000    
    224 O2    s    0.797874 *  0.703490 *  0.311263 *  -2.87073    1.000000    
    225 O2    s    0.290241 *  0.088543 *  0.643384 *  -2.87073    1.000000    
    226 O2    s    0.088715 *  0.794972 *  0.477204 *  -2.87073    1.000000    
    227 O2    s    0.189058 *  0.296175 *  0.808791 *  -2.87073    1.000000    
    228 O2    s    0.710956 *  0.912610 *  0.145889 *  -2.87073    1.000000    
    229 O2    s    0.206224 *  0.908345 *  0.347310 *  -2.87073    1.000000    
    230 O2    s    0.711456 *  0.809071 *  0.011227 *  -2.87073    1.000000    
    231 O2    s    0.084732 *  0.295325 *  0.678296 *  -2.87073    1.000000    
    232 O2    s    0.793660 *  0.100364 *  0.844400 *  -2.87073    1.000000    
    233 O2    s    0.294245 *  0.205157 *  0.512116 *  -2.87073    1.000000    
    234 O2    s    0.917124 *  0.706310 *  0.181625 *  -2.87073    1.000000    
    235 O2    s    0.332035 *  0.656850 *  0.245189 *  -2.87073    1.000000    
    236 O2    s    0.340383 *  0.670908 *  0.578390 *  -2.87073    1.000000    
    237 O2    s    0.329842 *  0.673645 *  0.911145 *  -2.87073    1.000000    
    238 O2    s    0.665438 *  0.342980 *  0.742197 *  -2.87073    1.000000    
    239 O2    s    0.660998 *  0.328913 *  0.084765 *  -2.87073    1.000000    
    240 O2    s    0.672698 *  0.329610 *  0.412319 *  -2.87073    1.000000    
    241 O3    s    0.374324 *  0.333023 *  0.961190 *  -3.33043    1.000000    
    242 O2    s    0.661327 *  0.034779 *  0.299042 *  -2.87073    1.000000    
    243 O2    s    0.957550 *  0.622636 *  0.629438 *  -2.87073    1.000000    
    244 O2    s    0.620900 *  0.660189 *  0.463051 *  -2.87073    1.000000    
    245 O2    s    0.337247 *  0.967307 *  0.796318 *  -2.87073    1.000000    
    246 O2    s    0.046393 *  0.379233 *  0.130635 *  -2.87073    1.000000    
    247 O2    s    0.340811 *  0.376574 *  0.359924 *  -2.87073    1.000000    
    248 O2    s    0.035745 *  0.656450 *  0.028147 *  -2.87073    1.000000    
    249 O2    s    0.617665 *  0.961002 *  0.692371 *  -2.87073    1.000000    
    250 O3    s    0.673165 *  0.641668 *  0.856504 *  -3.33043    1.000000    
    251 O2    s    0.962076 *  0.341097 *  0.526018 *  -2.87073    1.000000    
    252 O2    s    0.381881 *  0.038632 *  0.195560 *  -2.87073    1.000000    
    253 O2    s    0.777006 *  0.310959 *  0.013519 *  -2.87073    1.000000    
    254 O2    s    0.690867 *  0.465927 *  0.342501 *  -2.87073    1.000000    
    255 O2    s    0.527874 *  0.219668 *  0.673755 *  -2.87073    1.000000    
    256 O2    s    0.220577 *  0.688962 *  0.508873 *  -2.87073    1.000000    
    257 O2    s    0.307053 *  0.535918 *  0.842233 *  -2.87073    1.000000    
    258 O2    s    0.472578 *  0.779874 *  0.176540 *  -2.87073    1.000000    
    259 O2    s    0.311744 *  0.775569 *  0.315082 *  -2.87073    1.000000    
    260 O2    s    0.472487 *  0.698389 *  0.978083 *  -2.87073    1.000000    
    261 O2    s    0.218129 *  0.533030 *  0.647490 *  -2.87073    1.000000    
    262 O2    s    0.685962 *  0.226925 *  0.812225 *  -2.87073    1.000000    
    263 O2    s    0.532678 *  0.311988 *  0.481281 *  -2.87073    1.000000    
    264 O2    s    0.786680 *  0.467750 *  0.152263 *  -2.87073    1.000000    
    265 O2    s    0.786656 *  0.529711 *  0.029649 *  -2.87073    1.000000    
    266 O2    s    0.469066 *  0.257528 *  0.359294 *  -2.87073    1.000000    
    267 O2    s    0.735999 *  0.208005 *  0.690646 *  -2.87073    1.000000    
    268 O2    s    0.209081 *  0.467882 *  0.525622 *  -2.87073    1.000000    
    269 O2    s    0.526028 *  0.735410 *  0.858997 *  -2.87073    1.000000    
    270 O2    s    0.262713 *  0.791705 *  0.193516 *  -2.87073    1.000000    
    271 O2    s    0.533372 *  0.788111 *  0.298423 *  -2.87073    1.000000    
    272 O2    s    0.278283 *  0.479445 *  0.961694 *  -2.87073    1.000000    
    273 O2    s    0.204812 *  0.740838 *  0.630533 *  -2.87073    1.000000    
    274 O2    s    0.464517 *  0.213484 *  0.796803 *  -2.87073    1.000000    
    275 O2    s    0.740922 *  0.533158 *  0.464694 *  -2.87073    1.000000    
    276 O2    s    0.799461 *  0.260121 *  0.134075 *  -2.87073    1.000000    
    277 O2    s    0.242502 *  0.335324 *  0.892388 *  -2.87073    1.000000    
    278 O2    s    0.671120 *  0.908304 *  0.228985 *  -2.87073    1.000000    
    279 O2    s    0.086961 *  0.757738 *  0.560136 *  -2.87073    1.000000    
    280 O2    s    0.759087 *  0.666742 *  0.394053 *  -2.87073    1.000000    
    281 O2    s    0.329569 *  0.094058 *  0.726530 *  -2.87073    1.000000    
    282 O2    s    0.915003 *  0.241866 *  0.062224 *  -2.87073    1.000000    
    283 O2    s    0.332705 *  0.241612 *  0.429376 *  -2.87073    1.000000    
    284 O2    s    0.910312 *  0.665108 *  0.098833 *  -2.87073    1.000000    
    285 O2    s    0.754309 *  0.092472 *  0.761312 *  -2.87073    1.000000    
    286 O2    s    0.670831 *  0.761379 *  0.927585 *  -2.87073    1.000000    
    287 O2    s    0.088922 *  0.333250 *  0.595611 *  -2.87073    1.000000    
    288 O2    s    0.244654 *  0.909422 *  0.264433 *  -2.87073    1.000000    
    289 O3    s    0.593400 *  0.575563 *  0.984047 *  -3.33043    1.000000    
    290 O2    s    0.442606 *  0.021697 *  0.318074 *  -2.87073    1.000000    
    291 O2    s    0.971265 *  0.417614 *  0.648108 *  -2.87073    1.000000    
    292 O2    s    0.415267 *  0.441367 *  0.481877 *  -2.87073    1.000000    
    293 O2    s    0.556278 *  0.979527 *  0.814958 *  -2.87073    1.000000    
    294 O2    s    0.032443 *  0.585172 *  0.149986 *  -2.87073    1.000000    
    295 O2    s    0.560268 *  0.582519 *  0.341222 *  -2.87073    1.000000    
    296 O2    s    0.027391 *  0.440599 *  0.008926 *  -2.87073    1.000000    
    297 O2    s    0.410051 *  0.972955 *  0.674007 *  -2.87073    1.000000    
    298 O3    s    0.422202 *  0.408015 *  0.834249 *  -3.33043    1.000000    
    299 O2    s    0.974163 *  0.559343 *  0.507058 *  -2.87073    1.000000    
    300 O2    s    0.589010 *  0.026364 *  0.177007 *  -2.87073    1.000000    
    301 O2    s    0.579395 *  0.153863 *  0.248356 *  -2.87073    1.000000    
    302 O2    s    0.842268 *  0.423780 *  0.577444 *  -2.87073    1.000000    
    303 O1    s    0.597219 *  0.414805 *  0.913137 *  -3.73396    1.000000    
    304 O2    s    0.418313 *  0.844909 *  0.744928 *  -2.87073    1.000000    
    305 O2    s    0.160579 *  0.578279 *  0.078590 *  -2.87073    1.000000    
    306 O2    s    0.421451 *  0.576935 *  0.411504 *  -2.87073    1.000000    
    307 F     s    0.455058 *  0.904509 *  0.246059 *  -1.56000    1.000000    
    308 F     s    0.092714 *  0.547560 *  0.577464 *  -1.56000    1.000000    
    309 F     s    0.486694 *  0.522521 *  0.903065 *  -1.56000    1.000000    
    310 F     s    0.540229 *  0.088828 *  0.743647 *  -1.56000    1.000000    
    311 F     s    0.910981 *  0.452632 *  0.079609 *  -1.56000    1.000000    
    312 F     s    0.548538 *  0.451376 *  0.411143 *  -1.56000    1.000000    
--------------------------------------------------------------------------------



********************************************************************************
*  General input information                                                   *
********************************************************************************

  Species output for all configurations : 

--------------------------------------------------------------------------------
  Species    Type    Atomic    Atomic    Charge       Radii (Angs)     Library
                     Number     Mass       (e)     Cova   Ionic  VDW   Symbol
--------------------------------------------------------------------------------
    Si       Core       14      28.09   4.000000   1.200  0.000  2.100          
    O1       Core        8      16.00   1.733957   0.730  0.000  1.360          
    O1       Shell       8       0.00  -3.733957   0.730  0.000  1.360          
    O2       Core        8      16.00   0.870733   0.730  0.000  1.360          
    O2       Shell       8       0.00  -2.870733   0.730  0.000  1.360          
    O3       Core        8      16.00   1.330431   0.730  0.000  1.360          
    O3       Shell       8       0.00  -3.330431   0.730  0.000  1.360          
    F        Core        9      19.00   0.560000   0.710  0.000  1.300          
    F        Shell       9       0.00  -1.560000   0.710  0.000  1.300          
    Ge       Core       32      72.61   4.000000   1.170  0.000  1.750          
--------------------------------------------------------------------------------


  Lattice summation method               =    Ewald          (3-D)
                                         =    Parry          (2-D)
                                         =    Saunders et al (1-D)
  Accuracy factor for lattice sums       =   12.000


  Time limit = Infinity

  Maximum range for interatomic potentials =        16.000000 Angstroms

  Taper potentials to zero over   1.0000 Angstroms using polynomial

  General interatomic potentials :

--------------------------------------------------------------------------------
Atom  Types   Potential         A         B         C         D     Cutoffs(Ang)
  1     2                                                            Min    Max 
--------------------------------------------------------------------------------
Si   c O1   s Buckingham    0.132E+04 0.318      10.1      0.00     0.000 16.000
Si   c O2   s Buckingham    0.132E+04 0.318      10.1      0.00     0.000 16.000
Si   c O3   s Buckingham    0.132E+04 0.318      10.1      0.00     0.000 16.000
Ge   c O1   s Buckingham    0.150E+04 0.326      16.8      0.00     0.000 16.000
Ge   c O2   s Buckingham    0.150E+04 0.326      16.8      0.00     0.000 16.000
Ge   c O3   s Buckingham    0.150E+04 0.326      16.8      0.00     0.000 16.000
O1   s O1   s Buckingham    0.228E+05 0.149      10.9      0.00     0.000 16.000
O1   s O2   s Buckingham    0.228E+05 0.149      10.9      0.00     0.000 16.000
O1   s O3   s Buckingham    0.228E+05 0.149      10.9      0.00     0.000 16.000
O2   s O2   s Buckingham    0.228E+05 0.149      10.9      0.00     0.000 16.000
O2   s O3   s Buckingham    0.228E+05 0.149      10.9      0.00     0.000 16.000
O3   s O3   s Buckingham    0.228E+05 0.149      10.9      0.00     0.000 16.000
Si   c F    s Buckingham     977.     0.282      0.00      0.00     0.000 16.000
Ge   c F    s Buckingham     681.     0.320      0.00      0.00     0.000 16.000
F    s F    s Buckingham     540.     0.262      0.00      0.00     0.000 16.000
O1   s F    s Buckingham    0.168E+04 0.268      0.00      0.00     0.000 16.000
O2   s F    s Buckingham    0.168E+04 0.268      0.00      0.00     0.000 16.000
O3   s F    s Buckingham    0.168E+04 0.268      0.00      0.00     0.000 16.000
O2   c O2   s Spring (c-s)   76.0      0.00      0.00      0.00     0.000  0.800
O3   c O3   s Spring (c-s)   128.      0.00      0.00      0.00     0.000  0.800
O1   c O1   s Spring (c-s)   180.      0.00      0.00      0.00     0.000  0.800
F    c F    s Spring (c-s)   33.5      0.00      0.00      0.00     0.000  0.800
--------------------------------------------------------------------------------

  General Three-body potentials :

  Harmonic form:

--------------------------------------------------------------------------------
Atom    Atom    Atom           Force Constants            Theta     Cutoffs  
  1       2       3     (eVrad**-2/eVrad**-3/eVrad**-4)   (deg)  1-2  1-3  2-3
--------------------------------------------------------------------------------
Si    c O1    s O1    s  1.261        0.0000    0.0000   109.470 0.00 0.00 0.00
                                                                 1.90 1.90 3.50
Si    c O1    s O2    s  1.261        0.0000    0.0000   109.470 0.00 0.00 0.00
                                                                 1.90 1.90 3.50
Si    c O2    s O2    s  1.261        0.0000    0.0000   109.470 0.00 0.00 0.00
                                                                 1.90 1.90 3.50
--------------------------------------------------------------------------------

********************************************************************************
*  Output for configuration   1                                                *
********************************************************************************


  Components of energy : 

--------------------------------------------------------------------------------
  Interatomic potentials     =        2061.70217654 eV
  Three-body potentials      =           0.44619469 eV
  Monopole - monopole (real) =       -6611.65367918 eV
  Monopole - monopole (recip)=       -3170.17037521 eV
  Monopole - monopole (total)=       -9781.82405439 eV
  Neutralising energy        =          -6.45694022 eV
--------------------------------------------------------------------------------
  Total lattice energy       =       -7726.13262339 eV
--------------------------------------------------------------------------------
  Total lattice energy       =         -745453.6934 kJ/(mole unit cells)
--------------------------------------------------------------------------------


  Number of variables =      939

  Maximum number of calculations  =          5000
  Maximum Hessian update interval =            10
  Maximum step size               =   0.100000000
  Maximum parameter tolerance     =   0.000010000
  Maximum function  tolerance     =   0.000010000
  Maximum gradient  tolerance     =   0.001000000
  Maximum gradient  component     =   0.010000000

  Symmetry not applied to optimisation

  Cell parameters to be optimised using strains

  Newton-Raphson optimiser to be used

  BFGS hessian update to be used

  Dumpfile to be written after every cycle

  Start of bulk optimisation :

  Cycle:      0 Energy:     -7726.132623  Gnorm:      0.000182  CPU:    2.017
  ** Hessian calculated **
  Cycle:      1 Energy:     -7726.133727  Gnorm:      0.000099  CPU:    6.576
  Cycle:      2 Energy:     -7726.134002  Gnorm:      0.000069  CPU:   10.757
  Cycle:      3 Energy:     -7726.134071  Gnorm:      0.000041  CPU:   14.939
  Cycle:      4 Energy:     -7726.134083  Gnorm:      0.000030  CPU:   17.766


  **** Optimisation achieved ****


  Final energy =   -7726.13408884 eV
  Final Gnorm  =       0.00002104

  Components of energy : 

--------------------------------------------------------------------------------
  Interatomic potentials     =        2061.66133567 eV
  Three-body potentials      =           0.44570071 eV
  Monopole - monopole (real) =       -6611.74478962 eV
  Monopole - monopole (recip)=       -3170.03966174 eV
  Monopole - monopole (total)=       -9781.78445136 eV
  Neutralising energy        =          -6.45667385 eV
--------------------------------------------------------------------------------
  Total lattice energy       =       -7726.13408884 eV
--------------------------------------------------------------------------------
  Total lattice energy       =         -745453.8348 kJ/(mole unit cells)
--------------------------------------------------------------------------------

  Final fractional coordinates of atoms :

--------------------------------------------------------------------------------
   No.  Atomic        x           y          z          Radius
        Label       (Frac)      (Frac)     (Frac)       (Angs) 
--------------------------------------------------------------------------------
     1  Si    c     0.699600    0.375700    0.033890    0.000000
     2  Si    c     0.622330    0.324889    0.362073    0.000000
     3  Si    c     0.669693    0.296906    0.692439    0.000000
     4  Si    c     0.293855    0.621004    0.527511    0.000000
     5  Si    c     0.375244    0.679790    0.858998    0.000000
     6  Si    c     0.330216    0.706150    0.194530    0.000000
     7  Si    c     0.380672    0.701454    0.295156    0.000000
     8  Si    c     0.327616    0.629292    0.961305    0.000000
     9  Si    c     0.292878    0.676494    0.628128    0.000000
    10  Si    c     0.618144    0.306357    0.793856    0.000000
    11  Si    c     0.674899    0.380990    0.462229    0.000000
    12  Si    c     0.711353    0.325823    0.133989    0.000000
    13  Ge    c     0.542019    0.420370    0.963067    0.000000
    14  Si    c     0.584940    0.112084    0.298850    0.000000
    15  Si    c     0.881182    0.470703    0.628164    0.000000
    16  Si    c     0.466583    0.583311    0.461726    0.000000
    17  Si    c     0.414652    0.892186    0.794461    0.000000
    18  Si    c     0.122236    0.533732    0.129056    0.000000
    19  Si    c     0.417617    0.529496    0.360138    0.000000
    20  Si    c     0.113721    0.582278    0.027873    0.000000
    21  Si    c     0.464137    0.886542    0.693282    0.000000
    22  Ge    c     0.572920    0.474704    0.862805    0.000000
    23  Si    c     0.884579    0.418927    0.526748    0.000000
    24  Si    c     0.535723    0.114959    0.197589    0.000000
    25  Si    c     0.294251    0.395807    0.842543    0.000000
    26  Si    c     0.608714    0.907479    0.181542    0.000000
    27  Si    c     0.092177    0.698138    0.512625    0.000000
    28  Si    c     0.699328    0.601667    0.346359    0.000000
    29  Si    c     0.392111    0.095074    0.678737    0.000000
    30  Si    c     0.904070    0.303687    0.015427    0.000000
    31  Si    c     0.395649    0.302978    0.476123    0.000000
    32  Si    c     0.911942    0.604543    0.145641    0.000000
    33  Si    c     0.693470    0.101464    0.807941    0.000000
    34  Si    c     0.610710    0.709032    0.975888    0.000000
    35  Si    c     0.091172    0.399274    0.642374    0.000000
    36  Si    c     0.304140    0.903328    0.311331    0.000000
    37  Si    c     0.258095    0.342395    0.945562    0.000000
    38  Si    c     0.662044    0.910456    0.282053    0.000000
    39  Si    c     0.082515    0.748141    0.613130    0.000000
    40  Si    c     0.746577    0.661310    0.446922    0.000000
    41  Si    c     0.337325    0.093594    0.779475    0.000000
    42  Si    c     0.921591    0.254718    0.115203    0.000000
    43  Si    c     0.340137    0.251327    0.375563    0.000000
    44  Si    c     0.909061    0.656477    0.045020    0.000000
    45  Si    c     0.741886    0.087766    0.707632    0.000000
    46  Si    c     0.664542    0.754338    0.872898    0.000000
    47  Si    c     0.085923    0.341054    0.541966    0.000000
    48  Si    c     0.257295    0.914741    0.210870    0.000000
    49  Ge    c     0.971837    0.123984    0.961803    0.000000
    50  Si    c     0.880476    0.848917    0.296339    0.000000
    51  Si    c     0.145439    0.028085    0.627318    0.000000
    52  Si    c     0.025762    0.878969    0.461882    0.000000
    53  Si    c     0.114465    0.152117    0.792499    0.000000
    54  Si    c     0.857032    0.974624    0.129954    0.000000
    55  Si    c     0.122704    0.971616    0.361363    0.000000
    56  Si    c     0.854925    0.881202    0.028495    0.000000
    57  Si    c     0.022479    0.150721    0.691898    0.000000
    58  Si    c     0.874217    0.035989    0.857951    0.000000
    59  Si    c     0.147628    0.122209    0.526629    0.000000
    60  Si    c     0.977677    0.853102    0.195553    0.000000
    61  O3    c     0.943960    0.996981    0.996153    0.000000
    62  O2    c     0.002207    0.929112    0.328402    0.000000
    63  O2    c     0.063543    0.071425    0.658481    0.000000
    64  O2    c     0.067162    0.001274    0.494002    0.000000
    65  O2    c     0.992359    0.070323    0.824278    0.000000
    66  O2    c     0.936535    0.931005    0.161849    0.000000
    67  O2    c     0.341449    0.577710    0.327194    0.000000
    68  O2    c     0.414790    0.760398    0.661024    0.000000
    69  O2    c     0.238117    0.660020    0.994535    0.000000
    70  O3    c     0.656563    0.427105    0.824239    0.000000
    71  O2    c     0.589309    0.243629    0.167020    0.000000
    72  O2    c     0.759119    0.342223    0.494703    0.000000
    73  O3    c     0.575585    0.337015    0.004207    0.000000
    74  O2    c     0.753984    0.419903    0.659860    0.000000
    75  O2    c     0.661738    0.237437    0.330852    0.000000
    76  O2    c     0.416768    0.659446    0.494334    0.000000
    77  O2    c     0.248962    0.585065    0.160725    0.000000
    78  O2    c     0.339018    0.766982    0.827478    0.000000
    79  O3    c     0.133372    0.227099    0.968579    0.000000
    80  O2    c     0.787648    0.910352    0.302554    0.000000
    81  O2    c     0.081629    0.874344    0.633076    0.000000
    82  O2    c     0.871400    0.788354    0.466838    0.000000
    83  O2    c     0.210819    0.095155    0.799533    0.000000
    84  O2    c     0.923227    0.129055    0.134929    0.000000
    85  O2    c     0.214179    0.125178    0.355665    0.000000
    86  O2    c     0.907122    0.780291    0.024475    0.000000
    87  O2    c     0.868349    0.087239    0.687261    0.000000
    88  O2    c     0.779592    0.884435    0.851970    0.000000
    89  O2    c     0.084810    0.213963    0.521902    0.000000
    90  O2    c     0.132169    0.917269    0.190852    0.000000
    91  O2    c     0.933367    0.865085    0.245560    0.000000
    92  O2    c     0.135702    0.067509    0.576561    0.000000
    93  O3    c     0.930245    0.068728    0.907803    0.000000
    94  O2    c     0.065614    0.136837    0.741595    0.000000
    95  O2    c     0.865694    0.933380    0.079153    0.000000
    96  O2    c     0.067347    0.932312    0.411545    0.000000
    97  O3    c     0.891552    0.204681    0.976276    0.000000
    98  O2    c     0.799277    0.697494    0.308127    0.000000
    99  O2    c     0.295838    0.096696    0.640408    0.000000
   100  O2    c     0.094804    0.796434    0.474241    0.000000
   101  O2    c     0.185533    0.302615    0.806246    0.000000
   102  O2    c     0.706256    0.907464    0.142947    0.000000
   103  O2    c     0.204931    0.901083    0.349710    0.000000
   104  O2    c     0.705352    0.813343    0.013106    0.000000
   105  O2    c     0.091453    0.302306    0.680619    0.000000
   106  O2    c     0.794074    0.108448    0.846612    0.000000
   107  O2    c     0.299018    0.204521    0.514209    0.000000
   108  O2    c     0.911440    0.701925    0.183895    0.000000
   109  O2    c     0.327052    0.646703    0.244450    0.000000
   110  O2    c     0.350796    0.676997    0.577767    0.000000
   111  O2    c     0.324664    0.679228    0.910531    0.000000
   112  O2    c     0.669317    0.353855    0.742168    0.000000
   113  O2    c     0.650040    0.323843    0.084931    0.000000
   114  O2    c     0.678165    0.324622    0.412187    0.000000
   115  O3    c     0.373773    0.324727    0.962916    0.000000
   116  O2    c     0.671841    0.042127    0.301152    0.000000
   117  O2    c     0.949857    0.626639    0.631454    0.000000
   118  O2    c     0.622685    0.670887    0.464594    0.000000
   119  O2    c     0.325935    0.960256    0.798051    0.000000
   120  O2    c     0.054818    0.377867    0.132245    0.000000
   121  O2    c     0.330436    0.373681    0.356991    0.000000
   122  O2    c     0.041542    0.666901    0.025254    0.000000
   123  O2    c     0.620484    0.954753    0.689528    0.000000
   124  O3    c     0.682891    0.641372    0.853578    0.000000
   125  O2    c     0.953777    0.331364    0.523466    0.000000
   126  O2    c     0.379828    0.047308    0.193062    0.000000
   127  O2    c     0.769595    0.303424    0.010352    0.000000
   128  O2    c     0.698352    0.466804    0.338997    0.000000
   129  O2    c     0.526519    0.226896    0.670247    0.000000
   130  O2    c     0.226093    0.696764    0.505281    0.000000
   131  O2    c     0.299830    0.534609    0.839430    0.000000
   132  O2    c     0.474672    0.775155    0.172864    0.000000
   133  O2    c     0.304095    0.768976    0.317568    0.000000
   134  O2    c     0.473677    0.706946    0.980115    0.000000
   135  O2    c     0.224330    0.533115    0.650053    0.000000
   136  O2    c     0.691921    0.233901    0.814778    0.000000
   137  O2    c     0.530866    0.305295    0.484059    0.000000
   138  O2    c     0.781554    0.469915    0.155290    0.000000
   139  O2    c     0.780538    0.531940    0.026850    0.000000
   140  O2    c     0.466372    0.250101    0.356261    0.000000
   141  O2    c     0.743070    0.213623    0.687743    0.000000
   142  O2    c     0.212907    0.465356    0.522531    0.000000
   143  O2    c     0.528968    0.741166    0.856551    0.000000
   144  O2    c     0.255930    0.788598    0.190421    0.000000
   145  O2    c     0.536281    0.783534    0.300471    0.000000
   146  O2    c     0.273877    0.477477    0.963377    0.000000
   147  O2    c     0.209036    0.749302    0.632585    0.000000
   148  O2    c     0.461482    0.218206    0.799145    0.000000
   149  O2    c     0.747444    0.536669    0.467012    0.000000
   150  O2    c     0.796317    0.253977    0.136491    0.000000
   151  O2    c     0.234318    0.327280    0.891333    0.000000
   152  O2    c     0.681830    0.909889    0.227811    0.000000
   153  O2    c     0.085239    0.767516    0.558909    0.000000
   154  O2    c     0.767730    0.676801    0.392678    0.000000
   155  O2    c     0.318991    0.093875    0.725251    0.000000
   156  O2    c     0.916606    0.233845    0.060836    0.000000
   157  O2    c     0.322284    0.232851    0.429756    0.000000
   158  O2    c     0.910727    0.675578    0.099271    0.000000
   159  O2    c     0.762861    0.092104    0.761797    0.000000
   160  O2    c     0.679217    0.769608    0.927795    0.000000
   161  O2    c     0.087526    0.324123    0.596150    0.000000
   162  O2    c     0.236102    0.911139    0.265048    0.000000
   163  O3    c     0.595775    0.573265    0.986922    0.000000
   164  O2    c     0.443148    0.026763    0.321382    0.000000
   165  O2    c     0.965574    0.413866    0.651230    0.000000
   166  O2    c     0.409130    0.442314    0.484547    0.000000
   167  O2    c     0.555508    0.974287    0.817862    0.000000
   168  O2    c     0.039022    0.591935    0.152636    0.000000
   169  O2    c     0.559675    0.587475    0.337212    0.000000
   170  O2    c     0.032071    0.440813    0.004947    0.000000
   171  O2    c     0.404345    0.968213    0.670063    0.000000
   172  O3    c     0.426624    0.403803    0.830540    0.000000
   173  O2    c     0.967572    0.559362    0.503376    0.000000
   174  O2    c     0.595404    0.033591    0.173436    0.000000
   175  O2    c     0.585582    0.166149    0.248455    0.000000
   176  O2    c     0.829965    0.418890    0.577294    0.000000
   177  O1    c     0.604426    0.410573    0.912321    0.000000
   178  O2    c     0.411933    0.833511    0.744298    0.000000
   179  O2    c     0.172277    0.585113    0.077795    0.000000
   180  O2    c     0.414997    0.582860    0.410741    0.000000
   181  F     c     0.456248    0.906371    0.245767    0.000000
   182  F     c     0.090916    0.547750    0.577120    0.000000
   183  F     c     0.481118    0.526900    0.904550    0.000000
   184  F     c     0.539305    0.089206    0.743214    0.000000
   185  F     c     0.911546    0.453741    0.079395    0.000000
   186  F     c     0.547331    0.452286    0.410701    0.000000
   187  O3    s     0.936798    0.995272    0.996715    0.000000
   188  O2    s     0.001995    0.924841    0.328482    0.000000
   189  O2    s     0.068170    0.075459    0.658725    0.000000
   190  O2    s     0.071483    0.001042    0.494038    0.000000
   191  O2    s     0.993037    0.075819    0.824433    0.000000
   192  O2    s     0.932235    0.927202    0.162041    0.000000
   193  O2    s     0.353282    0.585577    0.327234    0.000000
   194  O2    s     0.407241    0.764570    0.660903    0.000000
   195  O2    s     0.235139    0.649013    0.994352    0.000000
   196  O3    s     0.646520    0.417023    0.823538    0.000000
   197  O2    s     0.596556    0.238912    0.166715    0.000000
   198  O2    s     0.763316    0.354181    0.494625    0.000000
   199  O3    s     0.585861    0.347306    0.004168    0.000000
   200  O2    s     0.758592    0.412623    0.659899    0.000000
   201  O2    s     0.649693    0.233333    0.330721    0.000000
   202  O2    s     0.409361    0.647645    0.494363    0.000000
   203  O2    s     0.244171    0.592094    0.160910    0.000000
   204  O2    s     0.350321    0.770071    0.827583    0.000000
   205  O3    s     0.132242    0.230024    0.965681    0.000000
   206  O2    s     0.784460    0.903788    0.299777    0.000000
   207  O2    s     0.088486    0.877585    0.630427    0.000000
   208  O2    s     0.874849    0.784840    0.464286    0.000000
   209  O2    s     0.213555    0.101037    0.796769    0.000000
   210  O2    s     0.916102    0.125738    0.132394    0.000000
   211  O2    s     0.217457    0.121917    0.358285    0.000000
   212  O2    s     0.901735    0.777878    0.027068    0.000000
   213  O2    s     0.871800    0.094099    0.689838    0.000000
   214  O2    s     0.777391    0.886931    0.854910    0.000000
   215  O2    s     0.091635    0.217326    0.524455    0.000000
   216  O2    s     0.128646    0.910179    0.193393    0.000000
   217  O2    s     0.932464    0.861912    0.245586    0.000000
   218  O2    s     0.138158    0.069291    0.576605    0.000000
   219  O3    s     0.927968    0.070160    0.907299    0.000000
   220  O2    s     0.066301    0.140163    0.741777    0.000000
   221  O2    s     0.863519    0.932213    0.079242    0.000000
   222  O2    s     0.068956    0.930774    0.411507    0.000000
   223  O3    s     0.899472    0.207545    0.978873    0.000000
   224  O2    s     0.797776    0.703823    0.310737    0.000000
   225  O2    s     0.289544    0.089158    0.642927    0.000000
   226  O2    s     0.087170    0.795219    0.476832    0.000000
   227  O2    s     0.189039    0.296286    0.808473    0.000000
   228  O2    s     0.712388    0.914661    0.145525    0.000000
   229  O2    s     0.206399    0.908791    0.347005    0.000000
   230  O2    s     0.711262    0.809879    0.010938    0.000000
   231  O2    s     0.084112    0.296178    0.677895    0.000000
   232  O2    s     0.792607    0.100112    0.844009    0.000000
   233  O2    s     0.292876    0.205915    0.511605    0.000000
   234  O2    s     0.918571    0.707962    0.181166    0.000000
   235  O2    s     0.332801    0.658301    0.244503    0.000000
   236  O2    s     0.339160    0.671254    0.577749    0.000000
   237  O2    s     0.330019    0.674158    0.910596    0.000000
   238  O2    s     0.664231    0.343020    0.742027    0.000000
   239  O2    s     0.661636    0.329446    0.084773    0.000000
   240  O2    s     0.672049    0.330469    0.412148    0.000000
   241  O3    s     0.374473    0.333796    0.961074    0.000000
   242  O2    s     0.661814    0.035489    0.298892    0.000000
   243  O2    s     0.956661    0.623340    0.629198    0.000000
   244  O2    s     0.619637    0.660881    0.462432    0.000000
   245  O2    s     0.336202    0.966811    0.795786    0.000000
   246  O2    s     0.047891    0.381024    0.130136    0.000000
   247  O2    s     0.340391    0.376900    0.359259    0.000000
   248  O2    s     0.035428    0.657036    0.027566    0.000000
   249  O2    s     0.617079    0.961581    0.691806    0.000000
   250  O3    s     0.673300    0.641929    0.856331    0.000000
   251  O2    s     0.960505    0.341430    0.525755    0.000000
   252  O2    s     0.383090    0.040448    0.195386    0.000000
   253  O2    s     0.776862    0.311046    0.013401    0.000000
   254  O2    s     0.690671    0.466416    0.342157    0.000000
   255  O2    s     0.527060    0.220180    0.673447    0.000000
   256  O2    s     0.218933    0.689111    0.508378    0.000000
   257  O2    s     0.307201    0.535961    0.841831    0.000000
   258  O2    s     0.473886    0.781945    0.176031    0.000000
   259  O2    s     0.311988    0.776213    0.314562    0.000000
   260  O2    s     0.472311    0.699070    0.977700    0.000000
   261  O2    s     0.217363    0.533744    0.646967    0.000000
   262  O2    s     0.684741    0.226508    0.811914    0.000000
   263  O2    s     0.531433    0.312867    0.480933    0.000000
   264  O2    s     0.788106    0.469250    0.152037    0.000000
   265  O2    s     0.786376    0.529849    0.029424    0.000000
   266  O2    s     0.468849    0.258046    0.358906    0.000000
   267  O2    s     0.735200    0.208583    0.690354    0.000000
   268  O2    s     0.207520    0.468124    0.525122    0.000000
   269  O2    s     0.526144    0.735631    0.858527    0.000000
   270  O2    s     0.263922    0.793671    0.193025    0.000000
   271  O2    s     0.533658    0.788843    0.297933    0.000000
   272  O2    s     0.278263    0.480127    0.961272    0.000000
   273  O2    s     0.203973    0.741438    0.630026    0.000000
   274  O2    s     0.463350    0.213007    0.796478    0.000000
   275  O2    s     0.739709    0.534009    0.464364    0.000000
   276  O2    s     0.801052    0.261687    0.133951    0.000000
   277  O2    s     0.242664    0.335563    0.892130    0.000000
   278  O2    s     0.672050    0.909692    0.228660    0.000000
   279  O2    s     0.085670    0.758158    0.559774    0.000000
   280  O2    s     0.758322    0.667287    0.393548    0.000000
   281  O2    s     0.328606    0.093954    0.726081    0.000000
   282  O2    s     0.915930    0.243081    0.061904    0.000000
   283  O2    s     0.331870    0.242171    0.428842    0.000000
   284  O2    s     0.910695    0.666094    0.098378    0.000000
   285  O2    s     0.753428    0.092587    0.760881    0.000000
   286  O2    s     0.670618    0.761746    0.927310    0.000000
   287  O2    s     0.087737    0.333795    0.595229    0.000000
   288  O2    s     0.245460    0.910711    0.264124    0.000000
   289  O3    s     0.593193    0.576218    0.983924    0.000000
   290  O2    s     0.443008    0.022211    0.317937    0.000000
   291  O2    s     0.970481    0.418412    0.647858    0.000000
   292  O2    s     0.413853    0.441999    0.481242    0.000000
   293  O2    s     0.555350    0.979180    0.814416    0.000000
   294  O2    s     0.033846    0.587011    0.149389    0.000000
   295  O2    s     0.559936    0.582810    0.340578    0.000000
   296  O2    s     0.027236    0.441298    0.008400    0.000000
   297  O2    s     0.409426    0.973482    0.673422    0.000000
   298  O3    s     0.422190    0.407944    0.834062    0.000000
   299  O2    s     0.972527    0.559697    0.506802    0.000000
   300  O2    s     0.590453    0.028319    0.176823    0.000000
   301  O2    s     0.580217    0.155050    0.248352    0.000000
   302  O2    s     0.841023    0.424308    0.577312    0.000000
   303  O1    s     0.597422    0.415485    0.913223    0.000000
   304  O2    s     0.417536    0.844944    0.744266    0.000000
   305  O2    s     0.161135    0.579560    0.077888    0.000000
   306  O2    s     0.420575    0.577401    0.410763    0.000000
   307  F     s     0.456090    0.906136    0.245690    0.000000
   308  F     s     0.091221    0.547858    0.577064    0.000000
   309  F     s     0.486709    0.522955    0.902713    0.000000
   310  F     s     0.539073    0.088568    0.743180    0.000000
   311  F     s     0.911479    0.453612    0.079249    0.000000
   312  F     s     0.547575    0.452005    0.410624    0.000000
--------------------------------------------------------------------------------

  Final Cartesian lattice vectors (Angstroms) :

       11.931569   -0.000360    0.001217
       -5.915632   10.399159   -0.001138
        0.191580   -0.058582   29.518297


  Final cell parameters and derivatives :

--------------------------------------------------------------------------------
       a           11.931569 Angstrom     dE/de1(xx)     0.004694 eV/strain
       b           11.963996 Angstrom     dE/de2(yy)     0.005075 eV/strain
       c           29.518977 Angstrom     dE/de3(zz)     0.006352 eV/strain
       alpha       90.288148 Degrees      dE/de4(yz)    -0.000013 eV/strain
       beta        89.622296 Degrees      dE/de5(xz)     0.000306 eV/strain
       gamma      119.635407 Degrees      dE/de6(xy)     0.000087 eV/strain
--------------------------------------------------------------------------------

  Primitive cell volume =          3662.513943 Angs**3

  Density of cell =      1.746913 g/cm**3

  Non-primitive cell volume =          3662.513943 Angs**3


  Final internal derivatives :

--------------------------------------------------------------------------------
   No.  Atomic          a             b             c           Radius
        Label          (eV)          (eV)          (eV)        (eV/Angs)
--------------------------------------------------------------------------------
      1 Si    c       0.000000      0.000000      0.000000      0.000000
      2 Si    c      -0.000542      0.000517      0.000483      0.000000
      3 Si    c       0.000392     -0.000244      0.000054      0.000000
      4 Si    c       0.000527      0.000041      0.000526      0.000000
      5 Si    c       0.000267     -0.000402      0.001185      0.000000
      6 Si    c      -0.000466     -0.000439     -0.000074      0.000000
      7 Si    c       0.000030      0.000335      0.000955      0.000000
      8 Si    c       0.000065     -0.000356     -0.000560      0.000000
      9 Si    c       0.000063     -0.000088      0.000447      0.000000
     10 Si    c       0.000759     -0.000740     -0.002456      0.000000
     11 Si    c       0.000263     -0.000071     -0.000030      0.000000
     12 Si    c      -0.000094     -0.000905      0.001274      0.000000
     13 Ge    c       0.000267     -0.000782     -0.001554      0.000000
     14 Si    c      -0.000295     -0.000337      0.000242      0.000000
     15 Si    c       0.000475     -0.000132      0.000081      0.000000
     16 Si    c       0.000644     -0.000193      0.000715      0.000000
     17 Si    c       0.000241      0.000418     -0.000335      0.000000
     18 Si    c      -0.000801     -0.000440      0.001525      0.000000
     19 Si    c       0.000540     -0.000335     -0.000738      0.000000
     20 Si    c      -0.000116      0.000019     -0.000999      0.000000
     21 Si    c       0.000204      0.000136     -0.000285      0.000000
     22 Ge    c      -0.001163      0.000960      0.003643      0.000000
     23 Si    c       0.000333      0.000017      0.000592      0.000000
     24 Si    c      -0.000464     -0.000283      0.000551      0.000000
     25 Si    c      -0.000309     -0.000022      0.000309      0.000000
     26 Si    c      -0.000281     -0.000514     -0.000951      0.000000
     27 Si    c       0.000188      0.000336      0.000024      0.000000
     28 Si    c      -0.000279      0.000275     -0.000558      0.000000
     29 Si    c       0.000250     -0.000069     -0.000037      0.000000
     30 Si    c       0.000303     -0.000790     -0.000770      0.000000
     31 Si    c       0.000174     -0.000032      0.001114      0.000000
     32 Si    c      -0.000157     -0.000203      0.002497      0.000000
     33 Si    c       0.000566      0.000012      0.000406      0.000000
     34 Si    c      -0.000033      0.000240      0.000078      0.000000
     35 Si    c       0.000254     -0.000160      0.000424      0.000000
     36 Si    c      -0.000203      0.000265      0.000699      0.000000
     37 Si    c      -0.000277     -0.000293     -0.000449      0.000000
     38 Si    c      -0.000163     -0.000127      0.001055      0.000000
     39 Si    c       0.000254     -0.000026      0.000404      0.000000
     40 Si    c       0.000272      0.000224      0.000692      0.000000
     41 Si    c       0.000144      0.000421      0.000279      0.000000
     42 Si    c      -0.000463     -0.000636      0.000529      0.000000
     43 Si    c       0.000062     -0.000051     -0.000853      0.000000
     44 Si    c       0.000053      0.000585     -0.001559      0.000000
     45 Si    c       0.000181     -0.000029     -0.000156      0.000000
     46 Si    c      -0.000081      0.000067      0.000720      0.000000
     47 Si    c       0.000568     -0.000303      0.000401      0.000000
     48 Si    c      -0.000702     -0.000204      0.000055      0.000000
     49 Ge    c      -0.000296      0.000355      0.001681      0.000000
     50 Si    c      -0.000210     -0.000169      0.001130      0.000000
     51 Si    c       0.000347     -0.000097      0.000283      0.000000
     52 Si    c       0.000219      0.000008      0.002147      0.000000
     53 Si    c      -0.000010     -0.000128      0.000199      0.000000
     54 Si    c      -0.000484     -0.000430      0.001274      0.000000
     55 Si    c       0.000250     -0.000119     -0.000553      0.000000
     56 Si    c      -0.000374     -0.000618     -0.000777      0.000000
     57 Si    c       0.000203     -0.000130     -0.000381      0.000000
     58 Si    c      -0.000056      0.000165     -0.002258      0.000000
     59 Si    c       0.000361     -0.000050     -0.000478      0.000000
     60 Si    c      -0.000270     -0.000709     -0.001889      0.000000
     61 O3    c       0.000455     -0.000038     -0.000347      0.000000
     62 O2    c      -0.000193      0.000297      0.000444      0.000000
     63 O2    c       0.000144     -0.000067      0.000369      0.000000
     64 O2    c       0.000476     -0.000163     -0.000218      0.000000
     65 O2    c       0.000567     -0.000544      0.000347      0.000000
     66 O2    c      -0.000585     -0.000325      0.000174      0.000000
     67 O2    c      -0.000118     -0.000181      0.000254      0.000000
     68 O2    c       0.000324     -0.000203      0.000483      0.000000
     69 O2    c      -0.000310      0.000160      0.001760      0.000000
     70 O3    c       0.000909      0.001035      0.000169      0.000000
     71 O2    c      -0.001144     -0.000161     -0.000177      0.000000
     72 O2    c       0.000798     -0.000451     -0.000174      0.000000
     73 O3    c      -0.000332     -0.000198      0.000376      0.000000
     74 O2    c       0.000171      0.000039      0.000352      0.000000
     75 O2    c       0.000536     -0.000693     -0.000608      0.000000
     76 O2    c       0.000562      0.000257      0.000957      0.000000
     77 O2    c      -0.000275     -0.001041      0.000670      0.000000
     78 O2    c      -0.000410      0.000395     -0.000604      0.000000
     79 O3    c       0.000229     -0.000141      0.000547      0.000000
     80 O2    c      -0.000186      0.000202      0.000425      0.000000
     81 O2    c       0.000285     -0.000173      0.000186      0.000000
     82 O2    c       0.000161     -0.000203      0.000220      0.000000
     83 O2    c       0.001173     -0.000389      0.000042      0.000000
     84 O2    c      -0.000584     -0.000346      0.000139      0.000000
     85 O2    c      -0.000041      0.000120      0.000154      0.000000
     86 O2    c       0.000502     -0.000405      0.000091      0.000000
     87 O2    c       0.000329     -0.000237     -0.000402      0.000000
     88 O2    c      -0.000377     -0.000958     -0.000624      0.000000
     89 O2    c       0.000344      0.000190      0.000241      0.000000
     90 O2    c      -0.000025     -0.000600      0.000275      0.000000
     91 O2    c      -0.000506      0.000104      0.002331      0.000000
     92 O2    c       0.000377     -0.000254      0.001190      0.000000
     93 O3    c       0.000571     -0.000809      0.003425      0.000000
     94 O2    c       0.000036     -0.000312     -0.001307      0.000000
     95 O2    c      -0.000451     -0.000097      0.002155      0.000000
     96 O2    c       0.000108      0.000166     -0.001681      0.000000
     97 O3    c      -0.000155      0.000052      0.001171      0.000000
     98 O2    c      -0.000079      0.000030     -0.000003      0.000000
     99 O2    c       0.000181      0.000000      0.000265      0.000000
    100 O2    c       0.000745     -0.000230      0.000479      0.000000
    101 O2    c      -0.000162      0.000594      0.000559      0.000000
    102 O2    c      -0.000829     -0.000604      0.000373      0.000000
    103 O2    c      -0.000026      0.000045      0.000236      0.000000
    104 O2    c      -0.000204     -0.000075      0.000245      0.000000
    105 O2    c       0.000250     -0.000235      0.000348      0.000000
    106 O2    c      -0.000225      0.000798     -0.000082      0.000000
    107 O2    c       0.000648     -0.000095      0.000341      0.000000
    108 O2    c      -0.000635     -0.000573      0.000116      0.000000
    109 O2    c      -0.000304     -0.000672     -0.000675      0.000000
    110 O2    c       0.000502     -0.000066     -0.000048      0.000000
    111 O2    c      -0.000229     -0.000085      0.000142      0.000000
    112 O2    c       0.000387      0.000305      0.000314      0.000000
    113 O2    c      -0.001015     -0.000137     -0.001932      0.000000
    114 O2    c       0.000446     -0.000429      0.000486      0.000000
    115 O3    c      -0.000375     -0.000533      0.000361      0.000000
    116 O2    c      -0.000372      0.000292     -0.000143      0.000000
    117 O2    c       0.000267     -0.000160      0.000297      0.000000
    118 O2    c       0.000329      0.000002      0.000150      0.000000
    119 O2    c       0.000304      0.000226      0.000262      0.000000
    120 O2    c      -0.000342     -0.000574      0.000104      0.000000
    121 O2    c      -0.000071      0.000372     -0.000299      0.000000
    122 O2    c       0.000226     -0.000118      0.000269      0.000000
    123 O2    c       0.000150     -0.000219      0.000206      0.000000
    124 O3    c       0.000231     -0.000179     -0.000619      0.000000
    125 O2    c       0.000480     -0.000096      0.000276      0.000000
    126 O2    c      -0.000722     -0.000271     -0.000132      0.000000
    127 O2    c      -0.000663      0.000237      0.000563      0.000000
    128 O2    c       0.000180     -0.000410     -0.000045      0.000000
    129 O2    c       0.000399      0.000081     -0.000353      0.000000
    130 O2    c       0.000666      0.000042     -0.000244      0.000000
    131 O2    c      -0.000157     -0.000124     -0.000105      0.000000
    132 O2    c      -0.000601     -0.000707     -0.000229      0.000000
    133 O2    c       0.000217     -0.000520      0.000706      0.000000
    134 O2    c       0.000048     -0.000075      0.000316      0.000000
    135 O2    c       0.000383     -0.000056      0.000264      0.000000
    136 O2    c       0.000662      0.000077      0.000199      0.000000
    137 O2    c       0.000593     -0.000352      0.000581      0.000000
    138 O2    c      -0.000876     -0.000366      0.000880      0.000000
    139 O2    c      -0.000688      0.000427     -0.001481      0.000000
    140 O2    c       0.000105     -0.000145     -0.000853      0.000000
    141 O2    c       0.000183      0.000078      0.000289      0.000000
    142 O2    c       0.000661     -0.000107     -0.000738      0.000000
    143 O2    c      -0.000525      0.000164     -0.000103      0.000000
    144 O2    c      -0.000481     -0.000694     -0.000044      0.000000
    145 O2    c      -0.000175     -0.000193      0.000834      0.000000
    146 O2    c      -0.000215      0.000088      0.000226      0.000000
    147 O2    c       0.000468     -0.000188      0.000391      0.000000
    148 O2    c      -0.000014      0.000601      0.000696      0.000000
    149 O2    c       0.000627     -0.000459      0.001198      0.000000
    150 O2    c      -0.000910     -0.000323      0.000162      0.000000
    151 O2    c      -0.000147     -0.000098     -0.000361      0.000000
    152 O2    c       0.000026     -0.000441     -0.000046      0.000000
    153 O2    c       0.000358      0.000064     -0.000207      0.000000
    154 O2    c       0.000327      0.000134      0.000241      0.000000
    155 O2    c       0.000146      0.000297      0.000015      0.000000
    156 O2    c      -0.000085     -0.000827      0.000568      0.000000
    157 O2    c      -0.000034     -0.000100      0.000473      0.000000
    158 O2    c      -0.000494      0.000409      0.000544      0.000000
    159 O2    c       0.000404      0.000015      0.000460      0.000000
    160 O2    c      -0.000047     -0.000082      0.000245      0.000000
    161 O2    c       0.000435     -0.000214     -0.000289      0.000000
    162 O2    c      -0.000535     -0.000122     -0.000090      0.000000
    163 O3    c       0.000060      0.000583      0.002026      0.000000
    164 O2    c      -0.000021      0.000208     -0.000110      0.000000
    165 O2    c       0.000144     -0.000101      0.000296      0.000000
    166 O2    c       0.000372      0.000085      0.000116      0.000000
    167 O2    c       0.000298     -0.000004      0.000692      0.000000
    168 O2    c      -0.000296     -0.000647      0.000448      0.000000
    169 O2    c      -0.000077      0.000123      0.000655      0.000000
    170 O2    c       0.000481      0.000133     -0.000305      0.000000
    171 O2    c       0.000382     -0.000266      0.000506      0.000000
    172 O3    c      -0.000174     -0.000492     -0.002809      0.000000
    173 O2    c       0.000372      0.000155      0.000081      0.000000
    174 O2    c      -0.000351     -0.000557     -0.000838      0.000000
    175 O2    c      -0.000396      0.000063     -0.000751      0.000000
    176 O2    c       0.000351     -0.000102     -0.000009      0.000000
    177 O1    c      -0.000024     -0.000334      0.003270      0.000000
    178 O2    c       0.000253     -0.000146      0.000495      0.000000
    179 O2    c       0.000371     -0.000353      0.000723      0.000000
    180 O2    c      -0.000048      0.000347      0.000713      0.000000
    181 F     c      -0.000393     -0.000165      0.000366      0.000000
    182 F     c       0.000398      0.000017      0.000272      0.000000
    183 F     c       0.000489     -0.000868      0.001073      0.000000
    184 F     c       0.000464      0.000157      0.000199      0.000000
    185 F     c      -0.000022     -0.000349      0.000224      0.000000
    186 F     c       0.000196      0.000003     -0.000003      0.000000
    187 O3    s       0.000102     -0.000192      0.000121      0.000000
    188 O2    s      -0.000218      0.000393     -0.000057      0.000000
    189 O2    s       0.000279     -0.000211      0.000173      0.000000
    190 O2    s       0.000180      0.000164      0.000767      0.000000
    191 O2    s       0.000343     -0.000226     -0.000375      0.000000
    192 O2    s      -0.000475     -0.000307     -0.000164      0.000000
    193 O2    s      -0.000196      0.000058      0.001102      0.000000
    194 O2    s       0.000333     -0.000194      0.000172      0.000000
    195 O2    s       0.000087     -0.000049     -0.000622      0.000000
    196 O3    s      -0.000418     -0.000044      0.000833      0.000000
    197 O2    s      -0.000463     -0.000683      0.000202      0.000000
    198 O2    s       0.000419     -0.000039      0.000936      0.000000
    199 O3    s       0.000054      0.000087     -0.000923      0.000000
    200 O2    s       0.000314     -0.000113     -0.000395      0.000000
    201 O2    s       0.000028      0.000095     -0.000704      0.000000
    202 O2    s       0.000409     -0.000049     -0.000629      0.000000
    203 O2    s      -0.000535     -0.000503      0.000057      0.000000
    204 O2    s       0.000238      0.000216      0.001107      0.000000
    205 O3    s      -0.000071     -0.000298      0.000127      0.000000
    206 O2    s       0.000078      0.000070      0.000299      0.000000
    207 O2    s       0.000228     -0.000002      0.000402      0.000000
    208 O2    s       0.000003      0.000103      0.000819      0.000000
    209 O2    s       0.000499     -0.000146      0.001300      0.000000
    210 O2    s      -0.000419     -0.000569      0.000821      0.000000
    211 O2    s      -0.000288      0.000235     -0.000075      0.000000
    212 O2    s       0.000240     -0.000080     -0.000804      0.000000
    213 O2    s       0.000271     -0.000250      0.000778      0.000000
    214 O2    s      -0.000043     -0.000598      0.000056      0.000000
    215 O2    s       0.000272      0.000121     -0.000285      0.000000
    216 O2    s      -0.000349     -0.000317     -0.000622      0.000000
    217 O2    s      -0.000208     -0.000281     -0.000091      0.000000
    218 O2    s       0.000280     -0.000058      0.000337      0.000000
    219 O3    s      -0.000007     -0.000559     -0.000038      0.000000
    220 O2    s      -0.000297     -0.000127     -0.000079      0.000000
    221 O2    s      -0.000385     -0.000424      0.000558      0.000000
    222 O2    s      -0.000002     -0.000056      0.000532      0.000000
    223 O3    s      -0.000036      0.000022     -0.001801      0.000000
    224 O2    s       0.000117     -0.000066      0.000072      0.000000
    225 O2    s       0.000273     -0.000143     -0.000427      0.000000
    226 O2    s       0.000730     -0.000194      0.000249      0.000000
    227 O2    s      -0.000150      0.000300      0.000424      0.000000
    228 O2    s      -0.000527     -0.000516     -0.000208      0.000000
    229 O2    s      -0.000080     -0.000136      0.000638      0.000000
    230 O2    s      -0.000360     -0.000556     -0.000123      0.000000
    231 O2    s       0.000178     -0.000151      0.000288      0.000000
    232 O2    s      -0.000090      0.000597     -0.000636      0.000000
    233 O2    s       0.000505     -0.000158      0.000121      0.000000
    234 O2    s      -0.000680     -0.000480      0.000692      0.000000
    235 O2    s      -0.000395     -0.000139      0.000626      0.000000
    236 O2    s       0.000315      0.000023      0.000159      0.000000
    237 O2    s      -0.000193     -0.000112      0.000250      0.000000
    238 O2    s       0.000528     -0.000088      0.000261      0.000000
    239 O2    s       0.000055      0.000248      0.000332      0.000000
    240 O2    s       0.000251     -0.000171      0.000544      0.000000
    241 O3    s       0.000379     -0.000309      0.000832      0.000000
    242 O2    s       0.000082      0.000053      0.001042      0.000000
    243 O2    s       0.000089      0.000000      0.000319      0.000000
    244 O2    s       0.000268      0.000054      0.000774      0.000000
    245 O2    s       0.000357      0.000275      0.000482      0.000000
    246 O2    s      -0.000373     -0.000679      0.001014      0.000000
    247 O2    s      -0.000155      0.000123      0.000803      0.000000
    248 O2    s       0.000179     -0.000068     -0.000359      0.000000
    249 O2    s       0.000334     -0.000288     -0.000037      0.000000
    250 O3    s      -0.000237     -0.000184      0.000180      0.000000
    251 O2    s       0.000433      0.000056     -0.000330      0.000000
    252 O2    s      -0.000387     -0.000525     -0.000142      0.000000
    253 O2    s      -0.000079      0.000196     -0.001787      0.000000
    254 O2    s       0.000082      0.000239     -0.000325      0.000000
    255 O2    s       0.000239     -0.000007      0.000199      0.000000
    256 O2    s       0.000389      0.000052      0.000559      0.000000
    257 O2    s      -0.000110     -0.000061      0.000060      0.000000
    258 O2    s      -0.000403     -0.000520      0.000263      0.000000
    259 O2    s      -0.000390      0.000056      0.000292      0.000000
    260 O2    s       0.000132     -0.000360      0.000497      0.000000
    261 O2    s       0.000290     -0.000220      0.000590      0.000000
    262 O2    s       0.000296      0.000232      0.000787      0.000000
    263 O2    s       0.000288     -0.000108      0.000346      0.000000
    264 O2    s      -0.000556     -0.000384      0.000163      0.000000
    265 O2    s       0.000775     -0.000805      0.001270      0.000000
    266 O2    s      -0.000302      0.000058      0.000976      0.000000
    267 O2    s       0.000510     -0.000134     -0.000563      0.000000
    268 O2    s       0.000197      0.000268      0.001256      0.000000
    269 O2    s       0.000030     -0.000216      0.000194      0.000000
    270 O2    s      -0.000397     -0.000420      0.000021      0.000000
    271 O2    s       0.000017     -0.000072      0.000018      0.000000
    272 O2    s      -0.000029     -0.000309      0.000829      0.000000
    273 O2    s       0.000226      0.000052      0.000397      0.000000
    274 O2    s       0.001159     -0.000433     -0.000265      0.000000
    275 O2    s       0.000254     -0.000100     -0.000510      0.000000
    276 O2    s      -0.000490     -0.000588      0.000990      0.000000
    277 O2    s      -0.000253     -0.000066     -0.000556      0.000000
    278 O2    s      -0.000503     -0.000186     -0.000108      0.000000
    279 O2    s       0.000435     -0.000040      0.000184      0.000000
    280 O2    s       0.000179      0.000004      0.000420      0.000000
    281 O2    s       0.000431     -0.000066      0.000926      0.000000
    282 O2    s      -0.000044     -0.000389      0.000539      0.000000
    283 O2    s       0.000329      0.000019      0.000345      0.000000
    284 O2    s      -0.000112     -0.000580     -0.000642      0.000000
    285 O2    s       0.000419     -0.000069      0.000473      0.000000
    286 O2    s       0.000257     -0.000143      0.000339      0.000000
    287 O2    s       0.000322     -0.000052      0.000390      0.000000
    288 O2    s      -0.000492     -0.000141     -0.000035      0.000000
    289 O3    s      -0.000132     -0.000928     -0.001550      0.000000
    290 O2    s      -0.000196      0.000262      0.001355      0.000000
    291 O2    s       0.000209     -0.000200      0.000467      0.000000
    292 O2    s       0.000318      0.000105      0.000853      0.000000
    293 O2    s       0.000274      0.000256     -0.000074      0.000000
    294 O2    s      -0.000319     -0.000459      0.000632      0.000000
    295 O2    s      -0.000167      0.000291     -0.000619      0.000000
    296 O2    s       0.000070     -0.000002     -0.000200      0.000000
    297 O2    s       0.000201     -0.000201     -0.000456      0.000000
    298 O3    s       0.000147      0.000455      0.003017      0.000000
    299 O2    s       0.000647     -0.000252     -0.000004      0.000000
    300 O2    s      -0.000746     -0.000449      0.000697      0.000000
    301 O2    s      -0.000195     -0.000233      0.000525      0.000000
    302 O2    s       0.000325     -0.000030     -0.000168      0.000000
    303 O1    s       0.000275     -0.000853     -0.002075      0.000000
    304 O2    s       0.000320      0.000187      0.000293      0.000000
    305 O2    s      -0.000346     -0.000177     -0.000509      0.000000
    306 O2    s       0.000241     -0.000051      0.000403      0.000000
    307 F     s      -0.000346     -0.000466     -0.000429      0.000000
    308 F     s       0.000540     -0.000031     -0.000121      0.000000
    309 F     s      -0.000564      0.000774     -0.002466      0.000000
    310 F     s       0.000417      0.000144      0.000502      0.000000
    311 F     s      -0.000328      0.000080     -0.000051      0.000000
    312 F     s       0.000232     -0.000026      0.000808      0.000000
--------------------------------------------------------------------------------
  Maximum abs         0.001173      0.001041      0.003643      0.000000
--------------------------------------------------------------------------------


  Time to end of optimisation =      20.5958 seconds


  Peak dynamic memory used =      19.13 MB 


  Timing analysis for GULP :

--------------------------------------------------------------------------------
  Task / Subroutine                                          Time (Seconds)
--------------------------------------------------------------------------------
  Calculation of reciprocal space energy and derivatives          0.5993
  Calculation of real space energy and derivatives               17.7270
  Calculation of three-body energy and derivatives                1.8446
  Calculation of matrix inversion                                 0.3720
--------------------------------------------------------------------------------
  Total CPU time                                                 20.5958
--------------------------------------------------------------------------------


  Dump file written as out.res                                                 
  CIF file written as out.cif                                                 


  Job Finished at 07:55.19 16th November   2016                               

