********************************************************************************
*                       GENERAL UTILITY LATTICE PROGRAM                        *
*                                 Julian Gale                                  *
*                      Nanochemistry Research Institute                        *
*                           Department of Chemistry                            *
*                    Curtin University, Western Australia                      *
********************************************************************************
* Version = 4.2.0 * Last modified =  20th January 2014                         *
********************************************************************************
*  optimise     - perform optimisation run                                     *
*  conp         - constant pressure calculation                                *
*  qok          - running with non charge neutral cell is OK                   *
********************************************************************************

  Job Started  at 22:15.16 17th November   2016                               

  Number of CPUs =     1


  Total number of configurations input =   1

********************************************************************************
*  Input for Configuration =   1                                               *
********************************************************************************

  Formula = Si57Ge3O120F6                                               

  Number of irreducible atoms/shells =     312


  Total number atoms/shells =     312

  Dimensionality = 3               :  Bulk   


  Charge on solid   =  -6.000000 =>neutralising background added


  Cartesian lattice vectors (Angstroms) :

       11.945591    0.000000    0.000000
       -5.934275   10.382706    0.000000
       -0.094270    0.138448   29.455082

  Cell parameters (Angstroms/Degrees):

  a =      11.9456    alpha =  89.6752
  b =      11.9589    beta  =  90.1834
  c =      29.4556    gamma = 119.7503

  Initial cell volume =        3653.241781 Angs**3

  Temperature of configuration =  0.000     K 

  Pressure of configuration =         0.000 GPa 

  Fractional coordinates of asymmetric unit :

--------------------------------------------------------------------------------
   No.  Atomic       x           y          z         Charge      Occupancy
        Label      (Frac)      (Frac)     (Frac)        (e)         (Frac)  
--------------------------------------------------------------------------------
      1 Si    c    0.699600    0.375700    0.033890     4.00000    1.000000    
      2 Si    c    0.620912 *  0.323516 *  0.366100 *   4.00000    1.000000    
      3 Si    c    0.676138 *  0.294907 *  0.696647 *   4.00000    1.000000    
      4 Si    c    0.298290 *  0.620609 *  0.532868 *   4.00000    1.000000    
      5 Si    c    0.375355 *  0.679735 *  0.866245 *   4.00000    1.000000    
      6 Si    c    0.324903 *  0.703745 *  0.199819 *   4.00000    1.000000    
      7 Si    c    0.379410 *  0.703299 *  0.300541 *   4.00000    1.000000    
      8 Si    c    0.320835 *  0.620542 *  0.968753 *   4.00000    1.000000    
      9 Si    c    0.296217 *  0.673638 *  0.633487 *   4.00000    1.000000    
     10 Si    c    0.624941 *  0.296874 *  0.797318 *   4.00000    1.000000    
     11 Si    c    0.676024 *  0.378621 *  0.466534 *   4.00000    1.000000    
     12 Si    c    0.703744 *  0.324844 *  0.135335 *   4.00000    1.000000    
     13 Ge    c    0.531913 *  0.426627 *  0.965625 *   4.00000    1.000000    
     14 Si    c    0.582801 *  0.113158 *  0.301496 *   4.00000    1.000000    
     15 Si    c    0.887148 *  0.469035 *  0.632561 *   4.00000    1.000000    
     16 Si    c    0.469785 *  0.582448 *  0.467574 *   4.00000    1.000000    
     17 Si    c    0.417092 *  0.889299 *  0.799967 *   4.00000    1.000000    
     18 Si    c    0.114212 *  0.531940 *  0.135069 *   4.00000    1.000000    
     19 Si    c    0.416856 *  0.530534 *  0.365905 *   4.00000    1.000000    
     20 Si    c    0.109032 *  0.581050 *  0.033667 *   4.00000    1.000000    
     21 Si    c    0.466950 *  0.883788 *  0.698517 *   4.00000    1.000000    
     22 Si    c    0.597142 *  0.467189 *  0.865061 *   4.00000    1.000000    
     23 Si    c    0.887554 *  0.417324 *  0.531054 *   4.00000    1.000000    
     24 Si    c    0.530370 *  0.113972 *  0.199787 *   4.00000    1.000000    
     25 Ge    c    0.307299 *  0.397227 *  0.851149 *   4.00000    1.000000    
     26 Si    c    0.602829 *  0.905261 *  0.185122 *   4.00000    1.000000    
     27 Si    c    0.096633 *  0.697830 *  0.517549 *   4.00000    1.000000    
     28 Si    c    0.697762 *  0.601842 *  0.351702 *   4.00000    1.000000    
     29 Si    c    0.397423 *  0.094902 *  0.683326 *   4.00000    1.000000    
     30 Si    c    0.903311 *  0.300601 *  0.020077 *   4.00000    1.000000    
     31 Si    c    0.398268 *  0.301616 *  0.481487 *   4.00000    1.000000    
     32 Si    c    0.904197 *  0.602742 *  0.149275 *   4.00000    1.000000    
     33 Si    c    0.699310 *  0.093340 *  0.813222 *   4.00000    1.000000    
     34 Si    c    0.603578 *  0.702127 *  0.987692 *   4.00000    1.000000    
     35 Si    c    0.095238 *  0.395713 *  0.647837 *   4.00000    1.000000    
     36 Si    c    0.302486 *  0.904538 *  0.315494 *   4.00000    1.000000    
     37 Si    c    0.248094 *  0.332229 *  0.953794 *   4.00000    1.000000    
     38 Si    c    0.660033 *  0.911611 *  0.285941 *   4.00000    1.000000    
     39 Si    c    0.087847 *  0.747247 *  0.618132 *   4.00000    1.000000    
     40 Si    c    0.748815 *  0.659976 *  0.452302 *   4.00000    1.000000    
     41 Si    c    0.342144 *  0.092580 *  0.783939 *   4.00000    1.000000    
     42 Si    c    0.914002 *  0.253747 *  0.120888 *   4.00000    1.000000    
     43 Si    c    0.339494 *  0.251513 *  0.380861 *   4.00000    1.000000    
     44 Si    c    0.907167 *  0.658201 *  0.048282 *   4.00000    1.000000    
     45 Si    c    0.746491 *  0.084193 *  0.712409 *   4.00000    1.000000    
     46 Ge    c    0.663504 *  0.745754 *  0.884311 *   4.00000    1.000000    
     47 Si    c    0.089294 *  0.339682 *  0.547107 *   4.00000    1.000000    
     48 Si    c    0.252361 *  0.912560 *  0.214783 *   4.00000    1.000000    
     49 Si    c    0.966264 *  0.120062 *  0.968269 *   4.00000    1.000000    
     50 Si    c    0.878517 *  0.849530 *  0.301135 *   4.00000    1.000000    
     51 Si    c    0.149335 *  0.026709 *  0.632709 *   4.00000    1.000000    
     52 Si    c    0.028341 *  0.878415 *  0.466907 *   4.00000    1.000000    
     53 Si    c    0.121292 *  0.152513 *  0.798827 *   4.00000    1.000000    
     54 Si    c    0.852322 *  0.974738 *  0.135599 *   4.00000    1.000000    
     55 Si    c    0.122022 *  0.972163 *  0.366004 *   4.00000    1.000000    
     56 Si    c    0.849436 *  0.881402 *  0.035205 *   4.00000    1.000000    
     57 Si    c    0.025754 *  0.145978 *  0.697956 *   4.00000    1.000000    
     58 Si    c    0.881820 *  0.029815 *  0.866023 *   4.00000    1.000000    
     59 Si    c    0.150211 *  0.121103 *  0.531716 *   4.00000    1.000000    
     60 Si    c    0.972158 *  0.849679 *  0.200331 *   4.00000    1.000000    
     61 O2    c    0.926955 *  0.997606 *  0.000246 *   0.87073    1.000000    
     62 O2    c    0.999940 *  0.930218 *  0.333629 *   0.87073    1.000000    
     63 O2    c    0.069675 *  0.068370 *  0.665344 *   0.87073    1.000000    
     64 O2    c    0.069739 *  0.000106 *  0.499224 *   0.87073    1.000000    
     65 O2    c    0.006715 *  0.077583 *  0.834524 *   0.87073    1.000000    
     66 O2    c    0.930084 *  0.931243 *  0.168643 *   0.87073    1.000000    
     67 O2    c    0.340317 *  0.579864 *  0.333364 *   0.87073    1.000000    
     68 O2    c    0.418112 *  0.757656 *  0.666731 *   0.87073    1.000000    
     69 O2    c    0.233800 *  0.656712 *  0.000476 *   0.87073    1.000000    
     70 O2    c    0.669491 *  0.420849 *  0.829230 *   0.87073    1.000000    
     71 O2    c    0.580137 *  0.240504 *  0.167839 *   0.87073    1.000000    
     72 O2    c    0.762134 *  0.340177 *  0.498872 *   0.87073    1.000000    
     73 O3    c    0.580393 *  0.339704 *  0.001894 *   1.33043    1.000000    
     74 O2    c    0.759999 *  0.418350 *  0.664148 *   0.87073    1.000000    
     75 O2    c    0.659358 *  0.238563 *  0.333698 *   0.87073    1.000000    
     76 O2    c    0.421380 *  0.658997 *  0.500231 *   0.87073    1.000000    
     77 O2    c    0.240657 *  0.581324 *  0.167165 *   0.87073    1.000000    
     78 O2    c    0.338989 *  0.767762 *  0.834153 *   0.87073    1.000000    
     79 O2    c    0.118853 *  0.212454 *  0.974664 *   0.87073    1.000000    
     80 O2    c    0.787007 *  0.912488 *  0.306112 *   0.87073    1.000000    
     81 O2    c    0.086813 *  0.872760 *  0.638291 *   0.87073    1.000000    
     82 O2    c    0.874351 *  0.786483 *  0.472342 *   0.87073    1.000000    
     83 O2    c    0.218525 *  0.095223 *  0.805036 *   0.87073    1.000000    
     84 O2    c    0.914622 *  0.128180 *  0.141785 *   0.87073    1.000000    
     85 O2    c    0.213064 *  0.126248 *  0.360725 *   0.87073    1.000000    
     86 O2    c    0.906281 *  0.784834 *  0.028424 *   0.87073    1.000000    
     87 O2    c    0.871781 *  0.083237 *  0.691692 *   0.87073    1.000000    
     88 O3    c    0.797566 *  0.878553 *  0.860821 *   1.33043    1.000000    
     89 O2    c    0.088129 *  0.213524 *  0.526606 *   0.87073    1.000000    
     90 O2    c    0.126102 *  0.912855 *  0.194558 *   0.87073    1.000000    
     91 O2    c    0.932666 *  0.861400 *  0.250980 *   0.87073    1.000000    
     92 O2    c    0.135807 *  0.066786 *  0.582201 *   0.87073    1.000000    
     93 O2    c    0.928547 *  0.071176 *  0.917252 *   0.87073    1.000000    
     94 O2    c    0.061154 *  0.127758 *  0.748793 *   0.87073    1.000000    
     95 O2    c    0.872182 *  0.938771 *  0.085277 *   0.87073    1.000000    
     96 O2    c    0.068316 *  0.932040 *  0.416467 *   0.87073    1.000000    
     97 O2    c    0.896359 *  0.201034 *  0.981380 *   0.87073    1.000000    
     98 O2    c    0.796375 *  0.698202 *  0.313420 *   0.87073    1.000000    
     99 O2    c    0.300897 *  0.096302 *  0.644715 *   0.87073    1.000000    
    100 O2    c    0.098860 *  0.796800 *  0.479123 *   0.87073    1.000000    
    101 O3    c    0.201622 *  0.302578 *  0.808443 *   1.33043    1.000000    
    102 O2    c    0.699837 *  0.904603 *  0.146639 *   0.87073    1.000000    
    103 O2    c    0.204369 *  0.902681 *  0.354008 *   0.87073    1.000000    
    104 O2    c    0.695980 *  0.805976 *  0.025813 *   0.87073    1.000000    
    105 O2    c    0.095716 *  0.298255 *  0.686532 *   0.87073    1.000000    
    106 O2    c    0.795535 *  0.094917 *  0.852270 *   0.87073    1.000000    
    107 O2    c    0.301842 *  0.202668 *  0.519853 *   0.87073    1.000000    
    108 O2    c    0.902401 *  0.698987 *  0.187615 *   0.87073    1.000000    
    109 O2    c    0.323529 *  0.645995 *  0.250263 *   0.87073    1.000000    
    110 O2    c    0.355049 *  0.675933 *  0.583347 *   0.87073    1.000000    
    111 O2    c    0.326324 *  0.677108 *  0.917995 *   0.87073    1.000000    
    112 O2    c    0.679106 *  0.352742 *  0.746737 *   0.87073    1.000000    
    113 O2    c    0.647111 *  0.323167 *  0.085164 *   0.87073    1.000000    
    114 O2    c    0.677420 *  0.322148 *  0.416435 *   0.87073    1.000000    
    115 O3    c    0.365665 *  0.320146 *  0.972967 *   1.33043    1.000000    
    116 O2    c    0.670029 *  0.043654 *  0.304544 *   0.87073    1.000000    
    117 O2    c    0.955100 *  0.624908 *  0.636178 *   0.87073    1.000000    
    118 O2    c    0.625967 *  0.669636 *  0.470572 *   0.87073    1.000000    
    119 O2    c    0.331415 *  0.960027 *  0.802817 *   0.87073    1.000000    
    120 O2    c    0.046712 *  0.375973 *  0.138780 *   0.87073    1.000000    
    121 O2    c    0.329527 *  0.374588 *  0.362832 *   0.87073    1.000000    
    122 O2    c    0.040627 *  0.669049 *  0.029854 *   0.87073    1.000000    
    123 O2    c    0.623128 *  0.951583 *  0.695208 *   0.87073    1.000000    
    124 O3    c    0.684684 *  0.622032 *  0.864702 *   1.33043    1.000000    
    125 O2    c    0.957258 *  0.330401 *  0.528469 *   0.87073    1.000000    
    126 O2    c    0.374146 *  0.045319 *  0.196535 *   0.87073    1.000000    
    127 O2    c    0.770362 *  0.301457 *  0.012837 *   0.87073    1.000000    
    128 O2    c    0.696398 *  0.467167 *  0.343994 *   0.87073    1.000000    
    129 O2    c    0.532125 *  0.226927 *  0.674869 *   0.87073    1.000000    
    130 O2    c    0.230390 *  0.696655 *  0.510467 *   0.87073    1.000000    
    131 O3    c    0.300593 *  0.537749 *  0.846190 *   1.33043    1.000000    
    132 O2    c    0.468558 *  0.771996 *  0.177692 *   0.87073    1.000000    
    133 O2    c    0.303719 *  0.770927 *  0.322994 *   0.87073    1.000000    
    134 O2    c    0.464130 *  0.694662 *  0.990461 *   0.87073    1.000000    
    135 O2    c    0.228546 *  0.529869 *  0.655731 *   0.87073    1.000000    
    136 O2    c    0.698405 *  0.226693 *  0.819851 *   0.87073    1.000000    
    137 O2    c    0.533133 *  0.302661 *  0.489199 *   0.87073    1.000000    
    138 O2    c    0.771931 *  0.468099 *  0.157390 *   0.87073    1.000000    
    139 O2    c    0.783540 *  0.532851 *  0.028454 *   0.87073    1.000000    
    140 O2    c    0.464899 *  0.250490 *  0.361272 *   0.87073    1.000000    
    141 O2    c    0.748024 *  0.210520 *  0.692186 *   0.87073    1.000000    
    142 O2    c    0.216250 *  0.464935 *  0.528074 *   0.87073    1.000000    
    143 O3    c    0.528336 *  0.741658 *  0.862206 *   1.33043    1.000000    
    144 O2    c    0.251138 *  0.786417 *  0.195104 *   0.87073    1.000000    
    145 O2    c    0.535417 *  0.784783 *  0.305516 *   0.87073    1.000000    
    146 O2    c    0.256112 *  0.466123 *  0.969447 *   0.87073    1.000000    
    147 O2    c    0.214097 *  0.747970 *  0.638122 *   0.87073    1.000000    
    148 O2    c    0.468540 *  0.218534 *  0.802804 *   0.87073    1.000000    
    149 O2    c    0.750258 *  0.534432 *  0.471872 *   0.87073    1.000000    
    150 O2    c    0.787558 *  0.252310 *  0.140589 *   0.87073    1.000000    
    151 O3    c    0.231714 *  0.313462 *  0.899712 *   1.33043    1.000000    
    152 O2    c    0.677544 *  0.909750 *  0.231636 *   0.87073    1.000000    
    153 O2    c    0.090807 *  0.767410 *  0.563792 *   0.87073    1.000000    
    154 O2    c    0.767945 *  0.676641 *  0.397978 *   0.87073    1.000000    
    155 O2    c    0.323625 *  0.093592 *  0.729574 *   0.87073    1.000000    
    156 O2    c    0.910930 *  0.231962 *  0.066662 *   0.87073    1.000000    
    157 O2    c    0.322991 *  0.231810 *  0.435236 *   0.87073    1.000000    
    158 O2    c    0.906126 *  0.675838 *  0.102654 *   0.87073    1.000000    
    159 O2    c    0.768168 *  0.087327 *  0.766705 *   0.87073    1.000000    
    160 O3    c    0.680769 *  0.772608 *  0.941662 *   1.33043    1.000000    
    161 O2    c    0.091029 *  0.321481 *  0.601507 *   0.87073    1.000000    
    162 O2    c    0.232289 *  0.909887 *  0.269115 *   0.87073    1.000000    
    163 O3    c    0.596091 *  0.568727 *  0.998164 *   1.33043    1.000000    
    164 O2    c    0.441586 *  0.029468 *  0.324582 *   0.87073    1.000000    
    165 O2    c    0.970036 *  0.410655 *  0.656387 *   0.87073    1.000000    
    166 O2    c    0.412050 *  0.440812 *  0.490578 *   0.87073    1.000000    
    167 O2    c    0.559709 *  0.968179 *  0.822422 *   0.87073    1.000000    
    168 O2    c    0.030877 *  0.590134 *  0.158115 *   0.87073    1.000000    
    169 O2    c    0.558197 *  0.588013 *  0.342920 *   0.87073    1.000000    
    170 O2    c    0.029370 *  0.439571 *  0.010601 *   0.87073    1.000000    
    171 O2    c    0.409513 *  0.968006 *  0.675261 *   0.87073    1.000000    
    172 O3    c    0.457597 *  0.420151 *  0.841222 *   1.33043    1.000000    
    173 O2    c    0.971924 *  0.558916 *  0.508242 *   0.87073    1.000000    
    174 O2    c    0.587713 *  0.030315 *  0.176449 *   0.87073    1.000000    
    175 O2    c    0.582893 *  0.166411 *  0.250628 *   0.87073    1.000000    
    176 O2    c    0.834381 *  0.417081 *  0.581789 *   0.87073    1.000000    
    177 O3    c    0.596433 *  0.407579 *  0.914011 *   1.33043    1.000000    
    178 O2    c    0.414174 *  0.831869 *  0.749681 *   0.87073    1.000000    
    179 O2    c    0.167132 *  0.584547 *  0.084025 *   0.87073    1.000000    
    180 O2    c    0.416510 *  0.583077 *  0.416743 *   0.87073    1.000000    
    181 F     c    0.452406 *  0.905102 *  0.250619 *   0.56000    1.000000    
    182 F     c    0.095775 *  0.547306 *  0.583031 *   0.56000    1.000000    
    183 F     c    0.477365 *  0.532069 *  0.922425 *   0.56000    1.000000    
    184 F     c    0.546385 *  0.092805 *  0.748530 *   0.56000    1.000000    
    185 F     c    0.909276 *  0.454272 *  0.084511 *   0.56000    1.000000    
    186 F     c    0.547942 *  0.451738 *  0.416951 *   0.56000    1.000000    
    187 O2    s    0.922707 *  0.998369 *  0.000557 *  -2.87073    1.000000    
    188 O2    s    0.000091 *  0.925918 *  0.333630 *  -2.87073    1.000000    
    189 O2    s    0.073666 *  0.072423 *  0.665349 *  -2.87073    1.000000    
    190 O2    s    0.074113 *  0.000068 *  0.499251 *  -2.87073    1.000000    
    191 O2    s    0.005701 *  0.080676 *  0.834023 *  -2.87073    1.000000    
    192 O2    s    0.926018 *  0.926905 *  0.168487 *  -2.87073    1.000000    
    193 O2    s    0.352269 *  0.587442 *  0.333349 *  -2.87073    1.000000    
    194 O2    s    0.410661 *  0.762033 *  0.666601 *  -2.87073    1.000000    
    195 O2    s    0.230533 *  0.645239 *  0.000412 *  -2.87073    1.000000    
    196 O2    s    0.657569 *  0.412327 *  0.829413 *  -2.87073    1.000000    
    197 O2    s    0.587661 *  0.236031 *  0.167822 *  -2.87073    1.000000    
    198 O2    s    0.766324 *  0.352142 *  0.498885 *  -2.87073    1.000000    
    199 O3    s    0.589538 *  0.349579 *  0.002732 *  -3.33043    1.000000    
    200 O2    s    0.764398 *  0.410739 *  0.664267 *  -2.87073    1.000000    
    201 O2    s    0.647520 *  0.234437 *  0.333749 *  -2.87073    1.000000    
    202 O2    s    0.413653 *  0.647183 *  0.500258 *  -2.87073    1.000000    
    203 O2    s    0.236405 *  0.588915 *  0.167248 *  -2.87073    1.000000    
    204 O2    s    0.350667 *  0.771036 *  0.833993 *  -2.87073    1.000000    
    205 O2    s    0.115833 *  0.215017 *  0.971809 *  -2.87073    1.000000    
    206 O2    s    0.783610 *  0.905669 *  0.303517 *  -2.87073    1.000000    
    207 O2    s    0.093554 *  0.876120 *  0.635629 *  -2.87073    1.000000    
    208 O2    s    0.877722 *  0.783185 *  0.469732 *  -2.87073    1.000000    
    209 O2    s    0.221473 *  0.100833 *  0.802229 *  -2.87073    1.000000    
    210 O2    s    0.907915 *  0.124794 *  0.138986 *  -2.87073    1.000000    
    211 O2    s    0.216492 *  0.122889 *  0.363333 *  -2.87073    1.000000    
    212 O2    s    0.900381 *  0.781976 *  0.031150 *  -2.87073    1.000000    
    213 O2    s    0.875133 *  0.089959 *  0.694474 *  -2.87073    1.000000    
    214 O3    s    0.796043 *  0.884160 *  0.863169 *  -3.33043    1.000000    
    215 O2    s    0.094873 *  0.216786 *  0.529246 *  -2.87073    1.000000    
    216 O2    s    0.122816 *  0.906088 *  0.197256 *  -2.87073    1.000000    
    217 O2    s    0.930973 *  0.858710 *  0.250945 *  -2.87073    1.000000    
    218 O2    s    0.138967 *  0.068355 *  0.582236 *  -2.87073    1.000000    
    219 O2    s    0.927622 *  0.072091 *  0.917305 *  -2.87073    1.000000    
    220 O2    s    0.063850 *  0.132532 *  0.748637 *  -2.87073    1.000000    
    221 O2    s    0.867399 *  0.936346 *  0.085263 *  -2.87073    1.000000    
    222 O2    s    0.069844 *  0.930481 *  0.416493 *  -2.87073    1.000000    
    223 O2    s    0.904587 *  0.202504 *  0.983914 *  -2.87073    1.000000    
    224 O2    s    0.794961 *  0.704383 *  0.316058 *  -2.87073    1.000000    
    225 O2    s    0.294668 *  0.088729 *  0.647404 *  -2.87073    1.000000    
    226 O2    s    0.091135 *  0.795317 *  0.481770 *  -2.87073    1.000000    
    227 O3    s    0.201434 *  0.294387 *  0.810689 *  -3.33043    1.000000    
    228 O2    s    0.706029 *  0.912059 *  0.149381 *  -2.87073    1.000000    
    229 O2    s    0.205611 *  0.910281 *  0.351353 *  -2.87073    1.000000    
    230 O2    s    0.702886 *  0.803627 *  0.023051 *  -2.87073    1.000000    
    231 O2    s    0.088316 *  0.292114 *  0.683828 *  -2.87073    1.000000    
    232 O2    s    0.794462 *  0.088001 *  0.849611 *  -2.87073    1.000000    
    233 O2    s    0.295529 *  0.204058 *  0.517196 *  -2.87073    1.000000    
    234 O2    s    0.910041 *  0.705238 *  0.185059 *  -2.87073    1.000000    
    235 O2    s    0.329395 *  0.657749 *  0.250258 *  -2.87073    1.000000    
    236 O2    s    0.343302 *  0.670080 *  0.583337 *  -2.87073    1.000000    
    237 O2    s    0.330777 *  0.671638 *  0.917950 *  -2.87073    1.000000    
    238 O2    s    0.673191 *  0.340953 *  0.746741 *  -2.87073    1.000000    
    239 O2    s    0.658390 *  0.328640 *  0.085322 *  -2.87073    1.000000    
    240 O2    s    0.671487 *  0.328073 *  0.416431 *  -2.87073    1.000000    
    241 O3    s    0.365585 *  0.329271 *  0.970404 *  -3.33043    1.000000    
    242 O2    s    0.659980 *  0.037008 *  0.302280 *  -2.87073    1.000000    
    243 O2    s    0.961975 *  0.621648 *  0.633907 *  -2.87073    1.000000    
    244 O2    s    0.622751 *  0.659653 *  0.468346 *  -2.87073    1.000000    
    245 O2    s    0.341511 *  0.966568 *  0.800524 *  -2.87073    1.000000    
    246 O2    s    0.039778 *  0.379225 *  0.136511 *  -2.87073    1.000000    
    247 O2    s    0.339559 *  0.377715 *  0.365049 *  -2.87073    1.000000    
    248 O2    s    0.034067 *  0.658859 *  0.032140 *  -2.87073    1.000000    
    249 O2    s    0.620008 *  0.958505 *  0.697371 *  -2.87073    1.000000    
    250 O3    s    0.674602 *  0.617322 *  0.866383 *  -3.33043    1.000000    
    251 O2    s    0.963975 *  0.340379 *  0.530707 *  -2.87073    1.000000    
    252 O2    s    0.377468 *  0.038486 *  0.198791 *  -2.87073    1.000000    
    253 O2    s    0.777682 *  0.309006 *  0.015847 *  -2.87073    1.000000    
    254 O2    s    0.688755 *  0.466524 *  0.347115 *  -2.87073    1.000000    
    255 O2    s    0.532733 *  0.219981 *  0.678038 *  -2.87073    1.000000    
    256 O2    s    0.223272 *  0.688941 *  0.513562 *  -2.87073    1.000000    
    257 O3    s    0.308728 *  0.540859 *  0.848643 *  -3.33043    1.000000    
    258 O2    s    0.467948 *  0.779007 *  0.180772 *  -2.87073    1.000000    
    259 O2    s    0.311378 *  0.778087 *  0.319862 *  -2.87073    1.000000    
    260 O2    s    0.463434 *  0.687618 *  0.987880 *  -2.87073    1.000000    
    261 O2    s    0.221521 *  0.530521 *  0.652602 *  -2.87073    1.000000    
    262 O2    s    0.690859 *  0.219576 *  0.816757 *  -2.87073    1.000000    
    263 O2    s    0.533619 *  0.310351 *  0.486034 *  -2.87073    1.000000    
    264 O2    s    0.778905 *  0.467610 *  0.154242 *  -2.87073    1.000000    
    265 O2    s    0.789110 *  0.531227 *  0.031138 *  -2.87073    1.000000    
    266 O2    s    0.467567 *  0.258307 *  0.363867 *  -2.87073    1.000000    
    267 O2    s    0.740210 *  0.205543 *  0.694822 *  -2.87073    1.000000    
    268 O2    s    0.210947 *  0.467609 *  0.530615 *  -2.87073    1.000000    
    269 O3    s    0.524316 *  0.735646 *  0.864460 *  -3.33043    1.000000    
    270 O2    s    0.259121 *  0.791562 *  0.197710 *  -2.87073    1.000000    
    271 O2    s    0.532647 *  0.790109 *  0.302910 *  -2.87073    1.000000    
    272 O2    s    0.262446 *  0.469046 *  0.967756 *  -2.87073    1.000000    
    273 O2    s    0.208903 *  0.740019 *  0.635497 *  -2.87073    1.000000    
    274 O2    s    0.470892 *  0.212887 *  0.800249 *  -2.87073    1.000000    
    275 O2    s    0.742315 *  0.531862 *  0.469237 *  -2.87073    1.000000    
    276 O2    s    0.792639 *  0.260137 *  0.137932 *  -2.87073    1.000000    
    277 O3    s    0.239589 *  0.322158 *  0.900935 *  -3.33043    1.000000    
    278 O2    s    0.667863 *  0.909478 *  0.232509 *  -2.87073    1.000000    
    279 O2    s    0.091089 *  0.757983 *  0.564735 *  -2.87073    1.000000    
    280 O2    s    0.758563 *  0.667041 *  0.398917 *  -2.87073    1.000000    
    281 O2    s    0.333261 *  0.093616 *  0.730502 *  -2.87073    1.000000    
    282 O2    s    0.910496 *  0.241426 *  0.067510 *  -2.87073    1.000000    
    283 O2    s    0.332620 *  0.241210 *  0.434323 *  -2.87073    1.000000    
    284 O2    s    0.906042 *  0.666293 *  0.101828 *  -2.87073    1.000000    
    285 O2    s    0.758710 *  0.087609 *  0.765815 *  -2.87073    1.000000    
    286 O3    s    0.672083 *  0.763684 *  0.941152 *  -3.33043    1.000000    
    287 O2    s    0.091290 *  0.331169 *  0.600632 *  -2.87073    1.000000    
    288 O2    s    0.241800 *  0.909626 *  0.268244 *  -2.87073    1.000000    
    289 O3    s    0.591985 *  0.572426 *  0.994641 *  -3.33043    1.000000    
    290 O2    s    0.441368 *  0.024605 *  0.321200 *  -2.87073    1.000000    
    291 O2    s    0.975067 *  0.415285 *  0.652988 *  -2.87073    1.000000    
    292 O2    s    0.416757 *  0.440604 *  0.487196 *  -2.87073    1.000000    
    293 O2    s    0.559686 *  0.973333 *  0.819113 *  -2.87073    1.000000    
    294 O2    s    0.025815 *  0.585246 *  0.154751 *  -2.87073    1.000000    
    295 O2    s    0.558504 *  0.583319 *  0.346281 *  -2.87073    1.000000    
    296 O2    s    0.024201 *  0.439543 *  0.013990 *  -2.87073    1.000000    
    297 O2    s    0.414407 *  0.972996 *  0.678578 *  -2.87073    1.000000    
    298 O3    s    0.457298 *  0.422660 *  0.844306 *  -3.33043    1.000000    
    299 O2    s    0.976722 *  0.559087 *  0.511632 *  -2.87073    1.000000    
    300 O2    s    0.583185 *  0.025363 *  0.179823 *  -2.87073    1.000000    
    301 O2    s    0.577419 *  0.155398 *  0.250679 *  -2.87073    1.000000    
    302 O2    s    0.845463 *  0.422565 *  0.581812 *  -2.87073    1.000000    
    303 O3    s    0.591811 *  0.414898 *  0.912855 *  -3.33043    1.000000    
    304 O2    s    0.419855 *  0.843030 *  0.749629 *  -2.87073    1.000000    
    305 O2    s    0.155699 *  0.578779 *  0.084046 *  -2.87073    1.000000    
    306 O2    s    0.422067 *  0.577593 *  0.416774 *  -2.87073    1.000000    
    307 F     s    0.452184 *  0.904722 *  0.250652 *  -1.56000    1.000000    
    308 F     s    0.096162 *  0.547543 *  0.583082 *  -1.56000    1.000000    
    309 F     s    0.480102 *  0.529093 *  0.923472 *  -1.56000    1.000000    
    310 F     s    0.546391 *  0.092987 *  0.748572 *  -1.56000    1.000000    
    311 F     s    0.909605 *  0.454354 *  0.084512 *  -1.56000    1.000000    
    312 F     s    0.548180 *  0.451490 *  0.417001 *  -1.56000    1.000000    
--------------------------------------------------------------------------------



********************************************************************************
*  General input information                                                   *
********************************************************************************

  Species output for all configurations : 

--------------------------------------------------------------------------------
  Species    Type    Atomic    Atomic    Charge       Radii (Angs)     Library
                     Number     Mass       (e)     Cova   Ionic  VDW   Symbol
--------------------------------------------------------------------------------
    Si       Core       14      28.09   4.000000   1.200  0.000  2.100          
    O1       Core        8      16.00   1.733957   0.730  0.000  1.360          
    O1       Shell       8       0.00  -3.733957   0.730  0.000  1.360          
    O2       Core        8      16.00   0.870733   0.730  0.000  1.360          
    O2       Shell       8       0.00  -2.870733   0.730  0.000  1.360          
    O3       Core        8      16.00   1.330431   0.730  0.000  1.360          
    O3       Shell       8       0.00  -3.330431   0.730  0.000  1.360          
    F        Core        9      19.00   0.560000   0.710  0.000  1.300          
    F        Shell       9       0.00  -1.560000   0.710  0.000  1.300          
    Ge       Core       32      72.61   4.000000   1.170  0.000  1.750          
--------------------------------------------------------------------------------


  Lattice summation method               =    Ewald          (3-D)
                                         =    Parry          (2-D)
                                         =    Saunders et al (1-D)
  Accuracy factor for lattice sums       =   12.000


  Time limit = Infinity

  Maximum range for interatomic potentials =        16.000000 Angstroms

  Taper potentials to zero over   1.0000 Angstroms using polynomial

  General interatomic potentials :

--------------------------------------------------------------------------------
Atom  Types   Potential         A         B         C         D     Cutoffs(Ang)
  1     2                                                            Min    Max 
--------------------------------------------------------------------------------
Si   c O1   s Buckingham    0.132E+04 0.318      10.1      0.00     0.000 16.000
Si   c O2   s Buckingham    0.132E+04 0.318      10.1      0.00     0.000 16.000
Si   c O3   s Buckingham    0.132E+04 0.318      10.1      0.00     0.000 16.000
Ge   c O1   s Buckingham    0.150E+04 0.326      16.8      0.00     0.000 16.000
Ge   c O2   s Buckingham    0.150E+04 0.326      16.8      0.00     0.000 16.000
Ge   c O3   s Buckingham    0.150E+04 0.326      16.8      0.00     0.000 16.000
O1   s O1   s Buckingham    0.228E+05 0.149      10.9      0.00     0.000 16.000
O1   s O2   s Buckingham    0.228E+05 0.149      10.9      0.00     0.000 16.000
O1   s O3   s Buckingham    0.228E+05 0.149      10.9      0.00     0.000 16.000
O2   s O2   s Buckingham    0.228E+05 0.149      10.9      0.00     0.000 16.000
O2   s O3   s Buckingham    0.228E+05 0.149      10.9      0.00     0.000 16.000
O3   s O3   s Buckingham    0.228E+05 0.149      10.9      0.00     0.000 16.000
Si   c F    s Buckingham     977.     0.282      0.00      0.00     0.000 16.000
Ge   c F    s Buckingham     681.     0.320      0.00      0.00     0.000 16.000
F    s F    s Buckingham     540.     0.262      0.00      0.00     0.000 16.000
O1   s F    s Buckingham    0.168E+04 0.268      0.00      0.00     0.000 16.000
O2   s F    s Buckingham    0.168E+04 0.268      0.00      0.00     0.000 16.000
O3   s F    s Buckingham    0.168E+04 0.268      0.00      0.00     0.000 16.000
O2   c O2   s Spring (c-s)   76.0      0.00      0.00      0.00     0.000  0.800
O3   c O3   s Spring (c-s)   128.      0.00      0.00      0.00     0.000  0.800
O1   c O1   s Spring (c-s)   180.      0.00      0.00      0.00     0.000  0.800
F    c F    s Spring (c-s)   33.5      0.00      0.00      0.00     0.000  0.800
--------------------------------------------------------------------------------

  General Three-body potentials :

  Harmonic form:

--------------------------------------------------------------------------------
Atom    Atom    Atom           Force Constants            Theta     Cutoffs  
  1       2       3     (eVrad**-2/eVrad**-3/eVrad**-4)   (deg)  1-2  1-3  2-3
--------------------------------------------------------------------------------
Si    c O1    s O1    s  1.261        0.0000    0.0000   109.470 0.00 0.00 0.00
                                                                 1.90 1.90 3.50
Si    c O1    s O2    s  1.261        0.0000    0.0000   109.470 0.00 0.00 0.00
                                                                 1.90 1.90 3.50
Si    c O2    s O2    s  1.261        0.0000    0.0000   109.470 0.00 0.00 0.00
                                                                 1.90 1.90 3.50
--------------------------------------------------------------------------------

********************************************************************************
*  Output for configuration   1                                                *
********************************************************************************


  Components of energy : 

--------------------------------------------------------------------------------
  Interatomic potentials     =        2061.62486363 eV
  Three-body potentials      =           0.43731213 eV
  Monopole - monopole (real) =       -6609.24732895 eV
  Monopole - monopole (recip)=       -3172.37031589 eV
  Monopole - monopole (total)=       -9781.61764483 eV
  Neutralising energy        =          -6.46213172 eV
--------------------------------------------------------------------------------
  Total lattice energy       =       -7726.01760080 eV
--------------------------------------------------------------------------------
  Total lattice energy       =         -745442.5955 kJ/(mole unit cells)
--------------------------------------------------------------------------------


  Number of variables =      939

  Maximum number of calculations  =          5000
  Maximum Hessian update interval =            10
  Maximum step size               =   0.100000000
  Maximum parameter tolerance     =   0.000010000
  Maximum function  tolerance     =   0.000010000
  Maximum gradient  tolerance     =   0.001000000
  Maximum gradient  component     =   0.010000000

  Symmetry not applied to optimisation

  Cell parameters to be optimised using strains

  Newton-Raphson optimiser to be used

  BFGS hessian update to be used

  Dumpfile to be written after every cycle

  Start of bulk optimisation :

  Cycle:      0 Energy:     -7726.017601  Gnorm:      0.009999  CPU:    2.054
  ** Hessian calculated **
  Cycle:      1 Energy:     -7726.052989  Gnorm:      0.010822  CPU:    6.630
  Cycle:      2 Energy:     -7726.074828  Gnorm:      0.007555  CPU:   10.153
  Cycle:      3 Energy:     -7726.082079  Gnorm:      0.002681  CPU:   13.675
  Cycle:      4 Energy:     -7726.084208  Gnorm:      0.001749  CPU:   17.198
  Cycle:      5 Energy:     -7726.084738  Gnorm:      0.000830  CPU:   21.398
  Cycle:      6 Energy:     -7726.084846  Gnorm:      0.000504  CPU:   24.920
  Cycle:      7 Energy:     -7726.084883  Gnorm:      0.000339  CPU:   27.766
  Cycle:      8 Energy:     -7726.084898  Gnorm:      0.000201  CPU:   30.612
  Cycle:      9 Energy:     -7726.084902  Gnorm:      0.000142  CPU:   33.458
  Cycle:     10 Energy:     -7726.084904  Gnorm:      0.000099  CPU:   36.303
  ** Hessian calculated **
  Cycle:     11 Energy:     -7726.084904  Gnorm:      0.000063  CPU:   40.867
  Cycle:     12 Energy:     -7726.084905  Gnorm:      0.000050  CPU:   43.712
  Cycle:     13 Energy:     -7726.084905  Gnorm:      0.000041  CPU:   46.558
  Cycle:     14 Energy:     -7726.084905  Gnorm:      0.000035  CPU:   49.404
  Cycle:     15 Energy:     -7726.084905  Gnorm:      0.000031  CPU:   52.249


  **** Optimisation achieved ****


  Final energy =   -7726.08490461 eV
  Final Gnorm  =       0.00002864

  Components of energy : 

--------------------------------------------------------------------------------
  Interatomic potentials     =        2061.79876854 eV
  Three-body potentials      =           0.44503493 eV
  Monopole - monopole (real) =       -6609.70809013 eV
  Monopole - monopole (recip)=       -3172.15891320 eV
  Monopole - monopole (total)=       -9781.86700333 eV
  Neutralising energy        =          -6.46170475 eV
--------------------------------------------------------------------------------
  Total lattice energy       =       -7726.08490461 eV
--------------------------------------------------------------------------------
  Total lattice energy       =         -745449.0893 kJ/(mole unit cells)
--------------------------------------------------------------------------------

  Final fractional coordinates of atoms :

--------------------------------------------------------------------------------
   No.  Atomic        x           y          z          Radius
        Label       (Frac)      (Frac)     (Frac)       (Angs) 
--------------------------------------------------------------------------------
     1  Si    c     0.699600    0.375700    0.033890    0.000000
     2  Si    c     0.624493    0.317783    0.366676    0.000000
     3  Si    c     0.677218    0.282224    0.696762    0.000000
     4  Si    c     0.301057    0.610250    0.534007    0.000000
     5  Si    c     0.381007    0.670135    0.867334    0.000000
     6  Si    c     0.329957    0.700872    0.200319    0.000000
     7  Si    c     0.384627    0.699224    0.301159    0.000000
     8  Si    c     0.325347    0.614242    0.969939    0.000000
     9  Si    c     0.296931    0.661047    0.634743    0.000000
    10  Si    c     0.627649    0.287213    0.797581    0.000000
    11  Si    c     0.679189    0.370289    0.467178    0.000000
    12  Si    c     0.707981    0.324465    0.135687    0.000000
    13  Ge    c     0.532201    0.423246    0.965170    0.000000
    14  Si    c     0.587119    0.108698    0.301875    0.000000
    15  Si    c     0.888509    0.457071    0.632940    0.000000
    16  Si    c     0.473505    0.573917    0.468654    0.000000
    17  Si    c     0.421715    0.879448    0.800968    0.000000
    18  Si    c     0.118880    0.529645    0.135550    0.000000
    19  Si    c     0.420887    0.525236    0.366830    0.000000
    20  Si    c     0.112475    0.577426    0.034186    0.000000
    21  Si    c     0.468740    0.870847    0.699530    0.000000
    22  Si    c     0.604199    0.459216    0.865870    0.000000
    23  Si    c     0.890524    0.407302    0.531384    0.000000
    24  Si    c     0.535545    0.112275    0.200182    0.000000
    25  Ge    c     0.312668    0.388229    0.851907    0.000000
    26  Si    c     0.607522    0.902784    0.185773    0.000000
    27  Si    c     0.099490    0.687815    0.518272    0.000000
    28  Si    c     0.701956    0.596490    0.352572    0.000000
    29  Si    c     0.398798    0.081919    0.684112    0.000000
    30  Si    c     0.904139    0.298749    0.020703    0.000000
    31  Si    c     0.401561    0.292966    0.482520    0.000000
    32  Si    c     0.909689    0.601248    0.149813    0.000000
    33  Si    c     0.702616    0.083797    0.813670    0.000000
    34  Si    c     0.608604    0.696784    0.989740    0.000000
    35  Si    c     0.096033    0.383261    0.648676    0.000000
    36  Si    c     0.307555    0.900672    0.316076    0.000000
    37  Si    c     0.250266    0.324271    0.954927    0.000000
    38  Si    c     0.664725    0.907420    0.286493    0.000000
    39  Si    c     0.088912    0.735051    0.618989    0.000000
    40  Si    c     0.752361    0.651802    0.453351    0.000000
    41  Si    c     0.345576    0.081912    0.784835    0.000000
    42  Si    c     0.917819    0.252266    0.121379    0.000000
    43  Si    c     0.343222    0.245835    0.381737    0.000000
    44  Si    c     0.912107    0.656227    0.048831    0.000000
    45  Si    c     0.747967    0.071445    0.712907    0.000000
    46  Ge    c     0.670883    0.738924    0.885474    0.000000
    47  Si    c     0.092038    0.329431    0.547870    0.000000
    48  Si    c     0.257839    0.910446    0.215395    0.000000
    49  Si    c     0.966873    0.117028    0.969405    0.000000
    50  Si    c     0.883060    0.844893    0.302150    0.000000
    51  Si    c     0.150734    0.014504    0.633654    0.000000
    52  Si    c     0.031998    0.869485    0.467768    0.000000
    53  Si    c     0.126085    0.143574    0.799818    0.000000
    54  Si    c     0.857670    0.973493    0.136714    0.000000
    55  Si    c     0.126170    0.966615    0.367020    0.000000
    56  Si    c     0.853697    0.878954    0.036586    0.000000
    57  Si    c     0.027322    0.133648    0.699122    0.000000
    58  Si    c     0.886972    0.024030    0.867234    0.000000
    59  Si    c     0.153673    0.111308    0.532736    0.000000
    60  Si    c     0.977673    0.847765    0.201233    0.000000
    61  O2    c     0.928011    0.994976    0.001408    0.000000
    62  O2    c     0.003524    0.924902    0.335019    0.000000
    63  O2    c     0.071870    0.055910    0.666837    0.000000
    64  O2    c     0.073485    0.990269    0.500436    0.000000
    65  O2    c     0.013274    0.072471    0.836432    0.000000
    66  O2    c     0.935273    0.930782    0.170297    0.000000
    67  O2    c     0.345433    0.575823    0.334193    0.000000
    68  O2    c     0.418640    0.744134    0.668098    0.000000
    69  O2    c     0.237214    0.650965    0.000772    0.000000
    70  O2    c     0.673719    0.412494    0.828949    0.000000
    71  O2    c     0.584779    0.239101    0.168370    0.000000
    72  O2    c     0.765530    0.330947    0.499122    0.000000
    73  O3    c     0.581029    0.337224    0.002212    0.000000
    74  O2    c     0.760470    0.405395    0.664143    0.000000
    75  O2    c     0.663483    0.233712    0.334133    0.000000
    76  O2    c     0.424650    0.649624    0.501594    0.000000
    77  O2    c     0.245544    0.578956    0.167605    0.000000
    78  O2    c     0.344837    0.758181    0.835231    0.000000
    79  O2    c     0.119274    0.207904    0.975641    0.000000
    80  O2    c     0.791507    0.907980    0.306739    0.000000
    81  O2    c     0.087402    0.860475    0.639008    0.000000
    82  O2    c     0.878144    0.777884    0.473292    0.000000
    83  O2    c     0.221655    0.084178    0.805887    0.000000
    84  O2    c     0.918905    0.126825    0.142401    0.000000
    85  O2    c     0.216478    0.120795    0.361854    0.000000
    86  O2    c     0.911562    0.783457    0.029123    0.000000
    87  O2    c     0.873418    0.070031    0.692558    0.000000
    88  O3    c     0.804383    0.872316    0.862293    0.000000
    89  O2    c     0.091553    0.203711    0.527337    0.000000
    90  O2    c     0.131524    0.910925    0.195274    0.000000
    91  O2    c     0.938720    0.857306    0.252206    0.000000
    92  O2    c     0.138299    0.056778    0.583322    0.000000
    93  O2    c     0.930621    0.067371    0.918408    0.000000
    94  O2    c     0.063049    0.117115    0.750194    0.000000
    95  O2    c     0.878392    0.936698    0.086589    0.000000
    96  O2    c     0.072840    0.924789    0.417518    0.000000
    97  O2    c     0.897062    0.198454    0.982048    0.000000
    98  O2    c     0.800629    0.693547    0.314444    0.000000
    99  O2    c     0.302077    0.082781    0.645554    0.000000
   100  O2    c     0.102173    0.787214    0.479866    0.000000
   101  O3    c     0.209365    0.293856    0.808754    0.000000
   102  O2    c     0.705067    0.902924    0.147327    0.000000
   103  O2    c     0.209098    0.897977    0.354648    0.000000
   104  O2    c     0.700141    0.802669    0.027352    0.000000
   105  O2    c     0.096248    0.285546    0.687393    0.000000
   106  O2    c     0.799939    0.087367    0.852540    0.000000
   107  O2    c     0.305225    0.193016    0.520791    0.000000
   108  O2    c     0.907805    0.697670    0.188052    0.000000
   109  O2    c     0.329139    0.642869    0.250776    0.000000
   110  O2    c     0.356473    0.663847    0.584711    0.000000
   111  O2    c     0.337706    0.674349    0.919322    0.000000
   112  O2    c     0.680742    0.340776    0.746739    0.000000
   113  O2    c     0.651133    0.325478    0.085849    0.000000
   114  O2    c     0.680511    0.314814    0.416957    0.000000
   115  O3    c     0.366727    0.313016    0.975421    0.000000
   116  O2    c     0.674616    0.039372    0.305110    0.000000
   117  O2    c     0.956261    0.612769    0.637056    0.000000
   118  O2    c     0.629502    0.661203    0.471876    0.000000
   119  O2    c     0.336054    0.950312    0.804264    0.000000
   120  O2    c     0.050587    0.373633    0.139548    0.000000
   121  O2    c     0.333439    0.369345    0.363862    0.000000
   122  O2    c     0.045680    0.667162    0.030358    0.000000
   123  O2    c     0.624838    0.938401    0.696107    0.000000
   124  O3    c     0.693715    0.614174    0.868002    0.000000
   125  O2    c     0.960201    0.320190    0.529059    0.000000
   126  O2    c     0.379345    0.043222    0.197126    0.000000
   127  O2    c     0.771779    0.300597    0.013955    0.000000
   128  O2    c     0.700266    0.461710    0.344784    0.000000
   129  O2    c     0.533022    0.213864    0.675389    0.000000
   130  O2    c     0.233519    0.686926    0.511728    0.000000
   131  O3    c     0.301276    0.526781    0.848871    0.000000
   132  O2    c     0.473639    0.769615    0.178216    0.000000
   133  O2    c     0.308917    0.766992    0.323546    0.000000
   134  O2    c     0.466757    0.684200    0.992950    0.000000
   135  O2    c     0.228797    0.517250    0.657004    0.000000
   136  O2    c     0.700633    0.216655    0.820226    0.000000
   137  O2    c     0.536568    0.294052    0.490051    0.000000
   138  O2    c     0.777476    0.466955    0.158245    0.000000
   139  O2    c     0.788359    0.532150    0.028789    0.000000
   140  O2    c     0.468601    0.245324    0.361855    0.000000
   141  O2    c     0.748142    0.196824    0.692304    0.000000
   142  O2    c     0.218876    0.454814    0.528981    0.000000
   143  O3    c     0.532779    0.725151    0.861957    0.000000
   144  O2    c     0.257030    0.784467    0.195822    0.000000
   145  O2    c     0.540467    0.780313    0.306092    0.000000
   146  O2    c     0.258885    0.459866    0.968824    0.000000
   147  O2    c     0.214991    0.735760    0.639232    0.000000
   148  O2    c     0.471329    0.209350    0.803265    0.000000
   149  O2    c     0.753835    0.525993    0.472818    0.000000
   150  O2    c     0.791078    0.250954    0.140708    0.000000
   151  O3    c     0.239831    0.303605    0.900637    0.000000
   152  O2    c     0.682346    0.906266    0.232169    0.000000
   153  O2    c     0.092233    0.755883    0.564674    0.000000
   154  O2    c     0.771577    0.669729    0.399050    0.000000
   155  O2    c     0.325855    0.081380    0.730496    0.000000
   156  O2    c     0.913947    0.230407    0.067148    0.000000
   157  O2    c     0.326804    0.224777    0.436101    0.000000
   158  O2    c     0.910891    0.674167    0.103175    0.000000
   159  O2    c     0.770709    0.076696    0.767144    0.000000
   160  O3    c     0.681400    0.766339    0.942678    0.000000
   161  O2    c     0.093214    0.310134    0.602272    0.000000
   162  O2    c     0.237840    0.907245    0.269752    0.000000
   163  O3    c     0.604179    0.564896    0.999327    0.000000
   164  O2    c     0.446271    0.025475    0.325273    0.000000
   165  O2    c     0.970197    0.397428    0.657001    0.000000
   166  O2    c     0.415317    0.432132    0.491719    0.000000
   167  O2    c     0.564344    0.957645    0.823424    0.000000
   168  O2    c     0.036889    0.589390    0.158755    0.000000
   169  O2    c     0.562314    0.582589    0.344012    0.000000
   170  O2    c     0.031169    0.436641    0.010925    0.000000
   171  O2    c     0.411432    0.955248    0.676233    0.000000
   172  O3    c     0.465858    0.419325    0.842044    0.000000
   173  O2    c     0.975661    0.548909    0.508692    0.000000
   174  O2    c     0.592602    0.028071    0.177041    0.000000
   175  O2    c     0.587522    0.163279    0.251169    0.000000
   176  O2    c     0.836668    0.406716    0.582037    0.000000
   177  O3    c     0.598497    0.396414    0.914356    0.000000
   178  O2    c     0.417125    0.820330    0.750883    0.000000
   179  O2    c     0.172003    0.581197    0.084361    0.000000
   180  O2    c     0.420466    0.576381    0.417909    0.000000
   181  F     c     0.458289    0.902353    0.251487    0.000000
   182  F     c     0.097220    0.535652    0.584231    0.000000
   183  F     c     0.481374    0.520012    0.925311    0.000000
   184  F     c     0.547778    0.080110    0.749712    0.000000
   185  F     c     0.916513    0.454738    0.085581    0.000000
   186  F     c     0.551760    0.444946    0.418194    0.000000
   187  O2    s     0.924019    0.995733    0.001744    0.000000
   188  O2    s     0.003864    0.920664    0.334947    0.000000
   189  O2    s     0.075698    0.060040    0.666756    0.000000
   190  O2    s     0.077859    0.990373    0.500417    0.000000
   191  O2    s     0.011873    0.075039    0.835756    0.000000
   192  O2    s     0.931295    0.926216    0.169999    0.000000
   193  O2    s     0.357242    0.583180    0.334188    0.000000
   194  O2    s     0.411404    0.748747    0.667938    0.000000
   195  O2    s     0.234177    0.639681    0.000795    0.000000
   196  O2    s     0.661942    0.403966    0.829321    0.000000
   197  O2    s     0.592219    0.234630    0.168339    0.000000
   198  O2    s     0.769709    0.342930    0.499204    0.000000
   199  O3    s     0.590762    0.347404    0.003156    0.000000
   200  O2    s     0.764970    0.397851    0.664343    0.000000
   201  O2    s     0.651585    0.229584    0.334204    0.000000
   202  O2    s     0.416852    0.637800    0.501592    0.000000
   203  O2    s     0.241390    0.586539    0.167735    0.000000
   204  O2    s     0.356461    0.761462    0.835057    0.000000
   205  O2    s     0.116582    0.210436    0.972762    0.000000
   206  O2    s     0.788167    0.901167    0.304178    0.000000
   207  O2    s     0.094290    0.863888    0.636395    0.000000
   208  O2    s     0.881493    0.774614    0.470686    0.000000
   209  O2    s     0.224772    0.090052    0.803095    0.000000
   210  O2    s     0.912234    0.123339    0.139653    0.000000
   211  O2    s     0.220017    0.117420    0.364425    0.000000
   212  O2    s     0.905510    0.780530    0.031889    0.000000
   213  O2    s     0.876710    0.076890    0.695328    0.000000
   214  O3    s     0.802529    0.877645    0.864592    0.000000
   215  O2    s     0.098239    0.206943    0.530026    0.000000
   216  O2    s     0.128267    0.904154    0.197971    0.000000
   217  O2    s     0.936761    0.854805    0.252143    0.000000
   218  O2    s     0.141449    0.058107    0.583356    0.000000
   219  O2    s     0.929792    0.068066    0.918392    0.000000
   220  O2    s     0.066043    0.121881    0.749988    0.000000
   221  O2    s     0.873262    0.934275    0.086539    0.000000
   222  O2    s     0.074196    0.923203    0.417554    0.000000
   223  O2    s     0.905285    0.199749    0.984560    0.000000
   224  O2    s     0.799198    0.699600    0.317075    0.000000
   225  O2    s     0.295926    0.075394    0.648279    0.000000
   226  O2    s     0.094459    0.785714    0.482532    0.000000
   227  O3    s     0.208746    0.285725    0.811102    0.000000
   228  O2    s     0.711219    0.910340    0.150115    0.000000
   229  O2    s     0.210275    0.905589    0.352041    0.000000
   230  O2    s     0.707018    0.800119    0.024608    0.000000
   231  O2    s     0.088959    0.279419    0.684714    0.000000
   232  O2    s     0.798833    0.080336    0.849978    0.000000
   233  O2    s     0.298905    0.194466    0.518186    0.000000
   234  O2    s     0.915498    0.703924    0.185557    0.000000
   235  O2    s     0.334885    0.654489    0.250803    0.000000
   236  O2    s     0.344771    0.658119    0.584677    0.000000
   237  O2    s     0.340891    0.667811    0.919199    0.000000
   238  O2    s     0.674856    0.329128    0.746820    0.000000
   239  O2    s     0.661959    0.330365    0.085986    0.000000
   240  O2    s     0.674628    0.320836    0.416987    0.000000
   241  O3    s     0.366081    0.322028    0.972498    0.000000
   242  O2    s     0.664547    0.032703    0.302818    0.000000
   243  O2    s     0.963141    0.609522    0.634743    0.000000
   244  O2    s     0.626312    0.651254    0.469602    0.000000
   245  O2    s     0.346009    0.956788    0.801856    0.000000
   246  O2    s     0.043766    0.377001    0.137234    0.000000
   247  O2    s     0.343431    0.372416    0.366049    0.000000
   248  O2    s     0.038959    0.656826    0.032641    0.000000
   249  O2    s     0.621729    0.945395    0.698229    0.000000
   250  O3    s     0.683519    0.609742    0.869254    0.000000
   251  O2    s     0.966897    0.330179    0.531295    0.000000
   252  O2    s     0.382658    0.036406    0.199362    0.000000
   253  O2    s     0.779239    0.307908    0.016734    0.000000
   254  O2    s     0.692632    0.461097    0.347895    0.000000
   255  O2    s     0.533746    0.206985    0.678551    0.000000
   256  O2    s     0.226302    0.679114    0.514754    0.000000
   257  O3    s     0.310243    0.530236    0.850986    0.000000
   258  O2    s     0.472992    0.776563    0.181305    0.000000
   259  O2    s     0.316565    0.774116    0.320423    0.000000
   260  O2    s     0.466360    0.678111    0.990185    0.000000
   261  O2    s     0.221888    0.517945    0.653830    0.000000
   262  O2    s     0.693213    0.209650    0.817119    0.000000
   263  O2    s     0.537005    0.301754    0.486886    0.000000
   264  O2    s     0.784276    0.466480    0.155020    0.000000
   265  O2    s     0.793446    0.530328    0.031485    0.000000
   266  O2    s     0.471214    0.253019    0.364486    0.000000
   267  O2    s     0.740589    0.192055    0.694978    0.000000
   268  O2    s     0.213588    0.457455    0.531539    0.000000
   269  O3    s     0.529175    0.720739    0.864435    0.000000
   270  O2    s     0.264889    0.789499    0.198401    0.000000
   271  O2    s     0.537627    0.785664    0.303491    0.000000
   272  O2    s     0.265380    0.462777    0.967504    0.000000
   273  O2    s     0.209831    0.727791    0.636607    0.000000
   274  O2    s     0.473809    0.203635    0.800760    0.000000
   275  O2    s     0.745871    0.523483    0.470170    0.000000
   276  O2    s     0.796276    0.258845    0.138118    0.000000
   277  O3    s     0.246880    0.312505    0.901769    0.000000
   278  O2    s     0.672659    0.906027    0.233085    0.000000
   279  O2    s     0.092633    0.746542    0.565595    0.000000
   280  O2    s     0.762229    0.660143    0.399971    0.000000
   281  O2    s     0.335540    0.081490    0.731407    0.000000
   282  O2    s     0.913366    0.239795    0.068040    0.000000
   283  O2    s     0.336391    0.234170    0.435230    0.000000
   284  O2    s     0.910901    0.664609    0.102355    0.000000
   285  O2    s     0.761181    0.076884    0.766271    0.000000
   286  O3    s     0.673814    0.757589    0.942156    0.000000
   287  O2    s     0.093390    0.319837    0.601423    0.000000
   288  O2    s     0.247297    0.906901    0.268886    0.000000
   289  O3    s     0.599488    0.569348    0.995899    0.000000
   290  O2    s     0.446006    0.020539    0.321848    0.000000
   291  O2    s     0.975420    0.402262    0.653613    0.000000
   292  O2    s     0.420055    0.431896    0.488330    0.000000
   293  O2    s     0.564238    0.962987    0.820071    0.000000
   294  O2    s     0.031633    0.584283    0.155379    0.000000
   295  O2    s     0.562605    0.577911    0.347335    0.000000
   296  O2    s     0.026118    0.436708    0.014364    0.000000
   297  O2    s     0.416262    0.960209    0.679539    0.000000
   298  O3    s     0.465030    0.420375    0.845078    0.000000
   299  O2    s     0.980294    0.549085    0.512103    0.000000
   300  O2    s     0.588076    0.023175    0.180404    0.000000
   301  O2    s     0.582079    0.152280    0.251172    0.000000
   302  O2    s     0.847752    0.412089    0.582106    0.000000
   303  O3    s     0.594546    0.404596    0.912836    0.000000
   304  O2    s     0.422885    0.831565    0.750770    0.000000
   305  O2    s     0.160442    0.575526    0.084431    0.000000
   306  O2    s     0.425990    0.570859    0.417900    0.000000
   307  F     s     0.458163    0.902031    0.251556    0.000000
   308  F     s     0.097544    0.535838    0.584325    0.000000
   309  F     s     0.484905    0.515023    0.927218    0.000000
   310  F     s     0.547690    0.080156    0.749811    0.000000
   311  F     s     0.917217    0.455052    0.085642    0.000000
   312  F     s     0.552021    0.444720    0.418281    0.000000
--------------------------------------------------------------------------------

  Final Cartesian lattice vectors (Angstroms) :

       11.943820    0.012281    0.001560
       -5.922721   10.382378    0.007882
       -0.090266    0.162987   29.449072


  Final cell parameters and derivatives :

--------------------------------------------------------------------------------
       a           11.943826 Angstrom     dE/de1(xx)    -0.001740 eV/strain
       b           11.952926 Angstrom     dE/de2(yy)    -0.001594 eV/strain
       c           29.449661 Angstrom     dE/de3(zz)    -0.001875 eV/strain
       alpha       89.599762 Degrees      dE/de4(yz)    -0.000094 eV/strain
       beta        90.167806 Degrees      dE/de5(xz)    -0.000189 eV/strain
       gamma      119.644057 Degrees      dE/de6(xy)    -0.000228 eV/strain
--------------------------------------------------------------------------------

  Primitive cell volume =          3653.966019 Angs**3

  Density of cell =      1.750999 g/cm**3

  Non-primitive cell volume =          3653.966019 Angs**3


  Final internal derivatives :

--------------------------------------------------------------------------------
   No.  Atomic          a             b             c           Radius
        Label          (eV)          (eV)          (eV)        (eV/Angs)
--------------------------------------------------------------------------------
      1 Si    c       0.000000      0.000000      0.000000      0.000000
      2 Si    c      -0.000032      0.000045     -0.000527      0.000000
      3 Si    c      -0.000187      0.000595     -0.000208      0.000000
      4 Si    c       0.000170     -0.000059     -0.000175      0.000000
      5 Si    c      -0.001122      0.000716     -0.000486      0.000000
      6 Si    c      -0.000129     -0.000047      0.000041      0.000000
      7 Si    c      -0.000041     -0.000164     -0.000098      0.000000
      8 Si    c      -0.001525      0.001658      0.001666      0.000000
      9 Si    c       0.000223      0.000082     -0.000287      0.000000
     10 Si    c      -0.000453      0.000082     -0.000784      0.000000
     11 Si    c       0.000042      0.000120      0.000096      0.000000
     12 Si    c      -0.000144      0.000135     -0.000430      0.000000
     13 Ge    c       0.001420     -0.001215      0.003310      0.000000
     14 Si    c      -0.000108      0.000209     -0.000210      0.000000
     15 Si    c      -0.000326      0.000425     -0.000357      0.000000
     16 Si    c      -0.000005      0.000055     -0.000125      0.000000
     17 Si    c      -0.000236      0.000435     -0.000562      0.000000
     18 Si    c      -0.000374      0.000088     -0.000052      0.000000
     19 Si    c       0.000061     -0.000135      0.000076      0.000000
     20 Si    c      -0.000665     -0.000025      0.000824      0.000000
     21 Si    c       0.000173     -0.000033     -0.000076      0.000000
     22 Si    c       0.000306     -0.001260     -0.001053      0.000000
     23 Si    c      -0.000342      0.000171     -0.000234      0.000000
     24 Si    c      -0.000097      0.000031     -0.000066      0.000000
     25 Ge    c      -0.000231     -0.000070     -0.002241      0.000000
     26 Si    c      -0.000068     -0.000149      0.000084      0.000000
     27 Si    c      -0.000183      0.000054      0.000028      0.000000
     28 Si    c      -0.000055      0.000078      0.000094      0.000000
     29 Si    c      -0.000197      0.000487     -0.000112      0.000000
     30 Si    c      -0.000189     -0.000054     -0.000260      0.000000
     31 Si    c      -0.000170      0.000262     -0.000089      0.000000
     32 Si    c      -0.000136     -0.000115     -0.000408      0.000000
     33 Si    c      -0.000155     -0.000084      0.000423      0.000000
     34 Si    c      -0.000294      0.000067      0.001379      0.000000
     35 Si    c       0.000335      0.000011     -0.000196      0.000000
     36 Si    c      -0.000096     -0.000007     -0.000120      0.000000
     37 Si    c      -0.000301     -0.000485      0.000715      0.000000
     38 Si    c      -0.000043     -0.000018      0.000053      0.000000
     39 Si    c      -0.000160      0.000346     -0.000388      0.000000
     40 Si    c      -0.000093      0.000078     -0.000208      0.000000
     41 Si    c      -0.000292      0.000261     -0.000051      0.000000
     42 Si    c      -0.000197     -0.000147     -0.000134      0.000000
     43 Si    c      -0.000091      0.000108     -0.000039      0.000000
     44 Si    c      -0.000099     -0.000126      0.000254      0.000000
     45 Si    c       0.000462      0.000015      0.000059      0.000000
     46 Ge    c      -0.000526      0.000634     -0.000980      0.000000
     47 Si    c       0.000181     -0.000257     -0.000339      0.000000
     48 Si    c      -0.000084     -0.000102      0.000164      0.000000
     49 Si    c      -0.000677      0.000071      0.000302      0.000000
     50 Si    c      -0.000085     -0.000010     -0.000222      0.000000
     51 Si    c       0.000018      0.000186     -0.000169      0.000000
     52 Si    c      -0.000040      0.000108      0.000043      0.000000
     53 Si    c      -0.000081     -0.000066      0.000073      0.000000
     54 Si    c      -0.000120     -0.000114      0.000024      0.000000
     55 Si    c      -0.000007     -0.000119     -0.000134      0.000000
     56 Si    c       0.000045      0.000025     -0.000161      0.000000
     57 Si    c       0.000322      0.000118     -0.000510      0.000000
     58 Si    c      -0.000416      0.000317      0.000636      0.000000
     59 Si    c       0.000031      0.000187     -0.000090      0.000000
     60 Si    c      -0.000095     -0.000043      0.000199      0.000000
     61 O2    c      -0.000170     -0.000123     -0.000331      0.000000
     62 O2    c       0.000033     -0.000190     -0.000423      0.000000
     63 O2    c       0.000203      0.000351     -0.000373      0.000000
     64 O2    c       0.000145      0.000015     -0.000408      0.000000
     65 O2    c      -0.000427     -0.000334     -0.000845      0.000000
     66 O2    c       0.000105      0.000074     -0.000495      0.000000
     67 O2    c       0.000138     -0.000035     -0.000434      0.000000
     68 O2    c       0.000016      0.000376     -0.000065      0.000000
     69 O2    c      -0.000659      0.000423      0.001403      0.000000
     70 O2    c       0.000036     -0.000509     -0.001221      0.000000
     71 O2    c       0.000092     -0.000309      0.000627      0.000000
     72 O2    c      -0.000267      0.000289      0.000047      0.000000
     73 O3    c       0.000820      0.000459      0.001496      0.000000
     74 O2    c       0.000074      0.000237     -0.000314      0.000000
     75 O2    c      -0.000256      0.000230      0.000357      0.000000
     76 O2    c      -0.000082     -0.000074      0.000028      0.000000
     77 O2    c      -0.000308      0.000114     -0.000349      0.000000
     78 O2    c      -0.001178      0.001345     -0.001157      0.000000
     79 O2    c      -0.000557      0.000298      0.001394      0.000000
     80 O2    c      -0.000168     -0.000017     -0.000415      0.000000
     81 O2    c       0.000127      0.000200     -0.000719      0.000000
     82 O2    c       0.000080     -0.000041     -0.000246      0.000000
     83 O2    c       0.000030      0.000212     -0.000435      0.000000
     84 O2    c      -0.000193     -0.000161     -0.000700      0.000000
     85 O2    c      -0.000019     -0.000120      0.000035      0.000000
     86 O2    c       0.000153      0.000111      0.000298      0.000000
     87 O2    c       0.000042      0.000277      0.000212      0.000000
     88 O3    c       0.000182     -0.000005     -0.001473      0.000000
     89 O2    c      -0.000067      0.000088      0.000345      0.000000
     90 O2    c       0.000010     -0.000134      0.000300      0.000000
     91 O2    c      -0.000066      0.000042     -0.000904      0.000000
     92 O2    c       0.000227      0.000224     -0.000449      0.000000
     93 O2    c      -0.000316     -0.000107     -0.000036      0.000000
     94 O2    c       0.000191      0.000018     -0.001333      0.000000
     95 O2    c      -0.000540     -0.000438     -0.000156      0.000000
     96 O2    c      -0.000001      0.000010     -0.000705      0.000000
     97 O2    c       0.000088      0.000042     -0.000454      0.000000
     98 O2    c      -0.000136      0.000132      0.000131      0.000000
     99 O2    c       0.000097      0.000182      0.000212      0.000000
    100 O2    c      -0.000113     -0.000112      0.000419      0.000000
    101 O3    c      -0.000527      0.000116     -0.000166      0.000000
    102 O2    c      -0.000146     -0.000164      0.000196      0.000000
    103 O2    c      -0.000010      0.000010     -0.001103      0.000000
    104 O2    c       0.000030     -0.000020      0.000272      0.000000
    105 O2    c       0.000143      0.000304     -0.000463      0.000000
    106 O2    c      -0.000539      0.000045     -0.000183      0.000000
    107 O2    c      -0.000123      0.000372     -0.000774      0.000000
    108 O2    c       0.000056     -0.000021     -0.000394      0.000000
    109 O2    c      -0.000130     -0.000055     -0.000073      0.000000
    110 O2    c      -0.000042      0.000159     -0.000208      0.000000
    111 O2    c      -0.002646      0.001571      0.000912      0.000000
    112 O2    c      -0.000152      0.000363     -0.000443      0.000000
    113 O2    c       0.000226     -0.000253      0.001020      0.000000
    114 O2    c      -0.000041      0.000169      0.000337      0.000000
    115 O3    c       0.001370      0.000302      0.001136      0.000000
    116 O2    c      -0.000064     -0.000139     -0.000236      0.000000
    117 O2    c       0.000000      0.000173     -0.000444      0.000000
    118 O2    c      -0.000008     -0.000029     -0.000233      0.000000
    119 O2    c      -0.000118      0.000078     -0.000089      0.000000
    120 O2    c      -0.000278      0.000156     -0.000367      0.000000
    121 O2    c       0.000125     -0.000109      0.000114      0.000000
    122 O2    c      -0.000359     -0.000036      0.000179      0.000000
    123 O2    c       0.000107      0.000179      0.000092      0.000000
    124 O3    c       0.001212     -0.000256     -0.002880      0.000000
    125 O2    c      -0.000012     -0.000046     -0.000082      0.000000
    126 O2    c       0.000068     -0.000263      0.000302      0.000000
    127 O2    c       0.000407      0.000074      0.000345      0.000000
    128 O2    c      -0.000137      0.000129      0.000100      0.000000
    129 O2    c      -0.000044      0.000261      0.000279      0.000000
    130 O2    c      -0.000187     -0.000052      0.000210      0.000000
    131 O3    c      -0.002151      0.000568     -0.004105      0.000000
    132 O2    c      -0.000217     -0.000035      0.000275      0.000000
    133 O2    c       0.000014     -0.000057     -0.000320      0.000000
    134 O2    c      -0.000097      0.002273      0.002061      0.000000
    135 O2    c       0.000140      0.000219     -0.000438      0.000000
    136 O2    c      -0.000010      0.000253      0.000051      0.000000
    137 O2    c      -0.000005      0.000211      0.000036      0.000000
    138 O2    c      -0.000111      0.000018      0.000010      0.000000
    139 O2    c      -0.000231     -0.000061      0.000456      0.000000
    140 O2    c      -0.000054      0.000063     -0.000094      0.000000
    141 O2    c       0.000323      0.000301      0.000010      0.000000
    142 O2    c      -0.000040      0.000051      0.000093      0.000000
    143 O3    c       0.000063      0.003424     -0.005372      0.000000
    144 O2    c      -0.000204     -0.000177      0.000226      0.000000
    145 O2    c      -0.000110      0.000036     -0.000341      0.000000
    146 O2    c      -0.001251     -0.000017      0.002910      0.000000
    147 O2    c      -0.000058      0.000247     -0.000403      0.000000
    148 O2    c      -0.000213      0.000040      0.000362      0.000000
    149 O2    c      -0.000058      0.000066     -0.000093      0.000000
    150 O2    c      -0.000072     -0.000231     -0.000170      0.000000
    151 O3    c      -0.002456     -0.000544     -0.002642      0.000000
    152 O2    c      -0.000099      0.000043     -0.000281      0.000000
    153 O2    c       0.000037      0.000083      0.000123      0.000000
    154 O2    c      -0.000075      0.000023     -0.000352      0.000000
    155 O2    c      -0.000217      0.000281     -0.000450      0.000000
    156 O2    c      -0.000362      0.000021     -0.000461      0.000000
    157 O2    c      -0.000147      0.000259     -0.000454      0.000000
    158 O2    c       0.000266     -0.000200     -0.000129      0.000000
    159 O2    c       0.000082     -0.000002     -0.000482      0.000000
    160 O3    c       0.001449      0.001174      0.004178      0.000000
    161 O2    c       0.000044      0.000017     -0.000073      0.000000
    162 O2    c      -0.000034     -0.000154     -0.000686      0.000000
    163 O3    c      -0.000753     -0.000984      0.002036      0.000000
    164 O2    c      -0.000006     -0.000025     -0.000334      0.000000
    165 O2    c       0.000217      0.000101     -0.000023      0.000000
    166 O2    c       0.000026      0.000223     -0.000513      0.000000
    167 O2    c      -0.000605      0.000399      0.000203      0.000000
    168 O2    c      -0.000225      0.000073     -0.000561      0.000000
    169 O2    c      -0.000019     -0.000054      0.000440      0.000000
    170 O2    c       0.000062      0.000033     -0.000071      0.000000
    171 O2    c      -0.000119      0.000406     -0.000045      0.000000
    172 O3    c      -0.000556     -0.001293     -0.004114      0.000000
    173 O2    c      -0.000196      0.000018      0.000270      0.000000
    174 O2    c       0.000094     -0.000216      0.000316      0.000000
    175 O2    c      -0.000009     -0.000061      0.000774      0.000000
    176 O2    c      -0.000246      0.000086     -0.000360      0.000000
    177 O3    c       0.000106     -0.000926     -0.000019      0.000000
    178 O2    c      -0.000056      0.000257     -0.000327      0.000000
    179 O2    c      -0.000241      0.000297     -0.000067      0.000000
    180 O2    c       0.000137     -0.000152     -0.000206      0.000000
    181 F     c      -0.000056     -0.000127     -0.000094      0.000000
    182 F     c      -0.000045      0.000056     -0.000098      0.000000
    183 F     c       0.000505     -0.000647      0.003051      0.000000
    184 F     c      -0.000052      0.000306     -0.000277      0.000000
    185 F     c      -0.000192      0.000170      0.000806      0.000000
    186 F     c      -0.000078      0.000144     -0.000201      0.000000
    187 O2    s       0.000289     -0.000127      0.000238      0.000000
    188 O2    s      -0.000081     -0.000159      0.000168      0.000000
    189 O2    s       0.000194      0.000332     -0.000470      0.000000
    190 O2    s       0.000341      0.000062      0.000094      0.000000
    191 O2    s      -0.000592     -0.000574      0.000285      0.000000
    192 O2    s      -0.000062      0.000214      0.000123      0.000000
    193 O2    s       0.000036     -0.000037     -0.000026      0.000000
    194 O2    s      -0.000349      0.000881     -0.000408      0.000000
    195 O2    s      -0.000554      0.000897      0.001847      0.000000
    196 O2    s       0.000123     -0.000559     -0.000587      0.000000
    197 O2    s       0.000332     -0.000761     -0.000059      0.000000
    198 O2    s      -0.000014      0.000170     -0.000006      0.000000
    199 O3    s       0.000346      0.001173     -0.000662      0.000000
    200 O2    s       0.000731     -0.000419      0.000571      0.000000
    201 O2    s      -0.000122      0.000131     -0.000209      0.000000
    202 O2    s      -0.000114      0.000048     -0.000113      0.000000
    203 O2    s      -0.000588      0.000137      0.000063      0.000000
    204 O2    s      -0.001685      0.000588     -0.000816      0.000000
    205 O2    s       0.000180     -0.000126      0.002108      0.000000
    206 O2    s      -0.000115     -0.000006     -0.000582      0.000000
    207 O2    s       0.000332      0.000098     -0.000330      0.000000
    208 O2    s       0.000223     -0.000127     -0.000732      0.000000
    209 O2    s       0.000046      0.000097     -0.000584      0.000000
    210 O2    s      -0.000473     -0.000025     -0.000723      0.000000
    211 O2    s       0.000234     -0.000300      0.000585      0.000000
    212 O2    s       0.000061      0.000144      0.000548      0.000000
    213 O2    s      -0.000107      0.000807     -0.000079      0.000000
    214 O3    s      -0.000615     -0.000295     -0.000942      0.000000
    215 O2    s      -0.000105      0.000041      0.000650      0.000000
    216 O2    s      -0.000008     -0.000261      0.000375      0.000000
    217 O2    s      -0.000311      0.000112      0.000446      0.000000
    218 O2    s       0.000286      0.000390     -0.000007      0.000000
    219 O2    s       0.000003     -0.000586      0.001166      0.000000
    220 O2    s      -0.000204      0.000645     -0.000290      0.000000
    221 O2    s      -0.000921     -0.000540      0.000071      0.000000
    222 O2    s       0.000211     -0.000338      0.000564      0.000000
    223 O2    s      -0.000269      0.000092      0.001287      0.000000
    224 O2    s      -0.000396      0.000231      0.000390      0.000000
    225 O2    s       0.000194      0.000123      0.000493      0.000000
    226 O2    s      -0.000153     -0.000032      0.000484      0.000000
    227 O3    s      -0.000498      0.000844     -0.000689      0.000000
    228 O2    s      -0.000171     -0.000112      0.000910      0.000000
    229 O2    s       0.000060     -0.000152     -0.000242      0.000000
    230 O2    s       0.000007     -0.001118      0.000414      0.000000
    231 O2    s      -0.000142      0.000508     -0.000993      0.000000
    232 O2    s      -0.000688      0.000256      0.000024      0.000000
    233 O2    s      -0.000058      0.000411     -0.000233      0.000000
    234 O2    s      -0.000043      0.000042     -0.000915      0.000000
    235 O2    s      -0.000443      0.000043      0.000001      0.000000
    236 O2    s      -0.000393      0.000601     -0.000118      0.000000
    237 O2    s      -0.004089      0.001960      0.000818      0.000000
    238 O2    s       0.000693     -0.000374     -0.000171      0.000000
    239 O2    s       0.000111     -0.000572      0.001467      0.000000
    240 O2    s      -0.000307      0.000522     -0.000483      0.000000
    241 O3    s      -0.000871      0.000193      0.001100      0.000000
    242 O2    s      -0.000213      0.000070     -0.000766      0.000000
    243 O2    s       0.000682     -0.000292     -0.000640      0.000000
    244 O2    s       0.000088     -0.000094     -0.000728      0.000000
    245 O2    s      -0.000234      0.000247     -0.001808      0.000000
    246 O2    s      -0.000403      0.000099     -0.000693      0.000000
    247 O2    s       0.000132     -0.000052      0.000148      0.000000
    248 O2    s      -0.000304     -0.000041      0.000354      0.000000
    249 O2    s      -0.000508      0.001091      0.000359      0.000000
    250 O3    s       0.002449      0.000084     -0.002975      0.000000
    251 O2    s      -0.000181      0.000235      0.000669      0.000000
    252 O2    s       0.000311     -0.000728      0.000496      0.000000
    253 O2    s       0.000311      0.000323      0.000792      0.000000
    254 O2    s      -0.000227      0.000117      0.000602      0.000000
    255 O2    s       0.000619     -0.000427      0.000557      0.000000
    256 O2    s      -0.000154     -0.000113      0.000240      0.000000
    257 O3    s      -0.003333      0.000525     -0.006186      0.000000
    258 O2    s      -0.000364      0.000089      0.000627      0.000000
    259 O2    s       0.000040     -0.000089     -0.000762      0.000000
    260 O2    s      -0.000042      0.002364      0.002940      0.000000
    261 O2    s      -0.000437      0.000742     -0.001020      0.000000
    262 O2    s      -0.000162      0.000104     -0.001333      0.000000
    263 O2    s      -0.000194      0.000508     -0.001438      0.000000
    264 O2    s       0.000117      0.000010      0.000138      0.000000
    265 O2    s      -0.000082      0.000898      0.000485      0.000000
    266 O2    s       0.000019      0.000085      0.000666      0.000000
    267 O2    s       0.000037      0.000497      0.000530      0.000000
    268 O2    s      -0.000494      0.000346      0.000638      0.000000
    269 O3    s      -0.000510      0.004372     -0.008614      0.000000
    270 O2    s      -0.000109     -0.000259      0.000480      0.000000
    271 O2    s      -0.000326      0.000220     -0.000708      0.000000
    272 O2    s      -0.000956     -0.000289      0.003246      0.000000
    273 O2    s       0.000119      0.000047     -0.000713      0.000000
    274 O2    s       0.000284     -0.000388     -0.000884      0.000000
    275 O2    s      -0.000301      0.000208     -0.000979      0.000000
    276 O2    s       0.000027     -0.000203     -0.000101      0.000000
    277 O3    s      -0.002422     -0.000594     -0.005214      0.000000
    278 O2    s      -0.000386      0.000264      0.000454      0.000000
    279 O2    s       0.000456     -0.000244     -0.000040      0.000000
    280 O2    s       0.000022     -0.000046      0.000238      0.000000
    281 O2    s       0.000508     -0.000388     -0.000259      0.000000
    282 O2    s      -0.000519      0.000040      0.000469      0.000000
    283 O2    s       0.000254      0.000011     -0.000095      0.000000
    284 O2    s      -0.000082      0.000195     -0.000037      0.000000
    285 O2    s      -0.000638      0.000813      0.000208      0.000000
    286 O3    s       0.002179      0.001096      0.003183      0.000000
    287 O2    s      -0.000669      0.000737     -0.000549      0.000000
    288 O2    s       0.000222     -0.000579      0.000064      0.000000
    289 O3    s      -0.000568      0.000777      0.006441      0.000000
    290 O2    s       0.000202     -0.000389     -0.001055      0.000000
    291 O2    s       0.000024      0.000355     -0.001021      0.000000
    292 O2    s       0.000175      0.000122     -0.000801      0.000000
    293 O2    s      -0.000670      0.000588     -0.001763      0.000000
    294 O2    s      -0.000111     -0.000114     -0.000361      0.000000
    295 O2    s      -0.000033     -0.000034      0.000278      0.000000
    296 O2    s       0.000084      0.000042      0.000752      0.000000
    297 O2    s       0.000173      0.000264      0.000824      0.000000
    298 O3    s      -0.000235     -0.001419     -0.005973      0.000000
    299 O2    s       0.000105     -0.000249      0.000629      0.000000
    300 O2    s       0.000034     -0.000155      0.000605      0.000000
    301 O2    s       0.000508     -0.000561     -0.000660      0.000000
    302 O2    s       0.000501     -0.000645      0.000339      0.000000
    303 O3    s       0.000627     -0.001120     -0.000682      0.000000
    304 O2    s      -0.000290      0.000736     -0.000473      0.000000
    305 O2    s      -0.000330      0.000128      0.000166      0.000000
    306 O2    s       0.000072     -0.000082     -0.000231      0.000000
    307 F     s      -0.000067     -0.000114     -0.000131      0.000000
    308 F     s      -0.000104      0.000032     -0.000011      0.000000
    309 F     s       0.000603     -0.000525      0.005003      0.000000
    310 F     s       0.000167      0.000239     -0.000308      0.000000
    311 F     s      -0.000244     -0.000034      0.000129      0.000000
    312 F     s       0.000101     -0.000036     -0.000166      0.000000
--------------------------------------------------------------------------------
  Maximum abs         0.004089      0.004372      0.008614      0.000000
--------------------------------------------------------------------------------


  Time to end of optimisation =      55.1140 seconds


  Peak dynamic memory used =      19.13 MB 


  Timing analysis for GULP :

--------------------------------------------------------------------------------
  Task / Subroutine                                          Time (Seconds)
--------------------------------------------------------------------------------
  Calculation of reciprocal space energy and derivatives          1.4302
  Calculation of real space energy and derivatives               48.0226
  Calculation of three-body energy and derivatives                4.8136
  Calculation of matrix inversion                                 0.7442
  Global summation overhead                                       0.0002
--------------------------------------------------------------------------------
  Total CPU time                                                 55.1140
--------------------------------------------------------------------------------


  Dump file written as out.res                                                 
  CIF file written as out.cif                                                 


  Job Finished at 22:16.12 17th November   2016                               

