********************************************************************************
*                       GENERAL UTILITY LATTICE PROGRAM                        *
*                                 Julian Gale                                  *
*                      Nanochemistry Research Institute                        *
*                           Department of Chemistry                            *
*                    Curtin University, Western Australia                      *
********************************************************************************
* Version = 4.2.0 * Last modified =  20th January 2014                         *
********************************************************************************
*  optimise     - perform optimisation run                                     *
*  conp         - constant pressure calculation                                *
*  qok          - running with non charge neutral cell is OK                   *
********************************************************************************

  Job Started  at 14:38.44 29th November   2016                               

  Number of CPUs =     1


  Total number of configurations input =   1

********************************************************************************
*  Input for Configuration =   1                                               *
********************************************************************************

  Formula = Si57Ge3O120F6                                               

  Number of irreducible atoms/shells =     312


  Total number atoms/shells =     312

  Dimensionality = 3               :  Bulk   


  Charge on solid   =  -6.000000 =>neutralising background added


  Cartesian lattice vectors (Angstroms) :

       11.968173    0.000000    0.000000
       -5.909349   10.377239    0.000000
       -0.078915    0.308174   29.425245

  Cell parameters (Angstroms/Degrees):

  a =      11.9682    alpha =  89.4025
  b =      11.9418    beta  =  90.1537
  c =      29.4270    gamma = 119.6595

  Initial cell volume =        3654.515183 Angs**3

  Temperature of configuration =  0.000     K 

  Pressure of configuration =         0.000 GPa 

  Fractional coordinates of asymmetric unit :

--------------------------------------------------------------------------------
   No.  Atomic       x           y          z         Charge      Occupancy
        Label      (Frac)      (Frac)     (Frac)        (e)         (Frac)  
--------------------------------------------------------------------------------
      1 Si    c    0.699600    0.375700    0.033890     4.00000    1.000000    
      2 Si    c    0.618942 *  0.320758 *  0.366310 *   4.00000    1.000000    
      3 Si    c    0.673266 *  0.288695 *  0.698213 *   4.00000    1.000000    
      4 Si    c    0.309029 *  0.624901 *  0.533543 *   4.00000    1.000000    
      5 Si    c    0.383074 *  0.673448 *  0.869592 *   4.00000    1.000000    
      6 Si    c    0.324782 *  0.702691 *  0.201916 *   4.00000    1.000000    
      7 Si    c    0.380332 *  0.704786 *  0.302810 *   4.00000    1.000000    
      8 Si    c    0.325408 *  0.618274 *  0.972003 *   4.00000    1.000000    
      9 Si    c    0.300816 *  0.678478 *  0.635750 *   4.00000    1.000000    
     10 Si    c    0.622367 *  0.294268 *  0.798851 *   4.00000    1.000000    
     11 Si    c    0.671998 *  0.368224 *  0.466935 *   4.00000    1.000000    
     12 Si    c    0.704207 *  0.324601 *  0.135846 *   4.00000    1.000000    
     13 Ge    c    0.532393 *  0.428906 *  0.966618 *   4.00000    1.000000    
     14 Si    c    0.581253 *  0.111750 *  0.301706 *   4.00000    1.000000    
     15 Si    c    0.878176 *  0.468876 *  0.632144 *   4.00000    1.000000    
     16 Si    c    0.477375 *  0.577067 *  0.470022 *   4.00000    1.000000    
     17 Si    c    0.421268 *  0.884357 *  0.803042 *   4.00000    1.000000    
     18 Si    c    0.114791 *  0.530823 *  0.137134 *   4.00000    1.000000    
     19 Si    c    0.419949 *  0.532467 *  0.368632 *   4.00000    1.000000    
     20 Si    c    0.111765 *  0.581066 *  0.035526 *   4.00000    1.000000    
     21 Si    c    0.471422 *  0.880744 *  0.701512 *   4.00000    1.000000    
     22 Si    c    0.595462 *  0.464790 *  0.867006 *   4.00000    1.000000    
     23 Si    c    0.883441 *  0.411796 *  0.529368 *   4.00000    1.000000    
     24 Si    c    0.529067 *  0.112801 *  0.200068 *   4.00000    1.000000    
     25 Si    c    0.308514 *  0.392580 *  0.855083 *   4.00000    1.000000    
     26 Si    c    0.601836 *  0.903901 *  0.186248 *   4.00000    1.000000    
     27 Ge    c    0.099456 *  0.690270 *  0.521734 *   4.00000    1.000000    
     28 Si    c    0.699983 *  0.601394 *  0.353915 *   4.00000    1.000000    
     29 Si    c    0.395781 *  0.087700 *  0.685410 *   4.00000    1.000000    
     30 Si    c    0.905234 *  0.302080 *  0.021437 *   4.00000    1.000000    
     31 Si    c    0.396596 *  0.293790 *  0.483009 *   4.00000    1.000000    
     32 Si    c    0.904858 *  0.601758 *  0.150633 *   4.00000    1.000000    
     33 Si    c    0.699975 *  0.092925 *  0.816230 *   4.00000    1.000000    
     34 Si    c    0.608857 *  0.700736 *  0.989336 *   4.00000    1.000000    
     35 Si    c    0.092950 *  0.398088 *  0.649879 *   4.00000    1.000000    
     36 Si    c    0.301417 *  0.905378 *  0.317282 *   4.00000    1.000000    
     37 Si    c    0.252973 *  0.331051 *  0.957422 *   4.00000    1.000000    
     38 Si    c    0.660322 *  0.911382 *  0.287056 *   4.00000    1.000000    
     39 Ge    c    0.085350 *  0.751437 *  0.619198 *   4.00000    1.000000    
     40 Si    c    0.755228 *  0.653893 *  0.454816 *   4.00000    1.000000    
     41 Si    c    0.341319 *  0.084658 *  0.786444 *   4.00000    1.000000    
     42 Si    c    0.914606 *  0.253608 *  0.122250 *   4.00000    1.000000    
     43 Si    c    0.339011 *  0.251181 *  0.382081 *   4.00000    1.000000    
     44 Si    c    0.909531 *  0.657278 *  0.049374 *   4.00000    1.000000    
     45 Si    c    0.748550 *  0.082421 *  0.715661 *   4.00000    1.000000    
     46 Si    c    0.668285 *  0.744398 *  0.886007 *   4.00000    1.000000    
     47 Si    c    0.090542 *  0.338111 *  0.548537 *   4.00000    1.000000    
     48 Si    c    0.252064 *  0.912026 *  0.216156 *   4.00000    1.000000    
     49 Si    c    0.968800 *  0.121195 *  0.970131 *   4.00000    1.000000    
     50 Si    c    0.879339 *  0.849996 *  0.302737 *   4.00000    1.000000    
     51 Si    c    0.148651 *  0.029814 *  0.636843 *   4.00000    1.000000    
     52 Si    c    0.034604 *  0.875182 *  0.469027 *   4.00000    1.000000    
     53 Si    c    0.124482 *  0.148499 *  0.803723 *   4.00000    1.000000    
     54 Si    c    0.851660 *  0.973465 *  0.137171 *   4.00000    1.000000    
     55 Si    c    0.120898 *  0.973537 *  0.367965 *   4.00000    1.000000    
     56 Si    c    0.853129 *  0.882220 *  0.036714 *   4.00000    1.000000    
     57 Si    c    0.029823 *  0.153735 *  0.702786 *   4.00000    1.000000    
     58 Si    c    0.880519 *  0.027055 *  0.868903 *   4.00000    1.000000    
     59 Si    c    0.149305 *  0.116021 *  0.534121 *   4.00000    1.000000    
     60 Si    c    0.972145 *  0.848258 *  0.201835 *   4.00000    1.000000    
     61 O2    c    0.932968 *  0.000494 *  0.002670 *   0.87073    1.000000    
     62 O2    c    0.000118 *  0.931707 *  0.334992 *   0.87073    1.000000    
     63 O2    c    0.083687 *  0.088062 *  0.669482 *   0.87073    1.000000    
     64 O2    c    0.067311 *  0.995366 *  0.502221 *   0.87073    1.000000    
     65 O2    c    0.004107 *  0.068293 *  0.836973 *   0.87073    1.000000    
     66 O2    c    0.929087 *  0.929912 *  0.170388 *   0.87073    1.000000    
     67 O2    c    0.343243 *  0.583004 *  0.336656 *   0.87073    1.000000    
     68 O2    c    0.423147 *  0.755301 *  0.669587 *   0.87073    1.000000    
     69 O2    c    0.238235 *  0.656394 *  0.002738 *   0.87073    1.000000    
     70 O2    c    0.664406 *  0.421882 *  0.828707 *   0.87073    1.000000    
     71 O2    c    0.579430 *  0.239550 *  0.167855 *   0.87073    1.000000    
     72 O2    c    0.755912 *  0.325517 *  0.499114 *   0.87073    1.000000    
     73 O3    c    0.582001 *  0.340273 *  0.001893 *   1.33043    1.000000    
     74 O2    c    0.751349 *  0.409049 *  0.663976 *   0.87073    1.000000    
     75 O2    c    0.657800 *  0.237772 *  0.333333 *   0.87073    1.000000    
     76 O2    c    0.434837 *  0.654186 *  0.504645 *   0.87073    1.000000    
     77 O2    c    0.240143 *  0.579892 *  0.169611 *   0.87073    1.000000    
     78 O2    c    0.346680 *  0.759117 *  0.836436 *   0.87073    1.000000    
     79 O2    c    0.120781 *  0.211311 *  0.975461 *   0.87073    1.000000    
     80 O2    c    0.787357 *  0.912625 *  0.307028 *   0.87073    1.000000    
     81 O3    c    0.080436 *  0.879738 *  0.646132 *   1.33043    1.000000    
     82 O2    c    0.880361 *  0.776576 *  0.475578 *   0.87073    1.000000    
     83 O2    c    0.214624 *  0.083256 *  0.806909 *   0.87073    1.000000    
     84 O2    c    0.914034 *  0.126920 *  0.143081 *   0.87073    1.000000    
     85 O2    c    0.212599 *  0.127775 *  0.361596 *   0.87073    1.000000    
     86 O2    c    0.908204 *  0.784511 *  0.029735 *   0.87073    1.000000    
     87 O2    c    0.875720 *  0.082487 *  0.696457 *   0.87073    1.000000    
     88 O2    c    0.790087 *  0.872653 *  0.864810 *   0.87073    1.000000    
     89 O2    c    0.092464 *  0.213956 *  0.528671 *   0.87073    1.000000    
     90 O2    c    0.125699 *  0.911489 *  0.195793 *   0.87073    1.000000    
     91 O2    c    0.933297 *  0.859647 *  0.252596 *   0.87073    1.000000    
     92 O2    c    0.134508 *  0.068173 *  0.585790 *   0.87073    1.000000    
     93 O2    c    0.929766 *  0.069315 *  0.919379 *   0.87073    1.000000    
     94 O2    c    0.070021 *  0.142088 *  0.753645 *   0.87073    1.000000    
     95 O2    c    0.871763 *  0.936410 *  0.087015 *   0.87073    1.000000    
     96 O2    c    0.066139 *  0.936112 *  0.418405 *   0.87073    1.000000    
     97 O2    c    0.899712 *  0.202956 *  0.982666 *   0.87073    1.000000    
     98 O2    c    0.797813 *  0.698873 *  0.315624 *   0.87073    1.000000    
     99 O2    c    0.301437 *  0.089993 *  0.646512 *   0.87073    1.000000    
    100 O3    c    0.107859 *  0.799383 *  0.477979 *   1.33043    1.000000    
    101 O2    c    0.210180 *  0.298782 *  0.816607 *   0.87073    1.000000    
    102 O2    c    0.699251 *  0.903419 *  0.147836 *   0.87073    1.000000    
    103 O2    c    0.203832 *  0.904223 *  0.355820 *   0.87073    1.000000    
    104 O2    c    0.701494 *  0.811512 *  0.024875 *   0.87073    1.000000    
    105 O2    c    0.089275 *  0.305292 *  0.690874 *   0.87073    1.000000    
    106 O2    c    0.798960 *  0.096129 *  0.854618 *   0.87073    1.000000    
    107 O2    c    0.300424 *  0.194850 *  0.521606 *   0.87073    1.000000    
    108 O2    c    0.902579 *  0.697757 *  0.188905 *   0.87073    1.000000    
    109 O2    c    0.324190 *  0.646066 *  0.252718 *   0.87073    1.000000    
    110 O2    c    0.355208 *  0.679325 *  0.585180 *   0.87073    1.000000    
    111 O2    c    0.328414 *  0.669506 *  0.920127 *   0.87073    1.000000    
    112 O2    c    0.677595 *  0.348180 *  0.748103 *   0.87073    1.000000    
    113 O2    c    0.649040 *  0.324746 *  0.085599 *   0.87073    1.000000    
    114 O2    c    0.673769 *  0.314740 *  0.416503 *   0.87073    1.000000    
    115 O3    c    0.365896 *  0.312975 *  0.976633 *   1.33043    1.000000    
    116 O2    c    0.669483 *  0.043420 *  0.305174 *   0.87073    1.000000    
    117 O3    c    0.939110 *  0.620618 *  0.636831 *   1.33043    1.000000    
    118 O2    c    0.632431 *  0.663305 *  0.473218 *   0.87073    1.000000    
    119 O2    c    0.333990 *  0.953593 *  0.806213 *   0.87073    1.000000    
    120 O2    c    0.046558 *  0.374515 *  0.140931 *   0.87073    1.000000    
    121 O2    c    0.331385 *  0.376734 *  0.365158 *   0.87073    1.000000    
    122 O2    c    0.044342 *  0.670154 *  0.031483 *   0.87073    1.000000    
    123 O2    c    0.627371 *  0.949172 *  0.698284 *   0.87073    1.000000    
    124 O2    c    0.678416 *  0.623311 *  0.866763 *   0.87073    1.000000    
    125 O2    c    0.959543 *  0.330269 *  0.530603 *   0.87073    1.000000    
    126 O2    c    0.373197 *  0.044434 *  0.197152 *   0.87073    1.000000    
    127 O2    c    0.771900 *  0.301360 *  0.013950 *   0.87073    1.000000    
    128 O2    c    0.695575 *  0.465718 *  0.345088 *   0.87073    1.000000    
    129 O2    c    0.529510 *  0.220091 *  0.677326 *   0.87073    1.000000    
    130 O3    c    0.248289 *  0.700867 *  0.508839 *   1.33043    1.000000    
    131 O2    c    0.311796 *  0.529198 *  0.849302 *   0.87073    1.000000    
    132 O2    c    0.467924 *  0.770371 *  0.179397 *   0.87073    1.000000    
    133 O2    c    0.303999 *  0.772071 *  0.324928 *   0.87073    1.000000    
    134 O2    c    0.469947 *  0.694889 *  0.992029 *   0.87073    1.000000    
    135 O2    c    0.226103 *  0.531219 *  0.654998 *   0.87073    1.000000    
    136 O2    c    0.695990 *  0.225240 *  0.822655 *   0.87073    1.000000    
    137 O2    c    0.529961 *  0.292132 *  0.490086 *   0.87073    1.000000    
    138 O2    c    0.772632 *  0.467022 *  0.158385 *   0.87073    1.000000    
    139 O2    c    0.787759 *  0.532793 *  0.028851 *   0.87073    1.000000    
    140 O2    c    0.463590 *  0.250301 *  0.361762 *   0.87073    1.000000    
    141 O2    c    0.749153 *  0.207740 *  0.694218 *   0.87073    1.000000    
    142 O2    c    0.214188 *  0.469200 *  0.532120 *   0.87073    1.000000    
    143 O2    c    0.537085 *  0.736644 *  0.868220 *   0.87073    1.000000    
    144 O2    c    0.251338 *  0.785662 *  0.197005 *   0.87073    1.000000    
    145 O2    c    0.535976 *  0.785338 *  0.307233 *   0.87073    1.000000    
    146 O2    c    0.261482 *  0.463864 *  0.975057 *   0.87073    1.000000    
    147 O3    c    0.219067 *  0.749804 *  0.642145 *   1.33043    1.000000    
    148 O2    c    0.466421 *  0.213016 *  0.804215 *   0.87073    1.000000    
    149 O2    c    0.749634 *  0.523649 *  0.473629 *   0.87073    1.000000    
    150 O2    c    0.787402 *  0.251403 *  0.141341 *   0.87073    1.000000    
    151 O2    c    0.242308 *  0.321951 *  0.902149 *   0.87073    1.000000    
    152 O2    c    0.677006 *  0.908928 *  0.232672 *   0.87073    1.000000    
    153 O1    c    0.092791 *  0.791944 *  0.563453 *   1.73396    1.000000    
    154 O2    c    0.772190 *  0.671801 *  0.400305 *   0.87073    1.000000    
    155 O2    c    0.321839 *  0.083100 *  0.732132 *   0.87073    1.000000    
    156 O2    c    0.913571 *  0.232830 *  0.067952 *   0.87073    1.000000    
    157 O2    c    0.321795 *  0.227582 *  0.436475 *   0.87073    1.000000    
    158 O2    c    0.906982 *  0.674562 *  0.103726 *   0.87073    1.000000    
    159 O2    c    0.769858 *  0.087769 *  0.769952 *   0.87073    1.000000    
    160 O2    c    0.680598 *  0.758608 *  0.940227 *   0.87073    1.000000    
    161 O2    c    0.088556 *  0.326184 *  0.603353 *   0.87073    1.000000    
    162 O2    c    0.232401 *  0.910394 *  0.270527 *   0.87073    1.000000    
    163 O3    c    0.602446 *  0.569656 *  0.002184 *   1.33043    1.000000    
    164 O2    c    0.440942 *  0.029680 *  0.325553 *   0.87073    1.000000    
    165 O2    c    0.973983 *  0.423252 *  0.654059 *   0.87073    1.000000    
    166 O2    c    0.412738 *  0.433849 *  0.492829 *   0.87073    1.000000    
    167 O2    c    0.562344 *  0.965847 *  0.825866 *   0.87073    1.000000    
    168 O2    c    0.031312 *  0.589294 *  0.159795 *   0.87073    1.000000    
    169 O2    c    0.561453 *  0.590219 *  0.345987 *   0.87073    1.000000    
    170 O2    c    0.031406 *  0.440842 *  0.011748 *   0.87073    1.000000    
    171 O2    c    0.412008 *  0.962905 *  0.677738 *   0.87073    1.000000    
    172 O2    c    0.449758 *  0.412511 *  0.847320 *   0.87073    1.000000    
    173 O3    c    0.963644 *  0.547395 *  0.504157 *   1.33043    1.000000    
    174 O2    c    0.586005 *  0.028570 *  0.176922 *   0.87073    1.000000    
    175 O2    c    0.581421 *  0.165427 *  0.250785 *   0.87073    1.000000    
    176 O2    c    0.835109 *  0.419157 *  0.580666 *   0.87073    1.000000    
    177 O3    c    0.602938 *  0.408242 *  0.914965 *   1.33043    1.000000    
    178 O2    c    0.418951 *  0.828161 *  0.752748 *   0.87073    1.000000    
    179 O2    c    0.168946 *  0.583362 *  0.085988 *   0.87073    1.000000    
    180 O2    c    0.421467 *  0.582706 *  0.420034 *   0.87073    1.000000    
    181 F     c    0.452850 *  0.905229 *  0.251873 *   0.56000    1.000000    
    182 F     c    0.094346 *  0.586237 *  0.576614 *   0.56000    1.000000    
    183 F     c    0.477270 *  0.521093 *  0.929414 *   0.56000    1.000000    
    184 F     c    0.548607 *  0.087999 *  0.751098 *   0.56000    1.000000    
    185 F     c    0.913301 *  0.454534 *  0.085920 *   0.56000    1.000000    
    186 F     c    0.547893 *  0.447634 *  0.419444 *   0.56000    1.000000    
    187 O2    s    0.928018 *  0.000902 *  0.002796 *  -2.87073    1.000000    
    188 O2    s    0.999992 *  0.927185 *  0.335033 *  -2.87073    1.000000    
    189 O2    s    0.084634 *  0.089341 *  0.669762 *  -2.87073    1.000000    
    190 O2    s    0.073212 *  0.996638 *  0.502409 *  -2.87073    1.000000    
    191 O2    s    0.003985 *  0.072678 *  0.836763 *  -2.87073    1.000000    
    192 O2    s    0.925154 *  0.925582 *  0.170176 *  -2.87073    1.000000    
    193 O2    s    0.355014 *  0.590243 *  0.336500 *  -2.87073    1.000000    
    194 O2    s    0.415879 *  0.760470 *  0.669474 *  -2.87073    1.000000    
    195 O2    s    0.235039 *  0.644888 *  0.002683 *  -2.87073    1.000000    
    196 O2    s    0.653058 *  0.412910 *  0.829443 *  -2.87073    1.000000    
    197 O2    s    0.586991 *  0.235110 *  0.167911 *  -2.87073    1.000000    
    198 O2    s    0.760522 *  0.338531 *  0.498983 *  -2.87073    1.000000    
    199 O3    s    0.591328 *  0.350314 *  0.002906 *  -3.33043    1.000000    
    200 O2    s    0.756367 *  0.402521 *  0.664280 *  -2.87073    1.000000    
    201 O2    s    0.645845 *  0.233439 *  0.333532 *  -2.87073    1.000000    
    202 O2    s    0.425722 *  0.643100 *  0.504201 *  -2.87073    1.000000    
    203 O2    s    0.236057 *  0.587504 *  0.169628 *  -2.87073    1.000000    
    204 O2    s    0.358061 *  0.762697 *  0.836580 *  -2.87073    1.000000    
    205 O2    s    0.118196 *  0.214341 *  0.972902 *  -2.87073    1.000000    
    206 O2    s    0.783957 *  0.905818 *  0.304521 *  -2.87073    1.000000    
    207 O3    s    0.087905 *  0.886030 *  0.643235 *  -3.33043    1.000000    
    208 O2    s    0.882321 *  0.773308 *  0.472765 *  -2.87073    1.000000    
    209 O2    s    0.218079 *  0.090315 *  0.804495 *  -2.87073    1.000000    
    210 O2    s    0.907398 *  0.123560 *  0.140320 *  -2.87073    1.000000    
    211 O2    s    0.216143 *  0.124494 *  0.364355 *  -2.87073    1.000000    
    212 O2    s    0.902473 *  0.781918 *  0.032453 *  -2.87073    1.000000    
    213 O2    s    0.878956 *  0.090005 *  0.699080 *  -2.87073    1.000000    
    214 O2    s    0.787044 *  0.875690 *  0.867408 *  -2.87073    1.000000    
    215 O2    s    0.098133 *  0.217277 *  0.531358 *  -2.87073    1.000000    
    216 O2    s    0.122451 *  0.904811 *  0.198521 *  -2.87073    1.000000    
    217 O2    s    0.931560 *  0.857244 *  0.252533 *  -2.87073    1.000000    
    218 O2    s    0.137723 *  0.069249 *  0.585702 *  -2.87073    1.000000    
    219 O2    s    0.928422 *  0.070193 *  0.919196 *  -2.87073    1.000000    
    220 O2    s    0.071616 *  0.144108 *  0.753547 *  -2.87073    1.000000    
    221 O2    s    0.867369 *  0.934365 *  0.086891 *  -2.87073    1.000000    
    222 O2    s    0.068997 *  0.933874 *  0.418061 *  -2.87073    1.000000    
    223 O2    s    0.907788 *  0.204025 *  0.985188 *  -2.87073    1.000000    
    224 O2    s    0.796363 *  0.704895 *  0.318224 *  -2.87073    1.000000    
    225 O2    s    0.295785 *  0.083615 *  0.649612 *  -2.87073    1.000000    
    226 O3    s    0.099223 *  0.800469 *  0.479894 *  -3.33043    1.000000    
    227 O2    s    0.211230 *  0.292536 *  0.819195 *  -2.87073    1.000000    
    228 O2    s    0.705400 *  0.910814 *  0.150596 *  -2.87073    1.000000    
    229 O2    s    0.205142 *  0.911579 *  0.353151 *  -2.87073    1.000000    
    230 O2    s    0.707920 *  0.807682 *  0.022502 *  -2.87073    1.000000    
    231 O2    s    0.083419 *  0.299231 *  0.687803 *  -2.87073    1.000000    
    232 O2    s    0.797438 *  0.088413 *  0.852163 *  -2.87073    1.000000    
    233 O2    s    0.294192 *  0.196550 *  0.519005 *  -2.87073    1.000000    
    234 O2    s    0.910226 *  0.703983 *  0.186373 *  -2.87073    1.000000    
    235 O2    s    0.329952 *  0.657766 *  0.252648 *  -2.87073    1.000000    
    236 O2    s    0.345025 *  0.673945 *  0.585368 *  -2.87073    1.000000    
    237 O2    s    0.333866 *  0.664792 *  0.920001 *  -2.87073    1.000000    
    238 O2    s    0.671447 *  0.336429 *  0.748200 *  -2.87073    1.000000    
    239 O2    s    0.659969 *  0.329856 *  0.085735 *  -2.87073    1.000000    
    240 O2    s    0.667945 *  0.320895 *  0.416595 *  -2.87073    1.000000    
    241 O3    s    0.364768 *  0.322658 *  0.973857 *  -3.33043    1.000000    
    242 O2    s    0.659411 *  0.036630 *  0.302908 *  -2.87073    1.000000    
    243 O3    s    0.944056 *  0.615146 *  0.634985 *  -3.33043    1.000000    
    244 O2    s    0.628924 *  0.653239 *  0.470950 *  -2.87073    1.000000    
    245 O2    s    0.343776 *  0.959991 *  0.803832 *  -2.87073    1.000000    
    246 O2    s    0.039812 *  0.377937 *  0.138586 *  -2.87073    1.000000    
    247 O2    s    0.341298 *  0.379526 *  0.367313 *  -2.87073    1.000000    
    248 O2    s    0.037641 *  0.659699 *  0.033717 *  -2.87073    1.000000    
    249 O2    s    0.624146 *  0.956173 *  0.700457 *  -2.87073    1.000000    
    250 O2    s    0.669374 *  0.620792 *  0.868821 *  -2.87073    1.000000    
    251 O2    s    0.965910 *  0.339377 *  0.532419 *  -2.87073    1.000000    
    252 O2    s    0.376551 *  0.037629 *  0.199443 *  -2.87073    1.000000    
    253 O2    s    0.779213 *  0.308982 *  0.016833 *  -2.87073    1.000000    
    254 O2    s    0.688095 *  0.465034 *  0.348249 *  -2.87073    1.000000    
    255 O2    s    0.530369 *  0.213148 *  0.680437 *  -2.87073    1.000000    
    256 O3    s    0.243650 *  0.692236 *  0.512394 *  -3.33043    1.000000    
    257 O2    s    0.318922 *  0.530074 *  0.852038 *  -2.87073    1.000000    
    258 O2    s    0.467361 *  0.777455 *  0.182442 *  -2.87073    1.000000    
    259 O2    s    0.311571 *  0.779144 *  0.321818 *  -2.87073    1.000000    
    260 O2    s    0.468786 *  0.687420 *  0.989617 *  -2.87073    1.000000    
    261 O2    s    0.219367 *  0.531904 *  0.652451 *  -2.87073    1.000000    
    262 O2    s    0.688854 *  0.218216 *  0.819505 *  -2.87073    1.000000    
    263 O2    s    0.530470 *  0.300123 *  0.486925 *  -2.87073    1.000000    
    264 O2    s    0.779574 *  0.466632 *  0.155232 *  -2.87073    1.000000    
    265 O2    s    0.792823 *  0.531166 *  0.031591 *  -2.87073    1.000000    
    266 O2    s    0.466360 *  0.257870 *  0.364413 *  -2.87073    1.000000    
    267 O2    s    0.741197 *  0.202586 *  0.696908 *  -2.87073    1.000000    
    268 O2    s    0.210005 *  0.470493 *  0.534083 *  -2.87073    1.000000    
    269 O2    s    0.534504 *  0.730584 *  0.870262 *  -2.87073    1.000000    
    270 O2    s    0.259234 *  0.790771 *  0.199576 *  -2.87073    1.000000    
    271 O2    s    0.533220 *  0.790687 *  0.304611 *  -2.87073    1.000000    
    272 O2    s    0.267695 *  0.466996 *  0.972930 *  -2.87073    1.000000    
    273 O3    s    0.216786 *  0.742564 *  0.639702 *  -3.33043    1.000000    
    274 O2    s    0.468932 *  0.207429 *  0.801778 *  -2.87073    1.000000    
    275 O2    s    0.742089 *  0.521517 *  0.470977 *  -2.87073    1.000000    
    276 O2    s    0.792626 *  0.259366 *  0.138729 *  -2.87073    1.000000    
    277 O2    s    0.250620 *  0.330557 *  0.902557 *  -2.87073    1.000000    
    278 O2    s    0.667364 *  0.908664 *  0.233568 *  -2.87073    1.000000    
    279 O1    s    0.092627 *  0.781970 *  0.565166 *  -3.73396    1.000000    
    280 O2    s    0.762785 *  0.662479 *  0.401193 *  -2.87073    1.000000    
    281 O2    s    0.331555 *  0.083720 *  0.733090 *  -2.87073    1.000000    
    282 O2    s    0.912846 *  0.242244 *  0.068786 *  -2.87073    1.000000    
    283 O2    s    0.331473 *  0.237022 *  0.435662 *  -2.87073    1.000000    
    284 O2    s    0.907036 *  0.665068 *  0.102944 *  -2.87073    1.000000    
    285 O2    s    0.760210 *  0.087738 *  0.769040 *  -2.87073    1.000000    
    286 O2    s    0.672308 *  0.751392 *  0.939039 *  -2.87073    1.000000    
    287 O2    s    0.089221 *  0.335071 *  0.602599 *  -2.87073    1.000000    
    288 O2    s    0.241736 *  0.910042 *  0.269685 *  -2.87073    1.000000    
    289 O3    s    0.598287 *  0.574615 *  0.998444 *  -3.33043    1.000000    
    290 O2    s    0.440560 *  0.024700 *  0.322185 *  -2.87073    1.000000    
    291 O2    s    0.977455 *  0.425275 *  0.651322 *  -2.87073    1.000000    
    292 O2    s    0.417790 *  0.433631 *  0.489417 *  -2.87073    1.000000    
    293 O2    s    0.562178 *  0.970906 *  0.822456 *  -2.87073    1.000000    
    294 O2    s    0.026296 *  0.584361 *  0.156439 *  -2.87073    1.000000    
    295 O2    s    0.561535 *  0.585197 *  0.349227 *  -2.87073    1.000000    
    296 O2    s    0.026293 *  0.440682 *  0.015212 *  -2.87073    1.000000    
    297 O2    s    0.416637 *  0.967875 *  0.681047 *  -2.87073    1.000000    
    298 O2    s    0.448455 *  0.415578 *  0.850138 *  -2.87073    1.000000    
    299 O3    s    0.965861 *  0.544267 *  0.508083 *  -3.33043    1.000000    
    300 O2    s    0.581605 *  0.023703 *  0.180340 *  -2.87073    1.000000    
    301 O2    s    0.575931 *  0.154295 *  0.250835 *  -2.87073    1.000000    
    302 O2    s    0.844520 *  0.423727 *  0.580960 *  -2.87073    1.000000    
    303 O3    s    0.597627 *  0.415600 *  0.913175 *  -3.33043    1.000000    
    304 O2    s    0.424568 *  0.839378 *  0.752721 *  -2.87073    1.000000    
    305 O2    s    0.157519 *  0.577751 *  0.086000 *  -2.87073    1.000000    
    306 O2    s    0.427032 *  0.576965 *  0.419909 *  -2.87073    1.000000    
    307 F     s    0.452748 *  0.904918 *  0.251901 *  -1.56000    1.000000    
    308 F     s    0.094577 *  0.592862 *  0.574707 *  -1.56000    1.000000    
    309 F     s    0.481220 *  0.514939 *  0.931889 *  -1.56000    1.000000    
    310 F     s    0.548823 *  0.088119 *  0.751135 *  -1.56000    1.000000    
    311 F     s    0.913896 *  0.454657 *  0.085932 *  -1.56000    1.000000    
    312 F     s    0.547979 *  0.447349 *  0.419601 *  -1.56000    1.000000    
--------------------------------------------------------------------------------



********************************************************************************
*  General input information                                                   *
********************************************************************************

  Species output for all configurations : 

--------------------------------------------------------------------------------
  Species    Type    Atomic    Atomic    Charge       Radii (Angs)     Library
                     Number     Mass       (e)     Cova   Ionic  VDW   Symbol
--------------------------------------------------------------------------------
    Si       Core       14      28.09   4.000000   1.200  0.000  2.100          
    O1       Core        8      16.00   1.733957   0.730  0.000  1.360          
    O1       Shell       8       0.00  -3.733957   0.730  0.000  1.360          
    O2       Core        8      16.00   0.870733   0.730  0.000  1.360          
    O2       Shell       8       0.00  -2.870733   0.730  0.000  1.360          
    O3       Core        8      16.00   1.330431   0.730  0.000  1.360          
    O3       Shell       8       0.00  -3.330431   0.730  0.000  1.360          
    F        Core        9      19.00   0.560000   0.710  0.000  1.300          
    F        Shell       9       0.00  -1.560000   0.710  0.000  1.300          
    Ge       Core       32      72.61   4.000000   1.170  0.000  1.750          
--------------------------------------------------------------------------------


  Lattice summation method               =    Ewald          (3-D)
                                         =    Parry          (2-D)
                                         =    Saunders et al (1-D)
  Accuracy factor for lattice sums       =   12.000


  Time limit = Infinity

  Maximum range for interatomic potentials =        16.000000 Angstroms

  Taper potentials to zero over   1.0000 Angstroms using polynomial

  General interatomic potentials :

--------------------------------------------------------------------------------
Atom  Types   Potential         A         B         C         D     Cutoffs(Ang)
  1     2                                                            Min    Max 
--------------------------------------------------------------------------------
Si   c O1   s Buckingham    0.132E+04 0.318      10.1      0.00     0.000 16.000
Si   c O2   s Buckingham    0.132E+04 0.318      10.1      0.00     0.000 16.000
Si   c O3   s Buckingham    0.132E+04 0.318      10.1      0.00     0.000 16.000
Ge   c O1   s Buckingham    0.150E+04 0.326      16.8      0.00     0.000 16.000
Ge   c O2   s Buckingham    0.150E+04 0.326      16.8      0.00     0.000 16.000
Ge   c O3   s Buckingham    0.150E+04 0.326      16.8      0.00     0.000 16.000
O1   s O1   s Buckingham    0.228E+05 0.149      10.9      0.00     0.000 16.000
O1   s O2   s Buckingham    0.228E+05 0.149      10.9      0.00     0.000 16.000
O1   s O3   s Buckingham    0.228E+05 0.149      10.9      0.00     0.000 16.000
O2   s O2   s Buckingham    0.228E+05 0.149      10.9      0.00     0.000 16.000
O2   s O3   s Buckingham    0.228E+05 0.149      10.9      0.00     0.000 16.000
O3   s O3   s Buckingham    0.228E+05 0.149      10.9      0.00     0.000 16.000
Si   c F    s Buckingham     977.     0.282      0.00      0.00     0.000 16.000
Ge   c F    s Buckingham     681.     0.320      0.00      0.00     0.000 16.000
F    s F    s Buckingham     540.     0.262      0.00      0.00     0.000 16.000
O1   s F    s Buckingham    0.168E+04 0.268      0.00      0.00     0.000 16.000
O2   s F    s Buckingham    0.168E+04 0.268      0.00      0.00     0.000 16.000
O3   s F    s Buckingham    0.168E+04 0.268      0.00      0.00     0.000 16.000
O2   c O2   s Spring (c-s)   76.0      0.00      0.00      0.00     0.000  0.800
O3   c O3   s Spring (c-s)   128.      0.00      0.00      0.00     0.000  0.800
O1   c O1   s Spring (c-s)   180.      0.00      0.00      0.00     0.000  0.800
F    c F    s Spring (c-s)   33.5      0.00      0.00      0.00     0.000  0.800
--------------------------------------------------------------------------------

  General Three-body potentials :

  Harmonic form:

--------------------------------------------------------------------------------
Atom    Atom    Atom           Force Constants            Theta     Cutoffs  
  1       2       3     (eVrad**-2/eVrad**-3/eVrad**-4)   (deg)  1-2  1-3  2-3
--------------------------------------------------------------------------------
Si    c O1    s O1    s  1.261        0.0000    0.0000   109.470 0.00 0.00 0.00
                                                                 1.90 1.90 3.50
Si    c O1    s O2    s  1.261        0.0000    0.0000   109.470 0.00 0.00 0.00
                                                                 1.90 1.90 3.50
Si    c O2    s O2    s  1.261        0.0000    0.0000   109.470 0.00 0.00 0.00
                                                                 1.90 1.90 3.50
--------------------------------------------------------------------------------

********************************************************************************
*  Output for configuration   1                                                *
********************************************************************************


  Components of energy : 

--------------------------------------------------------------------------------
  Interatomic potentials     =        2064.36205989 eV
  Three-body potentials      =           0.47829644 eV
  Monopole - monopole (real) =       -6612.64388754 eV
  Monopole - monopole (recip)=       -3172.33865941 eV
  Monopole - monopole (total)=       -9784.98254695 eV
  Neutralising energy        =          -6.46138107 eV
--------------------------------------------------------------------------------
  Total lattice energy       =       -7726.60357169 eV
--------------------------------------------------------------------------------
  Total lattice energy       =         -745499.1327 kJ/(mole unit cells)
--------------------------------------------------------------------------------


  Number of variables =      939

  Maximum number of calculations  =          1000
  Maximum Hessian update interval =            10
  Maximum step size               =   1.000000000
  Maximum parameter tolerance     =   0.000010000
  Maximum function  tolerance     =   0.000010000
  Maximum gradient  tolerance     =   0.001000000
  Maximum gradient  component     =   0.010000000

  Symmetry not applied to optimisation

  Cell parameters to be optimised using strains

  Newton-Raphson optimiser to be used

  BFGS hessian update to be used

  Dumpfile to be written after every cycle

  Start of bulk optimisation :

  Cycle:      0 Energy:     -7726.603572  Gnorm:      0.000935  CPU:    1.064
  ** Hessian calculated **
  Cycle:      1 Energy:     -7726.619228  Gnorm:      0.001035  CPU:    2.972
  Cycle:      2 Energy:     -7726.619268  Gnorm:      0.000137  CPU:    4.356


  **** Optimisation achieved ****


  Final energy =   -7726.61927031 eV
  Final Gnorm  =       0.00002418

  Components of energy : 

--------------------------------------------------------------------------------
  Interatomic potentials     =        2064.52698566 eV
  Three-body potentials      =           0.48333224 eV
  Monopole - monopole (real) =       -6612.58118978 eV
  Monopole - monopole (recip)=       -3172.58651143 eV
  Monopole - monopole (total)=       -9785.16770120 eV
  Neutralising energy        =          -6.46188701 eV
--------------------------------------------------------------------------------
  Total lattice energy       =       -7726.61927031 eV
--------------------------------------------------------------------------------
  Total lattice energy       =         -745500.6474 kJ/(mole unit cells)
--------------------------------------------------------------------------------

  Final fractional coordinates of atoms :

--------------------------------------------------------------------------------
   No.  Atomic        x           y          z          Radius
        Label       (Frac)      (Frac)     (Frac)       (Angs) 
--------------------------------------------------------------------------------
     1  Si    c     0.699600    0.375700    0.033890    0.000000
     2  Si    c     0.618654    0.312193    0.366392    0.000000
     3  Si    c     0.673203    0.281241    0.697926    0.000000
     4  Si    c     0.310294    0.616581    0.533773    0.000000
     5  Si    c     0.383442    0.667951    0.869700    0.000000
     6  Si    c     0.324662    0.695903    0.202207    0.000000
     7  Si    c     0.380434    0.697002    0.303095    0.000000
     8  Si    c     0.325832    0.613519    0.972154    0.000000
     9  Si    c     0.300842    0.670158    0.635914    0.000000
    10  Si    c     0.622449    0.288175    0.798571    0.000000
    11  Si    c     0.671680    0.358070    0.466990    0.000000
    12  Si    c     0.703658    0.320709    0.135773    0.000000
    13  Ge    c     0.530694    0.423827    0.966116    0.000000
    14  Si    c     0.581175    0.104099    0.301612    0.000000
    15  Si    c     0.878402    0.461129    0.631789    0.000000
    16  Si    c     0.478080    0.567558    0.470431    0.000000
    17  Si    c     0.421255    0.878341    0.803050    0.000000
    18  Si    c     0.114602    0.525471    0.137325    0.000000
    19  Si    c     0.420217    0.524289    0.368992    0.000000
    20  Si    c     0.112503    0.577172    0.035780    0.000000
    21  Si    c     0.470859    0.872961    0.701585    0.000000
    22  Si    c     0.595439    0.458913    0.866659    0.000000
    23  Si    c     0.884164    0.403556    0.529053    0.000000
    24  Si    c     0.529404    0.106907    0.199946    0.000000
    25  Si    c     0.308458    0.387148    0.854933    0.000000
    26  Si    c     0.601505    0.897311    0.186548    0.000000
    27  Ge    c     0.100724    0.681566    0.522045    0.000000
    28  Si    c     0.700398    0.593116    0.354151    0.000000
    29  Si    c     0.395745    0.080325    0.685392    0.000000
    30  Si    c     0.904195    0.299403    0.021399    0.000000
    31  Si    c     0.396542    0.283951    0.483289    0.000000
    32  Si    c     0.905283    0.597134    0.150827    0.000000
    33  Si    c     0.699828    0.086563    0.816077    0.000000
    34  Si    c     0.609170    0.695523    0.989544    0.000000
    35  Si    c     0.092818    0.389926    0.649866    0.000000
    36  Si    c     0.301480    0.897743    0.317425    0.000000
    37  Si    c     0.251662    0.325772    0.957346    0.000000
    38  Si    c     0.660319    0.903774    0.287240    0.000000
    39  Ge    c     0.085655    0.744170    0.619361    0.000000
    40  Si    c     0.755888    0.644123    0.455124    0.000000
    41  Si    c     0.341322    0.078577    0.786383    0.000000
    42  Si    c     0.913539    0.248567    0.122091    0.000000
    43  Si    c     0.338918    0.242732    0.382339    0.000000
    44  Si    c     0.911730    0.655258    0.049713    0.000000
    45  Si    c     0.748060    0.074618    0.715556    0.000000
    46  Si    c     0.668637    0.738588    0.886089    0.000000
    47  Si    c     0.091250    0.329806    0.548618    0.000000
    48  Si    c     0.252295    0.905619    0.216307    0.000000
    49  Si    c     0.966920    0.117579    0.970327    0.000000
    50  Si    c     0.879392    0.842487    0.303105    0.000000
    51  Si    c     0.148387    0.022012    0.637186    0.000000
    52  Si    c     0.035055    0.866058    0.469437    0.000000
    53  Si    c     0.124566    0.142558    0.804013    0.000000
    54  Si    c     0.851672    0.968384    0.137557    0.000000
    55  Si    c     0.120746    0.965269    0.368339    0.000000
    56  Si    c     0.853316    0.878304    0.037015    0.000000
    57  Si    c     0.029230    0.145803    0.703064    0.000000
    58  Si    c     0.880438    0.021526    0.869184    0.000000
    59  Si    c     0.148814    0.106823    0.534317    0.000000
    60  Si    c     0.972680    0.843204    0.202080    0.000000
    61  O2    c     0.931290    0.997628    0.003229    0.000000
    62  O2    c     0.999686    0.923625    0.335553    0.000000
    63  O2    c     0.084129    0.080393    0.670077    0.000000
    64  O2    c     0.066417    0.985954    0.502608    0.000000
    65  O2    c     0.005242    0.063141    0.837820    0.000000
    66  O2    c     0.930053    0.925988    0.170896    0.000000
    67  O2    c     0.343729    0.575318    0.337057    0.000000
    68  O2    c     0.422696    0.747235    0.669885    0.000000
    69  O2    c     0.239110    0.652027    0.002968    0.000000
    70  O2    c     0.664323    0.415925    0.828330    0.000000
    71  O2    c     0.579021    0.233900    0.167768    0.000000
    72  O2    c     0.756568    0.316097    0.499016    0.000000
    73  O3    c     0.581749    0.337538    0.001920    0.000000
    74  O2    c     0.751349    0.401327    0.663560    0.000000
    75  O2    c     0.657764    0.229872    0.333241    0.000000
    76  O2    c     0.436319    0.645112    0.505145    0.000000
    77  O2    c     0.239636    0.573348    0.169891    0.000000
    78  O2    c     0.346701    0.753455    0.836606    0.000000
    79  O2    c     0.119027    0.207034    0.975422    0.000000
    80  O2    c     0.787113    0.904803    0.307354    0.000000
    81  O3    c     0.080511    0.871848    0.646561    0.000000
    82  O2    c     0.881013    0.766313    0.475991    0.000000
    83  O2    c     0.214942    0.077525    0.807002    0.000000
    84  O2    c     0.912861    0.121842    0.143009    0.000000
    85  O2    c     0.212268    0.119547    0.361943    0.000000
    86  O2    c     0.911072    0.782841    0.029986    0.000000
    87  O2    c     0.875191    0.074230    0.696468    0.000000
    88  O2    c     0.790632    0.867077    0.865017    0.000000
    89  O2    c     0.093116    0.205695    0.528700    0.000000
    90  O2    c     0.126193    0.905761    0.195977    0.000000
    91  O2    c     0.934107    0.853669    0.252985    0.000000
    92  O2    c     0.132977    0.059362    0.586117    0.000000
    93  O2    c     0.927514    0.064070    0.919804    0.000000
    94  O2    c     0.068519    0.134521    0.754106    0.000000
    95  O2    c     0.871638    0.931230    0.087442    0.000000
    96  O2    c     0.066175    0.927271    0.418812    0.000000
    97  O2    c     0.898433    0.200182    0.982526    0.000000
    98  O2    c     0.798024    0.691142    0.315848    0.000000
    99  O2    c     0.301311    0.082318    0.646458    0.000000
   100  O3    c     0.109446    0.791421    0.478404    0.000000
   101  O2    c     0.210404    0.293142    0.816463    0.000000
   102  O2    c     0.699259    0.897245    0.148177    0.000000
   103  O2    c     0.203767    0.896161    0.356009    0.000000
   104  O2    c     0.701686    0.805796    0.025146    0.000000
   105  O2    c     0.088517    0.297253    0.691051    0.000000
   106  O2    c     0.799049    0.090371    0.854423    0.000000
   107  O2    c     0.300047    0.184685    0.521836    0.000000
   108  O2    c     0.902628    0.692838    0.189097    0.000000
   109  O2    c     0.324296    0.638745    0.252960    0.000000
   110  O2    c     0.355851    0.671631    0.585390    0.000000
   111  O2    c     0.328305    0.663871    0.920160    0.000000
   112  O2    c     0.677506    0.341263    0.747711    0.000000
   113  O2    c     0.649216    0.323906    0.085679    0.000000
   114  O2    c     0.673394    0.305026    0.416499    0.000000
   115  O3    c     0.364531    0.307019    0.976229    0.000000
   116  O2    c     0.669517    0.035897    0.305187    0.000000
   117  O3    c     0.938959    0.612801    0.636372    0.000000
   118  O2    c     0.633086    0.653575    0.473500    0.000000
   119  O2    c     0.333892    0.947490    0.806214    0.000000
   120  O2    c     0.045536    0.369080    0.140847    0.000000
   121  O2    c     0.331629    0.368591    0.365449    0.000000
   122  O2    c     0.046074    0.667308    0.031732    0.000000
   123  O2    c     0.626827    0.941453    0.698272    0.000000
   124  O2    c     0.678370    0.617514    0.866551    0.000000
   125  O2    c     0.960844    0.322545    0.530380    0.000000
   126  O2    c     0.373477    0.037936    0.197211    0.000000
   127  O2    c     0.772104    0.300953    0.014044    0.000000
   128  O2    c     0.695471    0.457298    0.345194    0.000000
   129  O2    c     0.529485    0.212494    0.677067    0.000000
   130  O3    c     0.249671    0.692335    0.508819    0.000000
   131  O2    c     0.312493    0.524095    0.849133    0.000000
   132  O2    c     0.467747    0.763784    0.179559    0.000000
   133  O2    c     0.304035    0.764358    0.325093    0.000000
   134  O2    c     0.470558    0.690544    0.991914    0.000000
   135  O2    c     0.226401    0.522597    0.654944    0.000000
   136  O2    c     0.696044    0.219063    0.822337    0.000000
   137  O2    c     0.529651    0.281542    0.490233    0.000000
   138  O2    c     0.772752    0.462612    0.158651    0.000000
   139  O2    c     0.788803    0.532232    0.029000    0.000000
   140  O2    c     0.463273    0.241656    0.361854    0.000000
   141  O2    c     0.748918    0.200060    0.694035    0.000000
   142  O2    c     0.215606    0.460826    0.532556    0.000000
   143  O2    c     0.537521    0.731320    0.868455    0.000000
   144  O2    c     0.251353    0.779064    0.197300    0.000000
   145  O2    c     0.536025    0.777604    0.307447    0.000000
   146  O2    c     0.262053    0.459117    0.975279    0.000000
   147  O3    c     0.218368    0.740691    0.642368    0.000000
   148  O2    c     0.466572    0.206945    0.803974    0.000000
   149  O2    c     0.749466    0.513385    0.473843    0.000000
   150  O2    c     0.786414    0.246960    0.140910    0.000000
   151  O2    c     0.241570    0.317064    0.902045    0.000000
   152  O2    c     0.676997    0.901684    0.232834    0.000000
   153  O1    c     0.094320    0.784226    0.563600    0.000000
   154  O2    c     0.772816    0.662467    0.400598    0.000000
   155  O2    c     0.321814    0.076578    0.732056    0.000000
   156  O2    c     0.912303    0.228975    0.067737    0.000000
   157  O2    c     0.321561    0.218526    0.436737    0.000000
   158  O2    c     0.908430    0.671457    0.104088    0.000000
   159  O2    c     0.769360    0.080460    0.769844    0.000000
   160  O2    c     0.681243    0.752245    0.940327    0.000000
   161  O2    c     0.088062    0.317385    0.603475    0.000000
   162  O2    c     0.232713    0.903475    0.270702    0.000000
   163  O3    c     0.600798    0.563606    0.002213    0.000000
   164  O2    c     0.440984    0.021959    0.325592    0.000000
   165  O2    c     0.974431    0.416045    0.653926    0.000000
   166  O2    c     0.413373    0.424228    0.493249    0.000000
   167  O2    c     0.562225    0.959712    0.825915    0.000000
   168  O2    c     0.031486    0.584243    0.160113    0.000000
   169  O2    c     0.561905    0.582246    0.346464    0.000000
   170  O2    c     0.031601    0.437422    0.011838    0.000000
   171  O2    c     0.411324    0.955086    0.677796    0.000000
   172  O2    c     0.449548    0.406555    0.847188    0.000000
   173  O3    c     0.964537    0.539393    0.503983    0.000000
   174  O2    c     0.586316    0.022404    0.177018    0.000000
   175  O2    c     0.581506    0.158507    0.250746    0.000000
   176  O2    c     0.835808    0.411069    0.580372    0.000000
   177  O3    c     0.602143    0.402461    0.914731    0.000000
   178  O2    c     0.418678    0.821155    0.752928    0.000000
   179  O2    c     0.169449    0.578719    0.086236    0.000000
   180  O2    c     0.421815    0.573586    0.420532    0.000000
   181  F     c     0.453304    0.897939    0.251969    0.000000
   182  F     c     0.095152    0.577820    0.576315    0.000000
   183  F     c     0.476710    0.515968    0.929070    0.000000
   184  F     c     0.548057    0.080706    0.750964    0.000000
   185  F     c     0.914190    0.452401    0.085981    0.000000
   186  F     c     0.547893    0.437752    0.419731    0.000000
   187  O2    s     0.926481    0.997800    0.003291    0.000000
   188  O2    s     0.999635    0.919142    0.335549    0.000000
   189  O2    s     0.084870    0.081599    0.670285    0.000000
   190  O2    s     0.072510    0.987323    0.502787    0.000000
   191  O2    s     0.004871    0.067394    0.837486    0.000000
   192  O2    s     0.925993    0.921435    0.170641    0.000000
   193  O2    s     0.355412    0.582479    0.336884    0.000000
   194  O2    s     0.415478    0.752424    0.669740    0.000000
   195  O2    s     0.235864    0.640526    0.002902    0.000000
   196  O2    s     0.653024    0.406982    0.829082    0.000000
   197  O2    s     0.586612    0.229628    0.167824    0.000000
   198  O2    s     0.761079    0.329142    0.498878    0.000000
   199  O3    s     0.591093    0.347795    0.002908    0.000000
   200  O2    s     0.756358    0.394794    0.663894    0.000000
   201  O2    s     0.645752    0.225486    0.333450    0.000000
   202  O2    s     0.427071    0.634068    0.504671    0.000000
   203  O2    s     0.235638    0.581049    0.169902    0.000000
   204  O2    s     0.358154    0.757031    0.836727    0.000000
   205  O2    s     0.116579    0.210119    0.972871    0.000000
   206  O2    s     0.783771    0.898049    0.304836    0.000000
   207  O3    s     0.087935    0.878108    0.643633    0.000000
   208  O2    s     0.882917    0.763187    0.473164    0.000000
   209  O2    s     0.218346    0.084532    0.804590    0.000000
   210  O2    s     0.906365    0.118501    0.140287    0.000000
   211  O2    s     0.215851    0.116240    0.364693    0.000000
   212  O2    s     0.904991    0.779985    0.032715    0.000000
   213  O2    s     0.878425    0.081820    0.699101    0.000000
   214  O2    s     0.787507    0.870095    0.867606    0.000000
   215  O2    s     0.098677    0.208901    0.531409    0.000000
   216  O2    s     0.122928    0.899096    0.198703    0.000000
   217  O2    s     0.932247    0.851200    0.252906    0.000000
   218  O2    s     0.136456    0.060497    0.586038    0.000000
   219  O2    s     0.926467    0.065104    0.919576    0.000000
   220  O2    s     0.070403    0.136685    0.753970    0.000000
   221  O2    s     0.867283    0.929342    0.087299    0.000000
   222  O2    s     0.069063    0.925077    0.418461    0.000000
   223  O2    s     0.906447    0.201091    0.985061    0.000000
   224  O2    s     0.796574    0.697111    0.318462    0.000000
   225  O2    s     0.295626    0.075952    0.649598    0.000000
   226  O3    s     0.100645    0.792372    0.480296    0.000000
   227  O2    s     0.211404    0.286900    0.819089    0.000000
   228  O2    s     0.705413    0.904735    0.150937    0.000000
   229  O2    s     0.205087    0.903543    0.353351    0.000000
   230  O2    s     0.708100    0.802175    0.022758    0.000000
   231  O2    s     0.082732    0.291161    0.687967    0.000000
   232  O2    s     0.797472    0.082597    0.852012    0.000000
   233  O2    s     0.293845    0.186521    0.519242    0.000000
   234  O2    s     0.910377    0.699104    0.186569    0.000000
   235  O2    s     0.330023    0.650422    0.252904    0.000000
   236  O2    s     0.345673    0.666142    0.585594    0.000000
   237  O2    s     0.333869    0.659252    0.920052    0.000000
   238  O2    s     0.671375    0.329556    0.747844    0.000000
   239  O2    s     0.660006    0.328741    0.085842    0.000000
   240  O2    s     0.667592    0.311268    0.416617    0.000000
   241  O3    s     0.363402    0.316813    0.973483    0.000000
   242  O2    s     0.659417    0.029065    0.302923    0.000000
   243  O3    s     0.943970    0.607366    0.634584    0.000000
   244  O2    s     0.629563    0.643513    0.471244    0.000000
   245  O2    s     0.343708    0.953918    0.803822    0.000000
   246  O2    s     0.038881    0.372572    0.138522    0.000000
   247  O2    s     0.341502    0.371358    0.367603    0.000000
   248  O2    s     0.039252    0.656853    0.033982    0.000000
   249  O2    s     0.623632    0.948460    0.700444    0.000000
   250  O2    s     0.669396    0.614994    0.868619    0.000000
   251  O2    s     0.967126    0.331534    0.532224    0.000000
   252  O2    s     0.376831    0.031204    0.199492    0.000000
   253  O2    s     0.779487    0.308255    0.016878    0.000000
   254  O2    s     0.688039    0.456659    0.348365    0.000000
   255  O2    s     0.530328    0.205578    0.680204    0.000000
   256  O3    s     0.245083    0.683708    0.512419    0.000000
   257  O2    s     0.319493    0.524844    0.851899    0.000000
   258  O2    s     0.467180    0.770850    0.182630    0.000000
   259  O2    s     0.311619    0.771406    0.321992    0.000000
   260  O2    s     0.469315    0.682951    0.989562    0.000000
   261  O2    s     0.219609    0.523380    0.652425    0.000000
   262  O2    s     0.688877    0.212064    0.819205    0.000000
   263  O2    s     0.530203    0.289650    0.487083    0.000000
   264  O2    s     0.779621    0.462222    0.155459    0.000000
   265  O2    s     0.793692    0.530190    0.031747    0.000000
   266  O2    s     0.466053    0.249254    0.364521    0.000000
   267  O2    s     0.740959    0.194915    0.696723    0.000000
   268  O2    s     0.211308    0.462109    0.534460    0.000000
   269  O2    s     0.534941    0.725194    0.870467    0.000000
   270  O2    s     0.259254    0.784188    0.199855    0.000000
   271  O2    s     0.533239    0.782944    0.304827    0.000000
   272  O2    s     0.268062    0.462195    0.973113    0.000000
   273  O3    s     0.216250    0.733678    0.639915    0.000000
   274  O2    s     0.469094    0.201379    0.801551    0.000000
   275  O2    s     0.742005    0.511344    0.471185    0.000000
   276  O2    s     0.791693    0.254917    0.138359    0.000000
   277  O2    s     0.249888    0.325569    0.902449    0.000000
   278  O2    s     0.667333    0.901453    0.233758    0.000000
   279  O1    s     0.094028    0.774287    0.565397    0.000000
   280  O2    s     0.763391    0.653213    0.401474    0.000000
   281  O2    s     0.331516    0.077157    0.733029    0.000000
   282  O2    s     0.911626    0.238351    0.068628    0.000000
   283  O2    s     0.331277    0.227954    0.435931    0.000000
   284  O2    s     0.908460    0.661941    0.103254    0.000000
   285  O2    s     0.759742    0.080482    0.768925    0.000000
   286  O2    s     0.672909    0.745221    0.939138    0.000000
   287  O2    s     0.088892    0.326380    0.602715    0.000000
   288  O2    s     0.242013    0.903103    0.269851    0.000000
   289  O3    s     0.596897    0.568893    0.998471    0.000000
   290  O2    s     0.440564    0.016973    0.322220    0.000000
   291  O2    s     0.977821    0.417897    0.651181    0.000000
   292  O2    s     0.418356    0.424005    0.489824    0.000000
   293  O2    s     0.562102    0.964791    0.822478    0.000000
   294  O2    s     0.026454    0.579332    0.156733    0.000000
   295  O2    s     0.561940    0.577166    0.349668    0.000000
   296  O2    s     0.026457    0.437343    0.015305    0.000000
   297  O2    s     0.416032    0.960093    0.681096    0.000000
   298  O2    s     0.448292    0.409691    0.849981    0.000000
   299  O3    s     0.966660    0.536072    0.507923    0.000000
   300  O2    s     0.581841    0.017574    0.180435    0.000000
   301  O2    s     0.576026    0.147418    0.250766    0.000000
   302  O2    s     0.845170    0.415674    0.580686    0.000000
   303  O3    s     0.596883    0.409855    0.912878    0.000000
   304  O2    s     0.424304    0.832407    0.752859    0.000000
   305  O2    s     0.157988    0.573127    0.086237    0.000000
   306  O2    s     0.427392    0.567902    0.420371    0.000000
   307  F     s     0.453245    0.897607    0.251992    0.000000
   308  F     s     0.095432    0.584582    0.574248    0.000000
   309  F     s     0.480717    0.509552    0.931627    0.000000
   310  F     s     0.548238    0.080790    0.751000    0.000000
   311  F     s     0.914867    0.452673    0.085988    0.000000
   312  F     s     0.547984    0.437406    0.419892    0.000000
--------------------------------------------------------------------------------

  Final Cartesian lattice vectors (Angstroms) :

       11.966777    0.002012    0.001940
       -5.906915   10.376933    0.007002
       -0.074084    0.330752   29.420057


  Final cell parameters and derivatives :

--------------------------------------------------------------------------------
       a           11.966778 Angstrom     dE/de1(xx)    -0.003361 eV/strain
       b           11.940370 Angstrom     dE/de2(yy)    -0.003696 eV/strain
       c           29.422010 Angstrom     dE/de3(zz)    -0.004862 eV/strain
       alpha       89.335254 Degrees      dE/de4(yz)     0.000228 eV/strain
       beta        90.134874 Degrees      dE/de5(xz)    -0.000453 eV/strain
       gamma      119.640404 Degrees      dE/de6(xy)     0.000165 eV/strain
--------------------------------------------------------------------------------

  Primitive cell volume =          3653.656850 Angs**3

  Density of cell =      1.751148 g/cm**3

  Non-primitive cell volume =          3653.656850 Angs**3


  Final internal derivatives :

--------------------------------------------------------------------------------
   No.  Atomic          a             b             c           Radius
        Label          (eV)          (eV)          (eV)        (eV/Angs)
--------------------------------------------------------------------------------
      1 Si    c       0.000000      0.000000      0.000000      0.000000
      2 Si    c       0.000185     -0.000198      0.000955      0.000000
      3 Si    c      -0.000085      0.000155      0.000758      0.000000
      4 Si    c       0.000175     -0.000080      0.000457      0.000000
      5 Si    c      -0.000235      0.000204     -0.000146      0.000000
      6 Si    c       0.000068     -0.000315     -0.000355      0.000000
      7 Si    c       0.000036     -0.000066     -0.000154      0.000000
      8 Si    c      -0.000206      0.000303      0.000148      0.000000
      9 Si    c       0.000141     -0.000223     -0.000375      0.000000
     10 Si    c       0.000078      0.000061     -0.001058      0.000000
     11 Si    c       0.000448     -0.000312      0.000446      0.000000
     12 Si    c      -0.001780      0.000983     -0.003213      0.000000
     13 Ge    c       0.003717     -0.003664      0.005625      0.000000
     14 Si    c      -0.000078      0.000107     -0.000470      0.000000
     15 Si    c       0.000078     -0.000159     -0.000342      0.000000
     16 Si    c      -0.000235      0.000199     -0.000037      0.000000
     17 Si    c       0.000133     -0.000178     -0.001572      0.000000
     18 Si    c       0.000535     -0.000000      0.000854      0.000000
     19 Si    c       0.000027      0.000137      0.000990      0.000000
     20 Si    c      -0.001158      0.000198     -0.000520      0.000000
     21 Si    c      -0.000023     -0.000224      0.000834      0.000000
     22 Si    c       0.000108     -0.000431      0.003628      0.000000
     23 Si    c      -0.000234     -0.000086     -0.000058      0.000000
     24 Si    c      -0.000300      0.000477      0.000312      0.000000
     25 Si    c      -0.000177     -0.000346     -0.000111      0.000000
     26 Si    c       0.000139     -0.000154      0.000627      0.000000
     27 Ge    c       0.000368     -0.000545      0.003279      0.000000
     28 Si    c       0.000075      0.000241      0.000467      0.000000
     29 Si    c      -0.000238      0.000187      0.000620      0.000000
     30 Si    c      -0.000586      0.001768      0.000681      0.000000
     31 Si    c      -0.000020     -0.000053     -0.000306      0.000000
     32 Si    c      -0.000469      0.000277     -0.002819      0.000000
     33 Si    c       0.000325     -0.000207     -0.000497      0.000000
     34 Si    c       0.000195     -0.001258     -0.001771      0.000000
     35 Si    c      -0.000032      0.000115     -0.000690      0.000000
     36 Si    c      -0.000150      0.000154     -0.000212      0.000000
     37 Si    c      -0.000150      0.000048      0.001091      0.000000
     38 Si    c       0.000145     -0.000089     -0.000053      0.000000
     39 Ge    c      -0.000063      0.000155     -0.000076      0.000000
     40 Si    c      -0.000044      0.000057     -0.000264      0.000000
     41 Si    c      -0.000081      0.000052     -0.000536      0.000000
     42 Si    c      -0.000035      0.000016     -0.001543      0.000000
     43 Si    c      -0.000022     -0.000129      0.000284      0.000000
     44 Si    c       0.000343     -0.001961      0.000836      0.000000
     45 Si    c       0.000062     -0.000037      0.000719      0.000000
     46 Si    c       0.000286      0.000087     -0.000602      0.000000
     47 Si    c      -0.000118      0.000222      0.000229      0.000000
     48 Si    c      -0.000284      0.000256      0.000128      0.000000
     49 Si    c      -0.000082     -0.000378     -0.002248      0.000000
     50 Si    c       0.000236     -0.000130     -0.001773      0.000000
     51 Si    c      -0.000160      0.000161      0.000285      0.000000
     52 Si    c       0.000077     -0.000268      0.000187      0.000000
     53 Si    c      -0.000586      0.000070     -0.001123      0.000000
     54 Si    c      -0.000207      0.000589      0.001223      0.000000
     55 Si    c      -0.000093      0.000119     -0.000041      0.000000
     56 Si    c       0.000574      0.000046     -0.000761      0.000000
     57 Si    c       0.000444     -0.000472      0.000946      0.000000
     58 Si    c       0.000599      0.000257      0.002739      0.000000
     59 Si    c      -0.000129      0.000195      0.000400      0.000000
     60 Si    c      -0.000235      0.000442      0.000705      0.000000
     61 O2    c      -0.000041     -0.000452      0.001137      0.000000
     62 O2    c       0.000024      0.000003      0.000090      0.000000
     63 O2    c      -0.000071      0.000102      0.000050      0.000000
     64 O2    c       0.000103     -0.000105     -0.000352      0.000000
     65 O2    c      -0.000404      0.000252      0.000077      0.000000
     66 O2    c      -0.000139     -0.000453     -0.000518      0.000000
     67 O2    c       0.000021      0.000026     -0.000116      0.000000
     68 O2    c      -0.000106      0.000134      0.000038      0.000000
     69 O2    c       0.000057      0.000013     -0.000093      0.000000
     70 O2    c      -0.000009     -0.000005      0.000160      0.000000
     71 O2    c       0.001198      0.000116     -0.001617      0.000000
     72 O2    c      -0.000230      0.000390     -0.000252      0.000000
     73 O3    c       0.000470      0.001446      0.000953      0.000000
     74 O2    c       0.000046     -0.000041     -0.000090      0.000000
     75 O2    c      -0.000039      0.000031      0.000129      0.000000
     76 O2    c      -0.000076     -0.000140     -0.000033      0.000000
     77 O2    c      -0.000274      0.000260     -0.000358      0.000000
     78 O2    c      -0.000021      0.000019      0.000085      0.000000
     79 O2    c       0.000238      0.000489     -0.000178      0.000000
     80 O2    c      -0.000097      0.000048     -0.000131      0.000000
     81 O3    c      -0.000137      0.000331     -0.000002      0.000000
     82 O2    c       0.000459      0.000120     -0.000296      0.000000
     83 O2    c       0.000163     -0.000088     -0.000018      0.000000
     84 O2    c       0.000235     -0.001247     -0.000422      0.000000
     85 O2    c       0.000026     -0.000003     -0.000005      0.000000
     86 O2    c      -0.000983      0.000866      0.000586      0.000000
     87 O2    c      -0.000066      0.000078      0.000066      0.000000
     88 O2    c      -0.000008      0.000044     -0.000031      0.000000
     89 O2    c       0.000315     -0.000422      0.000125      0.000000
     90 O2    c      -0.000075     -0.000028      0.000238      0.000000
     91 O2    c      -0.000201      0.000022      0.000935      0.000000
     92 O2    c       0.000049      0.000044     -0.000704      0.000000
     93 O2    c      -0.000064     -0.000047     -0.001731      0.000000
     94 O2    c       0.000350     -0.000021      0.000949      0.000000
     95 O2    c       0.000031     -0.000300     -0.001216      0.000000
     96 O2    c      -0.000015      0.000012      0.000326      0.000000
     97 O2    c       0.000254     -0.000271     -0.000298      0.000000
     98 O2    c      -0.000093      0.000049      0.000238      0.000000
     99 O2    c      -0.000040     -0.000032      0.000169      0.000000
    100 O3    c      -0.000672      0.000636     -0.000113      0.000000
    101 O2    c       0.000089     -0.000218      0.000144      0.000000
    102 O2    c       0.000739     -0.000167     -0.000296      0.000000
    103 O2    c       0.000056     -0.000023     -0.000053      0.000000
    104 O2    c      -0.000009      0.000227      0.000286      0.000000
    105 O2    c      -0.000032      0.000011     -0.000011      0.000000
    106 O2    c       0.000048     -0.000178     -0.000113      0.000000
    107 O2    c      -0.000204      0.000017      0.000077      0.000000
    108 O2    c      -0.000069      0.000217      0.000073      0.000000
    109 O2    c      -0.000027      0.000110     -0.000205      0.000000
    110 O2    c      -0.000108     -0.000039     -0.000227      0.000000
    111 O2    c       0.000006     -0.000099      0.000526      0.000000
    112 O2    c      -0.000031     -0.000263      0.000600      0.000000
    113 O2    c       0.001377     -0.000393      0.006778      0.000000
    114 O2    c      -0.000239      0.000183     -0.000754      0.000000
    115 O3    c       0.000395      0.000310     -0.000907      0.000000
    116 O2    c      -0.000024     -0.000003     -0.000066      0.000000
    117 O3    c      -0.000071     -0.000015      0.000250      0.000000
    118 O2    c       0.000008     -0.000008     -0.000016      0.000000
    119 O2    c      -0.000016      0.000009      0.000036      0.000000
    120 O2    c       0.000050      0.000254      0.000046      0.000000
    121 O2    c      -0.000013     -0.000028      0.000003      0.000000
    122 O2    c       0.000201     -0.000656      0.000274      0.000000
    123 O2    c       0.000018     -0.000012      0.000037      0.000000
    124 O2    c       0.000046     -0.000091      0.000162      0.000000
    125 O2    c       0.000288     -0.000129      0.000249      0.000000
    126 O2    c       0.000287     -0.000026      0.000137      0.000000
    127 O2    c       0.001284     -0.000080      0.000164      0.000000
    128 O2    c      -0.000022      0.000065     -0.000018      0.000000
    129 O2    c       0.000005     -0.000012     -0.000005      0.000000
    130 O3    c       0.000507     -0.000190     -0.000263      0.000000
    131 O2    c      -0.000020      0.000075      0.000052      0.000000
    132 O2    c       0.000075      0.000043      0.000113      0.000000
    133 O2    c       0.000033     -0.000044      0.000005      0.000000
    134 O2    c       0.000144     -0.000241      0.000003      0.000000
    135 O2    c      -0.000062      0.000111     -0.000295      0.000000
    136 O2    c       0.000005     -0.000014      0.000065      0.000000
    137 O2    c      -0.000043      0.000059     -0.000007      0.000000
    138 O2    c      -0.000188     -0.000317     -0.001025      0.000000
    139 O2    c       0.002598     -0.001499      0.002753      0.000000
    140 O2    c      -0.000027     -0.000021      0.000041      0.000000
    141 O2    c      -0.000029      0.000020      0.000014      0.000000
    142 O2    c      -0.000143     -0.000189      0.000362      0.000000
    143 O2    c      -0.000058      0.000080     -0.000139      0.000000
    144 O2    c      -0.000063      0.000082      0.000103      0.000000
    145 O2    c       0.000050     -0.000010      0.000012      0.000000
    146 O2    c       0.000160     -0.001008     -0.000991      0.000000
    147 O3    c       0.000028      0.000012      0.000107      0.000000
    148 O2    c      -0.000017      0.000012      0.000073      0.000000
    149 O2    c      -0.000157      0.000015     -0.000199      0.000000
    150 O2    c       0.000065      0.000139     -0.000748      0.000000
    151 O2    c       0.000169      0.000037     -0.001025      0.000000
    152 O2    c      -0.000234      0.000125     -0.000652      0.000000
    153 O1    c       0.000014      0.000210     -0.000008      0.000000
    154 O2    c      -0.000165     -0.000135     -0.000735      0.000000
    155 O2    c       0.000249     -0.000152     -0.000230      0.000000
    156 O2    c      -0.000278      0.000618      0.001460      0.000000
    157 O2    c       0.000085      0.000065      0.000263      0.000000
    158 O2    c       0.000207     -0.000791      0.000164      0.000000
    159 O2    c      -0.000251      0.000126      0.000234      0.000000
    160 O2    c      -0.000391      0.000061      0.002587      0.000000
    161 O2    c      -0.000013      0.000087     -0.000211      0.000000
    162 O2    c       0.000105     -0.000046     -0.000025      0.000000
    163 O3    c      -0.001981      0.001015     -0.005287      0.000000
    164 O2    c       0.000022      0.000035     -0.000049      0.000000
    165 O2    c       0.000045     -0.000034     -0.000265      0.000000
    166 O2    c       0.000049     -0.000140     -0.000081      0.000000
    167 O2    c       0.000006      0.000012      0.000012      0.000000
    168 O2    c      -0.000037      0.000049     -0.000207      0.000000
    169 O2    c       0.000021     -0.000002      0.000120      0.000000
    170 O2    c      -0.000667      0.000077      0.000744      0.000000
    171 O2    c      -0.000028      0.000076      0.000013      0.000000
    172 O2    c       0.000209     -0.000124      0.000121      0.000000
    173 O3    c      -0.000350     -0.000480     -0.000245      0.000000
    174 O2    c      -0.000195     -0.000102      0.000955      0.000000
    175 O2    c      -0.000041     -0.000230     -0.000780      0.000000
    176 O2    c       0.000051      0.000017      0.000134      0.000000
    177 O3    c      -0.001557      0.001505      0.000749      0.000000
    178 O2    c      -0.000075      0.000378      0.000654      0.000000
    179 O2    c      -0.000109      0.000089     -0.000288      0.000000
    180 O2    c       0.000173     -0.000241     -0.000786      0.000000
    181 F     c      -0.000019     -0.000190      0.000697      0.000000
    182 F     c      -0.000424      0.000954     -0.000779      0.000000
    183 F     c      -0.000165      0.000330     -0.001430      0.000000
    184 F     c       0.000034     -0.000022     -0.000231      0.000000
    185 F     c      -0.000210      0.000365     -0.001151      0.000000
    186 F     c       0.000001      0.000008      0.000366      0.000000
    187 O2    s       0.000096     -0.000167      0.000254      0.000000
    188 O2    s      -0.000039     -0.000154     -0.000160      0.000000
    189 O2    s      -0.000111      0.000087      0.000008      0.000000
    190 O2    s       0.000080     -0.000128      0.000209      0.000000
    191 O2    s      -0.000259      0.000361     -0.000137      0.000000
    192 O2    s      -0.000344      0.000128     -0.000151      0.000000
    193 O2    s       0.000010     -0.000094      0.000187      0.000000
    194 O2    s      -0.000006      0.000003      0.000075      0.000000
    195 O2    s      -0.000019     -0.000091     -0.000015      0.000000
    196 O2    s       0.000035     -0.000036     -0.000280      0.000000
    197 O2    s      -0.000536      0.000229     -0.000223      0.000000
    198 O2    s       0.000112     -0.000281      0.000107      0.000000
    199 O3    s      -0.000227     -0.001008     -0.000559      0.000000
    200 O2    s       0.000044     -0.000020      0.000101      0.000000
    201 O2    s      -0.000000      0.000078     -0.000066      0.000000
    202 O2    s      -0.000037      0.000141     -0.000012      0.000000
    203 O2    s      -0.000104     -0.000110     -0.000032      0.000000
    204 O2    s       0.000020      0.000025     -0.000073      0.000000
    205 O2    s       0.000078     -0.000318     -0.000771      0.000000
    206 O2    s       0.000105     -0.000142      0.000065      0.000000
    207 O3    s       0.000225     -0.000317     -0.000033      0.000000
    208 O2    s       0.000154     -0.000087     -0.000060      0.000000
    209 O2    s      -0.000244      0.000195     -0.000266      0.000000
    210 O2    s      -0.000287      0.000393      0.000452      0.000000
    211 O2    s      -0.000003      0.000023      0.000136      0.000000
    212 O2    s       0.000155     -0.000129     -0.000432      0.000000
    213 O2    s       0.000183     -0.000061      0.000356      0.000000
    214 O2    s      -0.000014      0.000346      0.000440      0.000000
    215 O2    s       0.000092      0.000005      0.000022      0.000000
    216 O2    s      -0.000056     -0.000067     -0.000167      0.000000
    217 O2    s       0.000108     -0.000037     -0.000248      0.000000
    218 O2    s       0.000057      0.000005      0.000164      0.000000
    219 O2    s      -0.000112     -0.000052     -0.000299      0.000000
    220 O2    s      -0.000168      0.000091      0.000218      0.000000
    221 O2    s       0.000130      0.000143     -0.000083      0.000000
    222 O2    s       0.000019     -0.000245      0.000293      0.000000
    223 O2    s      -0.000215      0.000096      0.000636      0.000000
    224 O2    s       0.000110      0.000019      0.000259      0.000000
    225 O2    s      -0.000066      0.000009      0.000099      0.000000
    226 O3    s      -0.000123     -0.000062     -0.000138      0.000000
    227 O2    s      -0.000268     -0.000069      0.000177      0.000000
    228 O2    s      -0.000019      0.000364      0.000121      0.000000
    229 O2    s      -0.000040     -0.000040      0.000009      0.000000
    230 O2    s       0.000302     -0.000224     -0.000616      0.000000
    231 O2    s       0.000081     -0.000088      0.000204      0.000000
    232 O2    s       0.000591     -0.000226      0.000112      0.000000
    233 O2    s      -0.000208      0.000108      0.000099      0.000000
    234 O2    s       0.000075      0.000100      0.000307      0.000000
    235 O2    s      -0.000054      0.000043     -0.000070      0.000000
    236 O2    s       0.000237     -0.000017      0.000060      0.000000
    237 O2    s       0.000339     -0.000207      0.000025      0.000000
    238 O2    s       0.000011      0.000166     -0.000537      0.000000
    239 O2    s      -0.000117     -0.001182      0.000265      0.000000
    240 O2    s       0.000162     -0.000114      0.000396      0.000000
    241 O3    s      -0.000648      0.000201      0.000754      0.000000
    242 O2    s       0.000050     -0.000032      0.000035      0.000000
    243 O3    s       0.000393      0.000032     -0.000519      0.000000
    244 O2    s      -0.000004     -0.000015      0.000035      0.000000
    245 O2    s       0.000015      0.000023     -0.000016      0.000000
    246 O2    s      -0.000371      0.000447     -0.000452      0.000000
    247 O2    s       0.000118     -0.000001      0.000065      0.000000
    248 O2    s       0.000296      0.000589     -0.000597      0.000000
    249 O2    s      -0.000035      0.000023     -0.000118      0.000000
    250 O2    s      -0.000274      0.000436      0.000010      0.000000
    251 O2    s       0.000054      0.000056     -0.000124      0.000000
    252 O2    s      -0.000230      0.000041     -0.000496      0.000000
    253 O2    s       0.000822     -0.002004      0.000053      0.000000
    254 O2    s      -0.000125      0.000078      0.000190      0.000000
    255 O2    s       0.000008     -0.000066      0.000118      0.000000
    256 O3    s      -0.000646      0.000103      0.000287      0.000000
    257 O2    s       0.000287     -0.000209      0.000445      0.000000
    258 O2    s      -0.000108     -0.000003     -0.000229      0.000000
    259 O2    s       0.000009      0.000051     -0.000123      0.000000
    260 O2    s      -0.000030      0.000229     -0.000670      0.000000
    261 O2    s      -0.000076      0.000024      0.000443      0.000000
    262 O2    s       0.000074     -0.000191     -0.000132      0.000000
    263 O2    s      -0.000077      0.000109     -0.000202      0.000000
    264 O2    s       0.000786     -0.000989      0.000101      0.000000
    265 O2    s      -0.003622      0.004043     -0.002634      0.000000
    266 O2    s      -0.000061      0.000164      0.000028      0.000000
    267 O2    s       0.000009     -0.000013     -0.000000      0.000000
    268 O2    s      -0.000082      0.000046     -0.000360      0.000000
    269 O2    s       0.000059     -0.000255      0.000421      0.000000
    270 O2    s       0.000165     -0.000089      0.000005      0.000000
    271 O2    s      -0.000100      0.000079     -0.000125      0.000000
    272 O2    s       0.000569      0.000156     -0.000012      0.000000
    273 O3    s      -0.000365      0.000163     -0.000184      0.000000
    274 O2    s      -0.000008     -0.000133     -0.000248      0.000000
    275 O2    s       0.000242      0.000049      0.000230      0.000000
    276 O2    s      -0.000426      0.000449      0.001006      0.000000
    277 O2    s      -0.000040      0.000235      0.000316      0.000000
    278 O2    s       0.000217     -0.000108      0.000434      0.000000
    279 O1    s      -0.000175     -0.000041      0.000498      0.000000
    280 O2    s       0.000156      0.000040     -0.000020      0.000000
    281 O2    s      -0.000043      0.000053      0.000067      0.000000
    282 O2    s       0.000233     -0.000483     -0.001862      0.000000
    283 O2    s      -0.000004      0.000006      0.000031      0.000000
    284 O2    s      -0.000292      0.001278      0.000001      0.000000
    285 O2    s       0.000067     -0.000011      0.000018      0.000000
    286 O2    s      -0.000004     -0.000244     -0.001674      0.000000
    287 O2    s      -0.000022     -0.000001     -0.000106      0.000000
    288 O2    s      -0.000023     -0.000037      0.000103      0.000000
    289 O3    s       0.002017     -0.000156      0.005629      0.000000
    290 O2    s       0.000020     -0.000105      0.000047      0.000000
    291 O2    s      -0.000035      0.000043      0.000302      0.000000
    292 O2    s       0.000025     -0.000062     -0.000111      0.000000
    293 O2    s       0.000001      0.000052     -0.000059      0.000000
    294 O2    s       0.000319     -0.000532      0.000103      0.000000
    295 O2    s       0.000089     -0.000148     -0.000108      0.000000
    296 O2    s       0.000421     -0.000345      0.000268      0.000000
    297 O2    s      -0.000005     -0.000033      0.000019      0.000000
    298 O2    s      -0.000584      0.000494     -0.000001      0.000000
    299 O3    s       0.000391      0.000481     -0.000068      0.000000
    300 O2    s       0.000334      0.000079     -0.001592      0.000000
    301 O2    s       0.000022      0.000280      0.000646      0.000000
    302 O2    s      -0.000106      0.000003      0.000096      0.000000
    303 O3    s       0.001250     -0.001188     -0.001112      0.000000
    304 O2    s       0.000058     -0.000230     -0.000430      0.000000
    305 O2    s      -0.000098     -0.000317      0.000596      0.000000
    306 O2    s      -0.000130      0.000133      0.000422      0.000000
    307 F     s       0.000017      0.000340     -0.001233      0.000000
    308 F     s       0.000321     -0.000659     -0.002425      0.000000
    309 F     s      -0.001739      0.001960     -0.002306      0.000000
    310 F     s      -0.000068      0.000025      0.000375      0.000000
    311 F     s       0.000628     -0.000957      0.002381      0.000000
    312 F     s      -0.000020     -0.000053     -0.000597      0.000000
--------------------------------------------------------------------------------
  Maximum abs         0.003717      0.004043      0.006778      0.000000
--------------------------------------------------------------------------------


  Time to end of optimisation =       5.7408 seconds


  Peak dynamic memory used =      19.13 MB 


  Timing analysis for GULP :

--------------------------------------------------------------------------------
  Task / Subroutine                                          Time (Seconds)
--------------------------------------------------------------------------------
  Calculation of reciprocal space energy and derivatives          0.2576
  Calculation of real space energy and derivatives                4.7222
  Calculation of three-body energy and derivatives                0.5333
  Calculation of matrix inversion                                 0.1920
--------------------------------------------------------------------------------
  Total CPU time                                                  5.7408
--------------------------------------------------------------------------------


  Dump file written as out.res                                                 
  CIF file written as out.cif                                                 


  Job Finished at 14:38.49 29th November   2016                               

