********************************************************************************
*                       GENERAL UTILITY LATTICE PROGRAM                        *
*                                 Julian Gale                                  *
*                      Nanochemistry Research Institute                        *
*                           Department of Chemistry                            *
*                    Curtin University, Western Australia                      *
********************************************************************************
* Version = 4.2.0 * Last modified =  20th January 2014                         *
********************************************************************************
*  optimise     - perform optimisation run                                     *
*  conp         - constant pressure calculation                                *
*  qok          - running with non charge neutral cell is OK                   *
********************************************************************************

  Job Started  at 22:08.36 28th November   2016                               

  Number of CPUs =     1


  Total number of configurations input =   1

********************************************************************************
*  Input for Configuration =   1                                               *
********************************************************************************

  Formula = Si57Ge3O120F6                                               

  Number of irreducible atoms/shells =     312


  Total number atoms/shells =     312

  Dimensionality = 3               :  Bulk   


  Charge on solid   =  -6.000000 =>neutralising background added


  Cartesian lattice vectors (Angstroms) :

       11.969306    0.000000    0.000000
       -5.976877   10.382901    0.000000
        0.096850    0.161399   29.464706

  Cell parameters (Angstroms/Degrees):

  a =      11.9693    alpha =  89.8220
  b =      11.9803    beta  =  89.8117
  c =      29.4653    gamma = 119.9267

  Initial cell volume =        3661.759221 Angs**3

  Temperature of configuration =  0.000     K 

  Pressure of configuration =         0.000 GPa 

  Fractional coordinates of asymmetric unit :

--------------------------------------------------------------------------------
   No.  Atomic       x           y          z         Charge      Occupancy
        Label      (Frac)      (Frac)     (Frac)        (e)         (Frac)  
--------------------------------------------------------------------------------
      1 Si    c    0.699600    0.375700    0.033890     4.00000    1.000000    
      2 Si    c    0.628750 *  0.327844 *  0.368995 *   4.00000    1.000000    
      3 Si    c    0.676523 *  0.294700 *  0.698365 *   4.00000    1.000000    
      4 Si    c    0.298384 *  0.620463 *  0.533825 *   4.00000    1.000000    
      5 Si    c    0.380021 *  0.674391 *  0.867323 *   4.00000    1.000000    
      6 Si    c    0.321985 *  0.699433 *  0.201193 *   4.00000    1.000000    
      7 Si    c    0.372339 *  0.692278 *  0.303871 *   4.00000    1.000000    
      8 Si    c    0.322903 *  0.619687 *  0.969668 *   4.00000    1.000000    
      9 Si    c    0.297381 *  0.675143 *  0.634415 *   4.00000    1.000000    
     10 Si    c    0.622220 *  0.295661 *  0.798844 *   4.00000    1.000000    
     11 Si    c    0.677967 *  0.380661 *  0.469484 *   4.00000    1.000000    
     12 Si    c    0.702620 *  0.321987 *  0.134866 *   4.00000    1.000000    
     13 Ge    c    0.531502 *  0.429118 *  0.966101 *   4.00000    1.000000    
     14 Si    c    0.587256 *  0.119756 *  0.305563 *   4.00000    1.000000    
     15 Si    c    0.888776 *  0.469873 *  0.634810 *   4.00000    1.000000    
     16 Si    c    0.470071 *  0.581052 *  0.468582 *   4.00000    1.000000    
     17 Si    c    0.418920 *  0.885839 *  0.801188 *   4.00000    1.000000    
     18 Si    c    0.114678 *  0.531637 *  0.135031 *   4.00000    1.000000    
     19 Si    c    0.419302 *  0.523749 *  0.367529 *   4.00000    1.000000    
     20 Si    c    0.110828 *  0.583496 *  0.033884 *   4.00000    1.000000    
     21 Si    c    0.469573 *  0.884073 *  0.699427 *   4.00000    1.000000    
     22 Si    c    0.592179 *  0.465684 *  0.866251 *   4.00000    1.000000    
     23 Si    c    0.888086 *  0.416981 *  0.533541 *   4.00000    1.000000    
     24 Si    c    0.532251 *  0.118188 *  0.202706 *   4.00000    1.000000    
     25 Si    c    0.305351 *  0.393193 *  0.853299 *   4.00000    1.000000    
     26 Si    c    0.603492 *  0.904541 *  0.187629 *   4.00000    1.000000    
     27 Si    c    0.097004 *  0.697870 *  0.519354 *   4.00000    1.000000    
     28 Si    c    0.701899 *  0.603864 *  0.353740 *   4.00000    1.000000    
     29 Si    c    0.397984 *  0.093505 *  0.684916 *   4.00000    1.000000    
     30 Si    c    0.904749 *  0.302987 *  0.019041 *   4.00000    1.000000    
     31 Si    c    0.398845 *  0.300680 *  0.483211 *   4.00000    1.000000    
     32 Si    c    0.903561 *  0.598904 *  0.150416 *   4.00000    1.000000    
     33 Si    c    0.698583 *  0.094570 *  0.814733 *   4.00000    1.000000    
     34 Si    c    0.606045 *  0.701377 *  0.986711 *   4.00000    1.000000    
     35 Si    c    0.096169 *  0.397397 *  0.649335 *   4.00000    1.000000    
     36 Ge    c    0.312822 *  0.904000 *  0.310309 *   4.00000    1.000000    
     37 Si    c    0.251597 *  0.333501 *  0.955520 *   4.00000    1.000000    
     38 Si    c    0.658728 *  0.910145 *  0.289725 *   4.00000    1.000000    
     39 Si    c    0.089200 *  0.748203 *  0.620006 *   4.00000    1.000000    
     40 Si    c    0.750318 *  0.661660 *  0.454318 *   4.00000    1.000000    
     41 Si    c    0.341202 *  0.086878 *  0.785814 *   4.00000    1.000000    
     42 Si    c    0.913934 *  0.255479 *  0.119485 *   4.00000    1.000000    
     43 Si    c    0.343767 *  0.245839 *  0.382587 *   4.00000    1.000000    
     44 Si    c    0.908813 *  0.659908 *  0.049887 *   4.00000    1.000000    
     45 Si    c    0.748599 *  0.085877 *  0.714049 *   4.00000    1.000000    
     46 Si    c    0.665423 *  0.745515 *  0.883905 *   4.00000    1.000000    
     47 Si    c    0.088985 *  0.338917 *  0.548802 *   4.00000    1.000000    
     48 Si    c    0.249174 *  0.913851 *  0.213470 *   4.00000    1.000000    
     49 Si    c    0.967349 *  0.121111 *  0.967989 *   4.00000    1.000000    
     50 Si    c    0.880646 *  0.853394 *  0.304450 *   4.00000    1.000000    
     51 Si    c    0.150402 *  0.027501 *  0.634947 *   4.00000    1.000000    
     52 Si    c    0.030771 *  0.879021 *  0.468346 *   4.00000    1.000000    
     53 Si    c    0.122677 *  0.148515 *  0.801593 *   4.00000    1.000000    
     54 Si    c    0.849729 *  0.976907 *  0.134907 *   4.00000    1.000000    
     55 Si    c    0.126600 *  0.965568 *  0.366688 *   4.00000    1.000000    
     56 Si    c    0.850357 *  0.882774 *  0.034533 *   4.00000    1.000000    
     57 Si    c    0.029634 *  0.149890 *  0.700426 *   4.00000    1.000000    
     58 Si    c    0.878098 *  0.027788 *  0.866790 *   4.00000    1.000000    
     59 Si    c    0.150228 *  0.120671 *  0.533835 *   4.00000    1.000000    
     60 Ge    c    0.970617 *  0.848453 *  0.200619 *   4.00000    1.000000    
     61 O2    c    0.931563 *  0.000552 *  0.000478 *   0.87073    1.000000    
     62 O2    c    0.999353 *  0.932321 *  0.337609 *   0.87073    1.000000    
     63 O2    c    0.072983 *  0.069866 *  0.668696 *   0.87073    1.000000    
     64 O2    c    0.071068 *  0.999286 *  0.501562 *   0.87073    1.000000    
     65 O2    c    0.001399 *  0.068776 *  0.834732 *   0.87073    1.000000    
     66 O3    c    0.927163 *  0.937479 *  0.167527 *   1.33043    1.000000    
     67 O2    c    0.341075 *  0.566106 *  0.333369 *   0.87073    1.000000    
     68 O2    c    0.420279 *  0.758992 *  0.667225 *   0.87073    1.000000    
     69 O2    c    0.236696 *  0.659005 *  0.000800 *   0.87073    1.000000    
     70 O2    c    0.663725 *  0.422970 *  0.828953 *   0.87073    1.000000    
     71 O2    c    0.581504 *  0.239979 *  0.168834 *   0.87073    1.000000    
     72 O2    c    0.761932 *  0.340883 *  0.501936 *   0.87073    1.000000    
     73 O3    c    0.582465 *  0.343088 *  0.001781 *   1.33043    1.000000    
     74 O2    c    0.760988 *  0.419102 *  0.666398 *   0.87073    1.000000    
     75 O2    c    0.672640 *  0.247706 *  0.336036 *   0.87073    1.000000    
     76 O2    c    0.420805 *  0.657971 *  0.500817 *   0.87073    1.000000    
     77 O2    c    0.240543 *  0.579737 *  0.167335 *   0.87073    1.000000    
     78 O2    c    0.344407 *  0.759729 *  0.834279 *   0.87073    1.000000    
     79 O2    c    0.119375 *  0.212670 *  0.973737 *   0.87073    1.000000    
     80 O2    c    0.783522 *  0.910575 *  0.310272 *   0.87073    1.000000    
     81 O2    c    0.087636 *  0.873464 *  0.640251 *   0.87073    1.000000    
     82 O2    c    0.876137 *  0.788032 *  0.474045 *   0.87073    1.000000    
     83 O2    c    0.213763 *  0.085138 *  0.806030 *   0.87073    1.000000    
     84 O2    c    0.912839 *  0.130041 *  0.140155 *   0.87073    1.000000    
     85 O2    c    0.221861 *  0.120823 *  0.361394 *   0.87073    1.000000    
     86 O2    c    0.906918 *  0.785701 *  0.029887 *   0.87073    1.000000    
     87 O2    c    0.875408 *  0.085428 *  0.694601 *   0.87073    1.000000    
     88 O2    c    0.787216 *  0.873377 *  0.862543 *   0.87073    1.000000    
     89 O2    c    0.087629 *  0.212419 *  0.528659 *   0.87073    1.000000    
     90 O3    c    0.131229 *  0.911473 *  0.187080 *   1.33043    1.000000    
     91 O3    c    0.934259 *  0.873672 *  0.254140 *   1.33043    1.000000    
     92 O2    c    0.136088 *  0.068385 *  0.584758 *   0.87073    1.000000    
     93 O2    c    0.927955 *  0.069034 *  0.917369 *   0.87073    1.000000    
     94 O2    c    0.068973 *  0.139035 *  0.751457 *   0.87073    1.000000    
     95 O2    c    0.864376 *  0.936720 *  0.084636 *   0.87073    1.000000    
     96 O2    c    0.074658 *  0.932322 *  0.418330 *   0.87073    1.000000    
     97 O2    c    0.898130 *  0.203054 *  0.980465 *   0.87073    1.000000    
     98 O2    c    0.799075 *  0.700315 *  0.314976 *   0.87073    1.000000    
     99 O2    c    0.302088 *  0.095786 *  0.646625 *   0.87073    1.000000    
    100 O2    c    0.099119 *  0.796009 *  0.481086 *   0.87073    1.000000    
    101 O2    c    0.207219 *  0.299157 *  0.814799 *   0.87073    1.000000    
    102 O2    c    0.697419 *  0.905863 *  0.147994 *   0.87073    1.000000    
    103 O3    c    0.198967 *  0.893439 *  0.352407 *   1.33043    1.000000    
    104 O2    c    0.699132 *  0.811734 *  0.022434 *   0.87073    1.000000    
    105 O2    c    0.098205 *  0.301003 *  0.687978 *   0.87073    1.000000    
    106 O2    c    0.796822 *  0.096740 *  0.853099 *   0.87073    1.000000    
    107 O2    c    0.301906 *  0.203148 *  0.521968 *   0.87073    1.000000    
    108 O3    c    0.894265 *  0.686047 *  0.189890 *   1.33043    1.000000    
    109 O2    c    0.320592 *  0.645121 *  0.251819 *   0.87073    1.000000    
    110 O2    c    0.355486 *  0.676812 *  0.584130 *   0.87073    1.000000    
    111 O2    c    0.325746 *  0.670932 *  0.918105 *   0.87073    1.000000    
    112 O2    c    0.678731 *  0.351508 *  0.748569 *   0.87073    1.000000    
    113 O2    c    0.645529 *  0.319523 *  0.084892 *   0.87073    1.000000    
    114 O2    c    0.682089 *  0.325245 *  0.419501 *   0.87073    1.000000    
    115 O3    c    0.363748 *  0.315469 *  0.975494 *   1.33043    1.000000    
    116 O2    c    0.667503 *  0.042622 *  0.306338 *   0.87073    1.000000    
    117 O2    c    0.956689 *  0.625704 *  0.638536 *   0.87073    1.000000    
    118 O2    c    0.626132 *  0.669673 *  0.472254 *   0.87073    1.000000    
    119 O2    c    0.331834 *  0.954920 *  0.805045 *   0.87073    1.000000    
    120 O2    c    0.046456 *  0.375721 *  0.138447 *   0.87073    1.000000    
    121 O2    c    0.332797 *  0.368381 *  0.364931 *   0.87073    1.000000    
    122 O2    c    0.042711 *  0.671486 *  0.031198 *   0.87073    1.000000    
    123 O2    c    0.625948 *  0.952756 *  0.696716 *   0.87073    1.000000    
    124 O2    c    0.675573 *  0.623918 *  0.865547 *   0.87073    1.000000    
    125 O2    c    0.957038 *  0.329716 *  0.530573 *   0.87073    1.000000    
    126 O2    c    0.377255 *  0.048845 *  0.199444 *   0.87073    1.000000    
    127 O2    c    0.771540 *  0.303049 *  0.012565 *   0.87073    1.000000    
    128 O2    c    0.703753 *  0.471111 *  0.346726 *   0.87073    1.000000    
    129 O2    c    0.532430 *  0.226510 *  0.677066 *   0.87073    1.000000    
    130 O2    c    0.230308 *  0.696138 *  0.511992 *   0.87073    1.000000    
    131 O2    c    0.308311 *  0.529285 *  0.847613 *   0.87073    1.000000    
    132 O2    c    0.468904 *  0.771899 *  0.181965 *   0.87073    1.000000    
    133 O3    c    0.296055 *  0.753441 *  0.327065 *   1.33043    1.000000    
    134 O2    c    0.467363 *  0.695720 *  0.990015 *   0.87073    1.000000    
    135 O2    c    0.229524 *  0.531736 *  0.656923 *   0.87073    1.000000    
    136 O2    c    0.695838 *  0.226947 *  0.822273 *   0.87073    1.000000    
    137 O2    c    0.534280 *  0.304294 *  0.491720 *   0.87073    1.000000    
    138 O2    c    0.770824 *  0.464098 *  0.156930 *   0.87073    1.000000    
    139 O2    c    0.785995 *  0.533198 *  0.030859 *   0.87073    1.000000    
    140 O2    c    0.473377 *  0.252324 *  0.363594 *   0.87073    1.000000    
    141 O2    c    0.748451 *  0.210657 *  0.693514 *   0.87073    1.000000    
    142 O2    c    0.215587 *  0.464708 *  0.529629 *   0.87073    1.000000    
    143 O2    c    0.534265 *  0.737234 *  0.866175 *   0.87073    1.000000    
    144 O2    c    0.257476 *  0.788968 *  0.196568 *   0.87073    1.000000    
    145 O2    c    0.528958 *  0.785472 *  0.306936 *   0.87073    1.000000    
    146 O2    c    0.257487 *  0.465260 *  0.973024 *   0.87073    1.000000    
    147 O2    c    0.216021 *  0.749935 *  0.639532 *   0.87073    1.000000    
    148 O2    c    0.465765 *  0.214675 *  0.804654 *   0.87073    1.000000    
    149 O2    c    0.751343 *  0.536441 *  0.474292 *   0.87073    1.000000    
    150 O2    c    0.784653 *  0.248201 *  0.139316 *   0.87073    1.000000    
    151 O2    c    0.239322 *  0.322886 *  0.900463 *   0.87073    1.000000    
    152 O2    c    0.671679 *  0.907628 *  0.235047 *   0.87073    1.000000    
    153 O2    c    0.091919 *  0.767620 *  0.565747 *   0.87073    1.000000    
    154 O2    c    0.770195 *  0.679232 *  0.399994 *   0.87073    1.000000    
    155 O2    c    0.323262 *  0.088092 *  0.731577 *   0.87073    1.000000    
    156 O2    c    0.913145 *  0.234391 *  0.065300 *   0.87073    1.000000    
    157 O2    c    0.326392 *  0.227987 *  0.437126 *   0.87073    1.000000    
    158 O2    c    0.909825 *  0.677918 *  0.104485 *   0.87073    1.000000    
    159 O2    c    0.768978 *  0.090552 *  0.768356 *   0.87073    1.000000    
    160 O2    c    0.678442 *  0.761504 *  0.938072 *   0.87073    1.000000    
    161 O2    c    0.090654 *  0.321771 *  0.603231 *   0.87073    1.000000    
    162 O3    c    0.212486 *  0.907406 *  0.265907 *   1.33043    1.000000    
    163 O3    c    0.602210 *  0.572247 *  0.000243 *   1.33043    1.000000    
    164 O3    c    0.450252 *  0.045171 *  0.330032 *   1.33043    1.000000    
    165 O2    c    0.970635 *  0.411124 *  0.658744 *   0.87073    1.000000    
    166 O2    c    0.410757 *  0.439333 *  0.491635 *   0.87073    1.000000    
    167 O2    c    0.560291 *  0.967032 *  0.824063 *   0.87073    1.000000    
    168 O2    c    0.032008 *  0.589276 *  0.159001 *   0.87073    1.000000    
    169 O2    c    0.561407 *  0.586476 *  0.344437 *   0.87073    1.000000    
    170 O2    c    0.029805 *  0.443210 *  0.010050 *   0.87073    1.000000    
    171 O2    c    0.412834 *  0.968630 *  0.676564 *   0.87073    1.000000    
    172 O2    c    0.447147 *  0.413562 *  0.846022 *   0.87073    1.000000    
    173 O2    c    0.972420 *  0.558408 *  0.510643 *   0.87073    1.000000    
    174 O2    c    0.583246 *  0.026281 *  0.182550 *   0.87073    1.000000    
    175 O2    c    0.584041 *  0.167916 *  0.253533 *   0.87073    1.000000    
    176 O2    c    0.835037 *  0.416606 *  0.584390 *   0.87073    1.000000    
    177 O3    c    0.599705 *  0.409085 *  0.914170 *   1.33043    1.000000    
    178 O2    c    0.416232 *  0.831133 *  0.750581 *   0.87073    1.000000    
    179 O2    c    0.168615 *  0.585492 *  0.084100 *   0.87073    1.000000    
    180 O2    c    0.417555 *  0.580474 *  0.417613 *   0.87073    1.000000    
    181 F     c    0.424031 *  0.907597 *  0.262490 *   0.56000    1.000000    
    182 F     c    0.095389 *  0.547171 *  0.585471 *   0.56000    1.000000    
    183 F     c    0.474752 *  0.522058 *  0.928467 *   0.56000    1.000000    
    184 F     c    0.547261 *  0.092225 *  0.751008 *   0.56000    1.000000    
    185 F     c    0.911558 *  0.453519 *  0.085926 *   0.56000    1.000000    
    186 F     c    0.550489 *  0.453383 *  0.418942 *   0.56000    1.000000    
    187 O2    s    0.926466 *  0.000856 *  0.000644 *  -2.87073    1.000000    
    188 O2    s    0.999274 *  0.926897 *  0.336896 *  -2.87073    1.000000    
    189 O2    s    0.076723 *  0.074126 *  0.668514 *  -2.87073    1.000000    
    190 O2    s    0.075548 *  0.999774 *  0.501565 *  -2.87073    1.000000    
    191 O2    s    0.001218 *  0.073070 *  0.834609 *  -2.87073    1.000000    
    192 O3    s    0.922215 *  0.934015 *  0.166756 *  -3.33043    1.000000    
    193 O2    s    0.352497 *  0.575054 *  0.333770 *  -2.87073    1.000000    
    194 O2    s    0.412949 *  0.763476 *  0.667239 *  -2.87073    1.000000    
    195 O2    s    0.233205 *  0.647314 *  0.000807 *  -2.87073    1.000000    
    196 O2    s    0.652082 *  0.414046 *  0.829615 *  -2.87073    1.000000    
    197 O2    s    0.588748 *  0.235492 *  0.168926 *  -2.87073    1.000000    
    198 O2    s    0.766485 *  0.352936 *  0.501888 *  -2.87073    1.000000    
    199 O3    s    0.591406 *  0.352475 *  0.002741 *  -3.33043    1.000000    
    200 O2    s    0.765236 *  0.411238 *  0.666522 *  -2.87073    1.000000    
    201 O2    s    0.659658 *  0.242908 *  0.336296 *  -2.87073    1.000000    
    202 O2    s    0.413115 *  0.646220 *  0.500964 *  -2.87073    1.000000    
    203 O2    s    0.236369 *  0.587366 *  0.167610 *  -2.87073    1.000000    
    204 O2    s    0.355585 *  0.763223 *  0.834503 *  -2.87073    1.000000    
    205 O2    s    0.116575 *  0.215475 *  0.971142 *  -2.87073    1.000000    
    206 O2    s    0.780022 *  0.904628 *  0.307491 *  -2.87073    1.000000    
    207 O2    s    0.094455 *  0.876939 *  0.637642 *  -2.87073    1.000000    
    208 O2    s    0.879231 *  0.784447 *  0.471441 *  -2.87073    1.000000    
    209 O2    s    0.217151 *  0.092025 *  0.803523 *  -2.87073    1.000000    
    210 O2    s    0.906075 *  0.126738 *  0.137411 *  -2.87073    1.000000    
    211 O2    s    0.225427 *  0.118746 *  0.364162 *  -2.87073    1.000000    
    212 O2    s    0.901141 *  0.783076 *  0.032394 *  -2.87073    1.000000    
    213 O2    s    0.878562 *  0.092262 *  0.697208 *  -2.87073    1.000000    
    214 O2    s    0.784123 *  0.876331 *  0.865198 *  -2.87073    1.000000    
    215 O2    s    0.094389 *  0.215879 *  0.531274 *  -2.87073    1.000000    
    216 O3    s    0.129842 *  0.906618 *  0.190719 *  -3.33043    1.000000    
    217 O3    s    0.931754 *  0.869259 *  0.254791 *  -3.33043    1.000000    
    218 O2    s    0.139278 *  0.069537 *  0.584801 *  -2.87073    1.000000    
    219 O2    s    0.926678 *  0.070145 *  0.917283 *  -2.87073    1.000000    
    220 O2    s    0.070688 *  0.141296 *  0.751475 *  -2.87073    1.000000    
    221 O2    s    0.861095 *  0.935050 *  0.084535 *  -2.87073    1.000000    
    222 O2    s    0.075063 *  0.929652 *  0.418690 *  -2.87073    1.000000    
    223 O2    s    0.906227 *  0.204453 *  0.983047 *  -2.87073    1.000000    
    224 O2    s    0.797628 *  0.706362 *  0.317834 *  -2.87073    1.000000    
    225 O2    s    0.295944 *  0.088305 *  0.649351 *  -2.87073    1.000000    
    226 O2    s    0.091693 *  0.794467 *  0.483765 *  -2.87073    1.000000    
    227 O2    s    0.208515 *  0.293093 *  0.817394 *  -2.87073    1.000000    
    228 O2    s    0.702991 *  0.912983 *  0.150873 *  -2.87073    1.000000    
    229 O3    s    0.198297 *  0.902287 *  0.351244 *  -3.33043    1.000000    
    230 O2    s    0.705729 *  0.808115 *  0.020088 *  -2.87073    1.000000    
    231 O2    s    0.090671 *  0.294609 *  0.685402 *  -2.87073    1.000000    
    232 O2    s    0.795466 *  0.089095 *  0.850637 *  -2.87073    1.000000    
    233 O2    s    0.295585 *  0.204255 *  0.519297 *  -2.87073    1.000000    
    234 O3    s    0.901453 *  0.691034 *  0.186984 *  -3.33043    1.000000    
    235 O2    s    0.325717 *  0.655327 *  0.251545 *  -2.87073    1.000000    
    236 O2    s    0.343780 *  0.670937 *  0.584200 *  -2.87073    1.000000    
    237 O2    s    0.331100 *  0.666124 *  0.918018 *  -2.87073    1.000000    
    238 O2    s    0.672547 *  0.339659 *  0.748601 *  -2.87073    1.000000    
    239 O2    s    0.656921 *  0.325355 *  0.085107 *  -2.87073    1.000000    
    240 O2    s    0.676182 *  0.331244 *  0.419439 *  -2.87073    1.000000    
    241 O3    s    0.363083 *  0.325061 *  0.972708 *  -3.33043    1.000000    
    242 O2    s    0.658417 *  0.036271 *  0.304479 *  -2.87073    1.000000    
    243 O2    s    0.963533 *  0.622446 *  0.636220 *  -2.87073    1.000000    
    244 O2    s    0.623106 *  0.659765 *  0.470003 *  -2.87073    1.000000    
    245 O2    s    0.341769 *  0.961328 *  0.802676 *  -2.87073    1.000000    
    246 O2    s    0.039683 *  0.379310 *  0.136098 *  -2.87073    1.000000    
    247 O2    s    0.343081 *  0.371948 *  0.367067 *  -2.87073    1.000000    
    248 O2    s    0.036215 *  0.661241 *  0.033374 *  -2.87073    1.000000    
    249 O2    s    0.622714 *  0.959581 *  0.698819 *  -2.87073    1.000000    
    250 O2    s    0.666432 *  0.621470 *  0.867585 *  -2.87073    1.000000    
    251 O2    s    0.963784 *  0.339688 *  0.532800 *  -2.87073    1.000000    
    252 O2    s    0.380736 *  0.042498 *  0.201250 *  -2.87073    1.000000    
    253 O2    s    0.778764 *  0.310522 *  0.015509 *  -2.87073    1.000000    
    254 O2    s    0.695803 *  0.470435 *  0.349813 *  -2.87073    1.000000    
    255 O2    s    0.533089 *  0.219471 *  0.680129 *  -2.87073    1.000000    
    256 O2    s    0.223340 *  0.688481 *  0.515063 *  -2.87073    1.000000    
    257 O2    s    0.315529 *  0.530377 *  0.850282 *  -2.87073    1.000000    
    258 O2    s    0.468180 *  0.778612 *  0.184569 *  -2.87073    1.000000    
    259 O3    s    0.305234 *  0.757622 *  0.323424 *  -3.33043    1.000000    
    260 O2    s    0.466257 *  0.688270 *  0.987513 *  -2.87073    1.000000    
    261 O2    s    0.222507 *  0.532355 *  0.653797 *  -2.87073    1.000000    
    262 O2    s    0.688581 *  0.219881 *  0.819065 *  -2.87073    1.000000    
    263 O2    s    0.534864 *  0.311803 *  0.488511 *  -2.87073    1.000000    
    264 O2    s    0.777795 *  0.463421 *  0.153848 *  -2.87073    1.000000    
    265 O2    s    0.791413 *  0.531814 *  0.033276 *  -2.87073    1.000000    
    266 O2    s    0.475814 *  0.259798 *  0.366187 *  -2.87073    1.000000    
    267 O2    s    0.740850 *  0.205717 *  0.696219 *  -2.87073    1.000000    
    268 O2    s    0.210368 *  0.467306 *  0.532135 *  -2.87073    1.000000    
    269 O2    s    0.531649 *  0.731229 *  0.868202 *  -2.87073    1.000000    
    270 O2    s    0.263780 *  0.792205 *  0.198815 *  -2.87073    1.000000    
    271 O2    s    0.527643 *  0.790056 *  0.304743 *  -2.87073    1.000000    
    272 O2    s    0.264099 *  0.468481 *  0.970893 *  -2.87073    1.000000    
    273 O2    s    0.210745 *  0.741879 *  0.636940 *  -2.87073    1.000000    
    274 O2    s    0.468317 *  0.209077 *  0.802078 *  -2.87073    1.000000    
    275 O2    s    0.743515 *  0.533682 *  0.471681 *  -2.87073    1.000000    
    276 O2    s    0.790042 *  0.256828 *  0.136730 *  -2.87073    1.000000    
    277 O2    s    0.247766 *  0.331580 *  0.900932 *  -2.87073    1.000000    
    278 O2    s    0.663092 *  0.907519 *  0.235659 *  -2.87073    1.000000    
    279 O2    s    0.092157 *  0.758266 *  0.566729 *  -2.87073    1.000000    
    280 O2    s    0.760906 *  0.669459 *  0.400901 *  -2.87073    1.000000    
    281 O2    s    0.332964 *  0.088510 *  0.732495 *  -2.87073    1.000000    
    282 O2    s    0.912413 *  0.243858 *  0.066169 *  -2.87073    1.000000    
    283 O2    s    0.335875 *  0.237537 *  0.436278 *  -2.87073    1.000000    
    284 O2    s    0.909128 *  0.668154 *  0.103509 *  -2.87073    1.000000    
    285 O2    s    0.759355 *  0.090460 *  0.767514 *  -2.87073    1.000000    
    286 O2    s    0.669912 *  0.753779 *  0.936947 *  -2.87073    1.000000    
    287 O2    s    0.091064 *  0.331518 *  0.602345 *  -2.87073    1.000000    
    288 O3    s    0.222730 *  0.907761 *  0.263587 *  -3.33043    1.000000    
    289 O3    s    0.597637 *  0.576519 *  0.996487 *  -3.33043    1.000000    
    290 O3    s    0.454293 *  0.042329 *  0.326094 *  -3.33043    1.000000    
    291 O2    s    0.975803 *  0.415910 *  0.655270 *  -2.87073    1.000000    
    292 O2    s    0.415831 *  0.439263 *  0.488326 *  -2.87073    1.000000    
    293 O2    s    0.560131 *  0.972112 *  0.820698 *  -2.87073    1.000000    
    294 O2    s    0.026934 *  0.584163 *  0.155606 *  -2.87073    1.000000    
    295 O2    s    0.561774 *  0.581686 *  0.347846 *  -2.87073    1.000000    
    296 O2    s    0.024810 *  0.442842 *  0.013457 *  -2.87073    1.000000    
    297 O2    s    0.417383 *  0.973421 *  0.679882 *  -2.87073    1.000000    
    298 O2    s    0.445823 *  0.416615 *  0.848859 *  -2.87073    1.000000    
    299 O2    s    0.977171 *  0.558584 *  0.513990 *  -2.87073    1.000000    
    300 O2    s    0.579949 *  0.022325 *  0.185264 *  -2.87073    1.000000    
    301 O2    s    0.578831 *  0.157917 *  0.253271 *  -2.87073    1.000000    
    302 O2    s    0.846281 *  0.422285 *  0.584388 *  -2.87073    1.000000    
    303 O3    s    0.594388 *  0.416334 *  0.912641 *  -3.33043    1.000000    
    304 O2    s    0.421943 *  0.842212 *  0.750662 *  -2.87073    1.000000    
    305 O2    s    0.157158 *  0.579739 *  0.084189 *  -2.87073    1.000000    
    306 O2    s    0.423154 *  0.574763 *  0.417740 *  -2.87073    1.000000    
    307 F     s    0.417195 *  0.907421 *  0.265263 *  -1.56000    1.000000    
    308 F     s    0.095643 *  0.547319 *  0.585612 *  -1.56000    1.000000    
    309 F     s    0.478396 *  0.516615 *  0.930751 *  -1.56000    1.000000    
    310 F     s    0.547336 *  0.092454 *  0.751156 *  -1.56000    1.000000    
    311 F     s    0.912046 *  0.453466 *  0.086091 *  -1.56000    1.000000    
    312 F     s    0.550739 *  0.453392 *  0.418971 *  -1.56000    1.000000    
--------------------------------------------------------------------------------



********************************************************************************
*  General input information                                                   *
********************************************************************************

  Species output for all configurations : 

--------------------------------------------------------------------------------
  Species    Type    Atomic    Atomic    Charge       Radii (Angs)     Library
                     Number     Mass       (e)     Cova   Ionic  VDW   Symbol
--------------------------------------------------------------------------------
    Si       Core       14      28.09   4.000000   1.200  0.000  2.100          
    O1       Core        8      16.00   1.733957   0.730  0.000  1.360          
    O1       Shell       8       0.00  -3.733957   0.730  0.000  1.360          
    O2       Core        8      16.00   0.870733   0.730  0.000  1.360          
    O2       Shell       8       0.00  -2.870733   0.730  0.000  1.360          
    O3       Core        8      16.00   1.330431   0.730  0.000  1.360          
    O3       Shell       8       0.00  -3.330431   0.730  0.000  1.360          
    F        Core        9      19.00   0.560000   0.710  0.000  1.300          
    F        Shell       9       0.00  -1.560000   0.710  0.000  1.300          
    Ge       Core       32      72.61   4.000000   1.170  0.000  1.750          
--------------------------------------------------------------------------------


  Lattice summation method               =    Ewald          (3-D)
                                         =    Parry          (2-D)
                                         =    Saunders et al (1-D)
  Accuracy factor for lattice sums       =   12.000


  Time limit = Infinity

  Maximum range for interatomic potentials =        16.000000 Angstroms

  Taper potentials to zero over   1.0000 Angstroms using polynomial

  General interatomic potentials :

--------------------------------------------------------------------------------
Atom  Types   Potential         A         B         C         D     Cutoffs(Ang)
  1     2                                                            Min    Max 
--------------------------------------------------------------------------------
Si   c O1   s Buckingham    0.132E+04 0.318      10.1      0.00     0.000 16.000
Si   c O2   s Buckingham    0.132E+04 0.318      10.1      0.00     0.000 16.000
Si   c O3   s Buckingham    0.132E+04 0.318      10.1      0.00     0.000 16.000
Ge   c O1   s Buckingham    0.150E+04 0.326      16.8      0.00     0.000 16.000
Ge   c O2   s Buckingham    0.150E+04 0.326      16.8      0.00     0.000 16.000
Ge   c O3   s Buckingham    0.150E+04 0.326      16.8      0.00     0.000 16.000
O1   s O1   s Buckingham    0.228E+05 0.149      10.9      0.00     0.000 16.000
O1   s O2   s Buckingham    0.228E+05 0.149      10.9      0.00     0.000 16.000
O1   s O3   s Buckingham    0.228E+05 0.149      10.9      0.00     0.000 16.000
O2   s O2   s Buckingham    0.228E+05 0.149      10.9      0.00     0.000 16.000
O2   s O3   s Buckingham    0.228E+05 0.149      10.9      0.00     0.000 16.000
O3   s O3   s Buckingham    0.228E+05 0.149      10.9      0.00     0.000 16.000
Si   c F    s Buckingham     977.     0.282      0.00      0.00     0.000 16.000
Ge   c F    s Buckingham     681.     0.320      0.00      0.00     0.000 16.000
F    s F    s Buckingham     540.     0.262      0.00      0.00     0.000 16.000
O1   s F    s Buckingham    0.168E+04 0.268      0.00      0.00     0.000 16.000
O2   s F    s Buckingham    0.168E+04 0.268      0.00      0.00     0.000 16.000
O3   s F    s Buckingham    0.168E+04 0.268      0.00      0.00     0.000 16.000
O2   c O2   s Spring (c-s)   76.0      0.00      0.00      0.00     0.000  0.800
O3   c O3   s Spring (c-s)   128.      0.00      0.00      0.00     0.000  0.800
O1   c O1   s Spring (c-s)   180.      0.00      0.00      0.00     0.000  0.800
F    c F    s Spring (c-s)   33.5      0.00      0.00      0.00     0.000  0.800
--------------------------------------------------------------------------------

  General Three-body potentials :

  Harmonic form:

--------------------------------------------------------------------------------
Atom    Atom    Atom           Force Constants            Theta     Cutoffs  
  1       2       3     (eVrad**-2/eVrad**-3/eVrad**-4)   (deg)  1-2  1-3  2-3
--------------------------------------------------------------------------------
Si    c O1    s O1    s  1.261        0.0000    0.0000   109.470 0.00 0.00 0.00
                                                                 1.90 1.90 3.50
Si    c O1    s O2    s  1.261        0.0000    0.0000   109.470 0.00 0.00 0.00
                                                                 1.90 1.90 3.50
Si    c O2    s O2    s  1.261        0.0000    0.0000   109.470 0.00 0.00 0.00
                                                                 1.90 1.90 3.50
--------------------------------------------------------------------------------

********************************************************************************
*  Output for configuration   1                                                *
********************************************************************************


  Components of energy : 

--------------------------------------------------------------------------------
  Interatomic potentials     =        2063.68713060 eV
  Three-body potentials      =           0.46646679 eV
  Monopole - monopole (real) =       -6614.28920364 eV
  Monopole - monopole (recip)=       -3169.91563401 eV
  Monopole - monopole (total)=       -9784.20483765 eV
  Neutralising energy        =          -6.45711742 eV
--------------------------------------------------------------------------------
  Total lattice energy       =       -7726.50835767 eV
--------------------------------------------------------------------------------
  Total lattice energy       =         -745489.9460 kJ/(mole unit cells)
--------------------------------------------------------------------------------


  Number of variables =      939

  Maximum number of calculations  =          1000
  Maximum Hessian update interval =            10
  Maximum step size               =   1.000000000
  Maximum parameter tolerance     =   0.000010000
  Maximum function  tolerance     =   0.000010000
  Maximum gradient  tolerance     =   0.001000000
  Maximum gradient  component     =   0.010000000

  Symmetry not applied to optimisation

  Cell parameters to be optimised using strains

  Newton-Raphson optimiser to be used

  BFGS hessian update to be used

  Dumpfile to be written after every cycle

  Start of bulk optimisation :

  Cycle:      0 Energy:     -7726.508358  Gnorm:      0.010986  CPU:    1.065
  ** Hessian calculated **
  Cycle:      1 Energy:     -7726.601008  Gnorm:      0.005232  CPU:    2.965
  Cycle:      2 Energy:     -7726.602077  Gnorm:      0.001376  CPU:    4.342
  Cycle:      3 Energy:     -7726.602281  Gnorm:      0.000222  CPU:    5.719
  Cycle:      4 Energy:     -7726.602284  Gnorm:      0.000049  CPU:    7.095


  **** Optimisation achieved ****


  Final energy =   -7726.60228437 eV
  Final Gnorm  =       0.00000976

  Components of energy : 

--------------------------------------------------------------------------------
  Interatomic potentials     =        2064.19508543 eV
  Three-body potentials      =           0.49070177 eV
  Monopole - monopole (real) =       -6614.02115297 eV
  Monopole - monopole (recip)=       -3170.80798157 eV
  Monopole - monopole (total)=       -9784.82913454 eV
  Neutralising energy        =          -6.45893703 eV
--------------------------------------------------------------------------------
  Total lattice energy       =       -7726.60228437 eV
--------------------------------------------------------------------------------
  Total lattice energy       =         -745499.0085 kJ/(mole unit cells)
--------------------------------------------------------------------------------

  Final fractional coordinates of atoms :

--------------------------------------------------------------------------------
   No.  Atomic        x           y          z          Radius
        Label       (Frac)      (Frac)     (Frac)       (Angs) 
--------------------------------------------------------------------------------
     1  Si    c     0.699600    0.375700    0.033890    0.000000
     2  Si    c     0.644206    0.323435    0.368799    0.000000
     3  Si    c     0.686982    0.283271    0.698384    0.000000
     4  Si    c     0.310088    0.610869    0.533461    0.000000
     5  Si    c     0.388666    0.664190    0.866874    0.000000
     6  Si    c     0.328603    0.693185    0.200885    0.000000
     7  Si    c     0.379799    0.682797    0.303654    0.000000
     8  Si    c     0.327348    0.613562    0.969395    0.000000
     9  Si    c     0.308445    0.663810    0.634253    0.000000
    10  Si    c     0.629918    0.283360    0.799129    0.000000
    11  Si    c     0.692682    0.374340    0.469325    0.000000
    12  Si    c     0.706665    0.320365    0.135193    0.000000
    13  Ge    c     0.532035    0.423317    0.965875    0.000000
    14  Si    c     0.594041    0.111502    0.306171    0.000000
    15  Si    c     0.900803    0.459894    0.635146    0.000000
    16  Si    c     0.482775    0.572198    0.468105    0.000000
    17  Si    c     0.427915    0.874219    0.800428    0.000000
    18  Si    c     0.119431    0.529122    0.134571    0.000000
    19  Si    c     0.432824    0.516635    0.366684    0.000000
    20  Si    c     0.113853    0.579343    0.033203    0.000000
    21  Si    c     0.480875    0.872625    0.698770    0.000000
    22  Si    c     0.600505    0.455128    0.866608    0.000000
    23  Si    c     0.901412    0.408753    0.533549    0.000000
    24  Si    c     0.538745    0.112733    0.203115    0.000000
    25  Si    c     0.313564    0.383011    0.853401    0.000000
    26  Si    c     0.609957    0.898706    0.187896    0.000000
    27  Si    c     0.109615    0.689602    0.519095    0.000000
    28  Si    c     0.716747    0.598536    0.353383    0.000000
    29  Si    c     0.409330    0.082078    0.684606    0.000000
    30  Si    c     0.905165    0.300682    0.018430    0.000000
    31  Si    c     0.412584    0.292196    0.483074    0.000000
    32  Si    c     0.908279    0.596512    0.150248    0.000000
    33  Si    c     0.706202    0.081940    0.814295    0.000000
    34  Si    c     0.609914    0.695048    0.987758    0.000000
    35  Si    c     0.107847    0.386711    0.649545    0.000000
    36  Ge    c     0.320294    0.894412    0.310220    0.000000
    37  Si    c     0.253339    0.326180    0.955899    0.000000
    38  Si    c     0.665682    0.901593    0.289960    0.000000
    39  Si    c     0.100926    0.737825    0.620193    0.000000
    40  Si    c     0.763465    0.654257    0.454229    0.000000
    41  Si    c     0.349560    0.074644    0.785559    0.000000
    42  Si    c     0.917912    0.253289    0.118889    0.000000
    43  Si    c     0.358367    0.238834    0.382126    0.000000
    44  Si    c     0.912905    0.656920    0.049630    0.000000
    45  Si    c     0.759020    0.074049    0.713624    0.000000
    46  Si    c     0.673536    0.735124    0.884522    0.000000
    47  Si    c     0.101580    0.329842    0.548729    0.000000
    48  Si    c     0.255598    0.907695    0.213716    0.000000
    49  Si    c     0.968185    0.117150    0.968338    0.000000
    50  Si    c     0.892022    0.850389    0.304785    0.000000
    51  Si    c     0.162364    0.017078    0.635084    0.000000
    52  Si    c     0.043083    0.871254    0.468467    0.000000
    53  Si    c     0.131588    0.137218    0.802117    0.000000
    54  Si    c     0.857852    0.975530    0.135211    0.000000
    55  Si    c     0.137206    0.959753    0.366626    0.000000
    56  Si    c     0.853885    0.878641    0.034941    0.000000
    57  Si    c     0.040479    0.138938    0.700714    0.000000
    58  Si    c     0.885894    0.017467    0.867288    0.000000
    59  Si    c     0.163497    0.112017    0.534046    0.000000
    60  Ge    c     0.978726    0.847327    0.200323    0.000000
    61  O2    c     0.932069    0.997635    0.001211    0.000000
    62  O2    c     0.009942    0.930677    0.338201    0.000000
    63  O2    c     0.085691    0.059315    0.669461    0.000000
    64  O2    c     0.083681    0.990198    0.502240    0.000000
    65  O2    c     0.011387    0.058650    0.836051    0.000000
    66  O3    c     0.938870    0.940880    0.168045    0.000000
    67  O2    c     0.352515    0.556960    0.332718    0.000000
    68  O2    c     0.431886    0.747624    0.666655    0.000000
    69  O2    c     0.239811    0.653396    0.999766    0.000000
    70  O2    c     0.671337    0.410344    0.829520    0.000000
    71  O2    c     0.586984    0.235590    0.169680    0.000000
    72  O2    c     0.775887    0.333815    0.501815    0.000000
    73  O3    c     0.581317    0.338164    0.002628    0.000000
    74  O2    c     0.772446    0.408324    0.666762    0.000000
    75  O2    c     0.683926    0.239641    0.335830    0.000000
    76  O2    c     0.432496    0.648556    0.500273    0.000000
    77  O2    c     0.245543    0.575241    0.166586    0.000000
    78  O2    c     0.352864    0.748040    0.833334    0.000000
    79  O2    c     0.119933    0.208404    0.974326    0.000000
    80  O2    c     0.790406    0.902364    0.310694    0.000000
    81  O2    c     0.099162    0.863113    0.640350    0.000000
    82  O2    c     0.888526    0.780485    0.474181    0.000000
    83  O2    c     0.221829    0.072682    0.805864    0.000000
    84  O2    c     0.917943    0.128339    0.139388    0.000000
    85  O2    c     0.236470    0.114114    0.361063    0.000000
    86  O2    c     0.911641    0.782823    0.029366    0.000000
    87  O2    c     0.886576    0.074513    0.694205    0.000000
    88  O2    c     0.796900    0.862838    0.863667    0.000000
    89  O2    c     0.101126    0.203826    0.528578    0.000000
    90  O3    c     0.138953    0.906441    0.186900    0.000000
    91  O3    c     0.946261    0.874622    0.254365    0.000000
    92  O2    c     0.148508    0.059720    0.585088    0.000000
    93  O2    c     0.931940    0.062306    0.917930    0.000000
    94  O2    c     0.076688    0.127576    0.752164    0.000000
    95  O2    c     0.871035    0.932262    0.085209    0.000000
    96  O2    c     0.086959    0.927358    0.418637    0.000000
    97  O2    c     0.898572    0.199683    0.979893    0.000000
    98  O2    c     0.814372    0.696978    0.314939    0.000000
    99  O2    c     0.314087    0.084435    0.646194    0.000000
   100  O2    c     0.111273    0.787663    0.480837    0.000000
   101  O2    c     0.217136    0.287807    0.814901    0.000000
   102  O2    c     0.705666    0.902036    0.148430    0.000000
   103  O3    c     0.205305    0.883437    0.352108    0.000000
   104  O2    c     0.702180    0.806006    0.023330    0.000000
   105  O2    c     0.109329    0.289905    0.688162    0.000000
   106  O2    c     0.804130    0.084674    0.852606    0.000000
   107  O2    c     0.315183    0.193947    0.521787    0.000000
   108  O3    c     0.899131    0.685265    0.189398    0.000000
   109  O2    c     0.328217    0.637529    0.251339    0.000000
   110  O2    c     0.366862    0.665668    0.583874    0.000000
   111  O2    c     0.332128    0.662110    0.917276    0.000000
   112  O2    c     0.687144    0.338700    0.748762    0.000000
   113  O2    c     0.649189    0.321439    0.085667    0.000000
   114  O2    c     0.698276    0.320147    0.419123    0.000000
   115  O3    c     0.365062    0.307837    0.975814    0.000000
   116  O2    c     0.673350    0.033328    0.306525    0.000000
   117  O2    c     0.968635    0.615529    0.639066    0.000000
   118  O2    c     0.638480    0.661096    0.472220    0.000000
   119  O2    c     0.340196    0.942685    0.804589    0.000000
   120  O2    c     0.049915    0.373281    0.137936    0.000000
   121  O2    c     0.347417    0.361430    0.364636    0.000000
   122  O2    c     0.046640    0.668340    0.030571    0.000000
   123  O2    c     0.637277    0.941039    0.696095    0.000000
   124  O2    c     0.683867    0.613456    0.866048    0.000000
   125  O2    c     0.969649    0.320712    0.530685    0.000000
   126  O2    c     0.383879    0.042675    0.199900    0.000000
   127  O2    c     0.772791    0.302490    0.012899    0.000000
   128  O2    c     0.720314    0.466483    0.346202    0.000000
   129  O2    c     0.543450    0.215315    0.676930    0.000000
   130  O2    c     0.243005    0.687752    0.511851    0.000000
   131  O2    c     0.318046    0.519467    0.847018    0.000000
   132  O2    c     0.475751    0.766318    0.181537    0.000000
   133  O3    c     0.302606    0.742891    0.327083    0.000000
   134  O2    c     0.471429    0.690526    0.989830    0.000000
   135  O2    c     0.240948    0.520848    0.657144    0.000000
   136  O2    c     0.702732    0.213798    0.822313    0.000000
   137  O2    c     0.548689    0.297285    0.491581    0.000000
   138  O2    c     0.776057    0.461762    0.157842    0.000000
   139  O2    c     0.788546    0.532244    0.030369    0.000000
   140  O2    c     0.488986    0.247561    0.363017    0.000000
   141  O2    c     0.758418    0.198770    0.693340    0.000000
   142  O2    c     0.227478    0.455387    0.529085    0.000000
   143  O2    c     0.543008    0.726999    0.866260    0.000000
   144  O2    c     0.264744    0.783274    0.196805    0.000000
   145  O2    c     0.536095    0.776493    0.306999    0.000000
   146  O2    c     0.262343    0.459470    0.973210    0.000000
   147  O2    c     0.227456    0.739122    0.639675    0.000000
   148  O2    c     0.473545    0.202209    0.804600    0.000000
   149  O2    c     0.765971    0.529927    0.474361    0.000000
   150  O2    c     0.788665    0.246360    0.138668    0.000000
   151  O2    c     0.244893    0.315069    0.900685    0.000000
   152  O2    c     0.677688    0.899395    0.235128    0.000000
   153  O2    c     0.103700    0.757721    0.565868    0.000000
   154  O2    c     0.784060    0.673196    0.399828    0.000000
   155  O2    c     0.333249    0.076248    0.731199    0.000000
   156  O2    c     0.916147    0.233110    0.064600    0.000000
   157  O2    c     0.341763    0.220471    0.436762    0.000000
   158  O2    c     0.912974    0.675006    0.104279    0.000000
   159  O2    c     0.777911    0.078212    0.768013    0.000000
   160  O2    c     0.684082    0.750762    0.938803    0.000000
   161  O2    c     0.103381    0.312172    0.603213    0.000000
   162  O3    c     0.219342    0.899877    0.266262    0.000000
   163  O3    c     0.601695    0.564374    0.001378    0.000000
   164  O3    c     0.457006    0.035494    0.330672    0.000000
   165  O2    c     0.982187    0.400550    0.658991    0.000000
   166  O2    c     0.423529    0.430481    0.491145    0.000000
   167  O2    c     0.568506    0.954140    0.823746    0.000000
   168  O2    c     0.037617    0.588078    0.158739    0.000000
   169  O2    c     0.575541    0.579428    0.343840    0.000000
   170  O2    c     0.031331    0.439866    0.009141    0.000000
   171  O2    c     0.425034    0.957869    0.675884    0.000000
   172  O2    c     0.455290    0.402404    0.846669    0.000000
   173  O2    c     0.986126    0.549867    0.510527    0.000000
   174  O2    c     0.590127    0.020785    0.183003    0.000000
   175  O2    c     0.589035    0.159729    0.254222    0.000000
   176  O2    c     0.848082    0.408320    0.584520    0.000000
   177  O3    c     0.605298    0.400819    0.915199    0.000000
   178  O2    c     0.426430    0.819370    0.749884    0.000000
   179  O2    c     0.172653    0.581743    0.083303    0.000000
   180  O2    c     0.431414    0.572492    0.417037    0.000000
   181  F     c     0.430271    0.898348    0.262739    0.000000
   182  F     c     0.108010    0.537316    0.585715    0.000000
   183  F     c     0.479196    0.514368    0.928173    0.000000
   184  F     c     0.555924    0.078653    0.750904    0.000000
   185  F     c     0.916772    0.454788    0.085816    0.000000
   186  F     c     0.567612    0.447182    0.418632    0.000000
   187  O2    s     0.927256    0.997661    0.001305    0.000000
   188  O2    s     0.009950    0.924738    0.337413    0.000000
   189  O2    s     0.089122    0.063576    0.669159    0.000000
   190  O2    s     0.088245    0.990893    0.502128    0.000000
   191  O2    s     0.010855    0.062775    0.835740    0.000000
   192  O3    s     0.933221    0.936561    0.167169    0.000000
   193  O2    s     0.363667    0.566044    0.333144    0.000000
   194  O2    s     0.424485    0.752155    0.666710    0.000000
   195  O2    s     0.236549    0.641861    0.999864    0.000000
   196  O2    s     0.659809    0.401782    0.830151    0.000000
   197  O2    s     0.594163    0.231322    0.169670    0.000000
   198  O2    s     0.780479    0.345821    0.501791    0.000000
   199  O3    s     0.591027    0.348209    0.003554    0.000000
   200  O2    s     0.776613    0.400466    0.666855    0.000000
   201  O2    s     0.670918    0.235226    0.336175    0.000000
   202  O2    s     0.424880    0.636806    0.500447    0.000000
   203  O2    s     0.241584    0.582871    0.166949    0.000000
   204  O2    s     0.364210    0.751742    0.833623    0.000000
   205  O2    s     0.117511    0.211124    0.971644    0.000000
   206  O2    s     0.787412    0.896941    0.307901    0.000000
   207  O2    s     0.106045    0.866580    0.637750    0.000000
   208  O2    s     0.891750    0.776937    0.471556    0.000000
   209  O2    s     0.225346    0.079730    0.803412    0.000000
   210  O2    s     0.911346    0.124972    0.136762    0.000000
   211  O2    s     0.239644    0.112127    0.363850    0.000000
   212  O2    s     0.905661    0.780149    0.031991    0.000000
   213  O2    s     0.889594    0.081248    0.696878    0.000000
   214  O2    s     0.793468    0.865852    0.866189    0.000000
   215  O2    s     0.107776    0.207235    0.531233    0.000000
   216  O3    s     0.137461    0.901789    0.190587    0.000000
   217  O3    s     0.943298    0.869580    0.255015    0.000000
   218  O2    s     0.151752    0.060681    0.585103    0.000000
   219  O2    s     0.930746    0.063337    0.917807    0.000000
   220  O2    s     0.078890    0.129914    0.752114    0.000000
   221  O2    s     0.867526    0.930958    0.085058    0.000000
   222  O2    s     0.087162    0.924248    0.418941    0.000000
   223  O2    s     0.906614    0.200957    0.982486    0.000000
   224  O2    s     0.812437    0.702775    0.317797    0.000000
   225  O2    s     0.307876    0.077048    0.649000    0.000000
   226  O2    s     0.103962    0.786156    0.483550    0.000000
   227  O2    s     0.218137    0.281866    0.817540    0.000000
   228  O2    s     0.711076    0.909218    0.151290    0.000000
   229  O3    s     0.205217    0.892781    0.350989    0.000000
   230  O2    s     0.708755    0.802421    0.020940    0.000000
   231  O2    s     0.101830    0.283570    0.685601    0.000000
   232  O2    s     0.802842    0.077080    0.850213    0.000000
   233  O2    s     0.308943    0.195194    0.519174    0.000000
   234  O3    s     0.906571    0.690163    0.186560    0.000000
   235  O2    s     0.333147    0.647563    0.251101    0.000000
   236  O2    s     0.355112    0.659920    0.583938    0.000000
   237  O2    s     0.337535    0.657416    0.917299    0.000000
   238  O2    s     0.681115    0.327093    0.748802    0.000000
   239  O2    s     0.660165    0.326621    0.085849    0.000000
   240  O2    s     0.692131    0.326070    0.419098    0.000000
   241  O3    s     0.364266    0.317541    0.972982    0.000000
   242  O2    s     0.664492    0.027027    0.304691    0.000000
   243  O2    s     0.975431    0.612254    0.636697    0.000000
   244  O2    s     0.635578    0.651267    0.469912    0.000000
   245  O2    s     0.350201    0.949237    0.802192    0.000000
   246  O2    s     0.043313    0.376886    0.135584    0.000000
   247  O2    s     0.357594    0.365005    0.366702    0.000000
   248  O2    s     0.040028    0.658040    0.032783    0.000000
   249  O2    s     0.633988    0.947914    0.698211    0.000000
   250  O2    s     0.674774    0.611037    0.868055    0.000000
   251  O2    s     0.976464    0.330737    0.532886    0.000000
   252  O2    s     0.387392    0.036436    0.201678    0.000000
   253  O2    s     0.780182    0.309565    0.015630    0.000000
   254  O2    s     0.712112    0.465723    0.349322    0.000000
   255  O2    s     0.544130    0.208264    0.679994    0.000000
   256  O2    s     0.235902    0.680007    0.514884    0.000000
   257  O2    s     0.324975    0.520401    0.849774    0.000000
   258  O2    s     0.474974    0.772907    0.184214    0.000000
   259  O3    s     0.311932    0.746984    0.323424    0.000000
   260  O2    s     0.470321    0.682922    0.987449    0.000000
   261  O2    s     0.233901    0.521413    0.653979    0.000000
   262  O2    s     0.695601    0.206977    0.819060    0.000000
   263  O2    s     0.549158    0.304666    0.488377    0.000000
   264  O2    s     0.782807    0.461157    0.154605    0.000000
   265  O2    s     0.793624    0.530370    0.032840    0.000000
   266  O2    s     0.491116    0.254746    0.365668    0.000000
   267  O2    s     0.750923    0.193926    0.696037    0.000000
   268  O2    s     0.222292    0.457976    0.531668    0.000000
   269  O2    s     0.540364    0.721014    0.868282    0.000000
   270  O2    s     0.270912    0.786342    0.199003    0.000000
   271  O2    s     0.534814    0.781085    0.304800    0.000000
   272  O2    s     0.268610    0.462540    0.971044    0.000000
   273  O2    s     0.222158    0.731097    0.637056    0.000000
   274  O2    s     0.476277    0.196763    0.802030    0.000000
   275  O2    s     0.757988    0.527070    0.471713    0.000000
   276  O2    s     0.794118    0.254959    0.136175    0.000000
   277  O2    s     0.253201    0.323543    0.901140    0.000000
   278  O2    s     0.669287    0.899525    0.235780    0.000000
   279  O2    s     0.104024    0.748481    0.566799    0.000000
   280  O2    s     0.774804    0.663361    0.400720    0.000000
   281  O2    s     0.342893    0.076669    0.732159    0.000000
   282  O2    s     0.915231    0.242324    0.065528    0.000000
   283  O2    s     0.351001    0.229989    0.435944    0.000000
   284  O2    s     0.912564    0.665321    0.103278    0.000000
   285  O2    s     0.768304    0.078161    0.767129    0.000000
   286  O2    s     0.675714    0.743575    0.937668    0.000000
   287  O2    s     0.103657    0.321870    0.602363    0.000000
   288  O3    s     0.229524    0.900269    0.263824    0.000000
   289  O3    s     0.597779    0.569316    0.997560    0.000000
   290  O3    s     0.461324    0.033028    0.326694    0.000000
   291  O2    s     0.987388    0.405370    0.655523    0.000000
   292  O2    s     0.428687    0.430414    0.487876    0.000000
   293  O2    s     0.568435    0.959457    0.820316    0.000000
   294  O2    s     0.032413    0.582750    0.155352    0.000000
   295  O2    s     0.575806    0.574811    0.347243    0.000000
   296  O2    s     0.026429    0.439581    0.012593    0.000000
   297  O2    s     0.429387    0.962534    0.679245    0.000000
   298  O2    s     0.453982    0.405612    0.849408    0.000000
   299  O2    s     0.990746    0.550131    0.513881    0.000000
   300  O2    s     0.586792    0.016826    0.185685    0.000000
   301  O2    s     0.584170    0.150046    0.253879    0.000000
   302  O2    s     0.859234    0.413815    0.584536    0.000000
   303  O3    s     0.600024    0.408028    0.913389    0.000000
   304  O2    s     0.432142    0.830549    0.749953    0.000000
   305  O2    s     0.161227    0.576114    0.083447    0.000000
   306  O2    s     0.436861    0.566782    0.417140    0.000000
   307  F     s     0.422997    0.898050    0.265733    0.000000
   308  F     s     0.108325    0.537458    0.585879    0.000000
   309  F     s     0.483025    0.508176    0.930773    0.000000
   310  F     s     0.555930    0.078713    0.751074    0.000000
   311  F     s     0.917439    0.455082    0.085998    0.000000
   312  F     s     0.568125    0.447195    0.418656    0.000000
--------------------------------------------------------------------------------

  Final Cartesian lattice vectors (Angstroms) :

       11.964253    0.006801    0.025169
       -5.968454   10.391097   -0.005877
        0.158858    0.180622   29.419858


  Final cell parameters and derivatives :

--------------------------------------------------------------------------------
       a           11.964281 Angstrom     dE/de1(xx)     0.001401 eV/strain
       b           11.983212 Angstrom     dE/de2(yy)     0.001442 eV/strain
       c           29.420841 Angstrom     dE/de3(zz)     0.002007 eV/strain
       alpha       89.877168 Degrees      dE/de4(yz)    -0.000014 eV/strain
       beta        89.569902 Degrees      dE/de5(xz)     0.000165 eV/strain
       gamma      119.839687 Degrees      dE/de6(xy)    -0.000193 eV/strain
--------------------------------------------------------------------------------

  Primitive cell volume =          3658.665317 Angs**3

  Density of cell =      1.748750 g/cm**3

  Non-primitive cell volume =          3658.665317 Angs**3


  Final internal derivatives :

--------------------------------------------------------------------------------
   No.  Atomic          a             b             c           Radius
        Label          (eV)          (eV)          (eV)        (eV/Angs)
--------------------------------------------------------------------------------
      1 Si    c       0.000000      0.000000      0.000000      0.000000
      2 Si    c      -0.000170      0.000548      0.001073      0.000000
      3 Si    c       0.000004     -0.000089      0.000090      0.000000
      4 Si    c      -0.000006     -0.000003     -0.000002      0.000000
      5 Si    c      -0.000073      0.000050     -0.000769      0.000000
      6 Si    c       0.000083      0.000168      0.000331      0.000000
      7 Si    c      -0.000219      0.000511     -0.000652      0.000000
      8 Si    c       0.000047     -0.000106      0.000415      0.000000
      9 Si    c      -0.000000      0.000011     -0.000145      0.000000
     10 Si    c       0.000014      0.000096     -0.000070      0.000000
     11 Si    c      -0.000089      0.000054      0.000015      0.000000
     12 Si    c       0.000052      0.000146      0.000135      0.000000
     13 Ge    c       0.000565     -0.000747      0.002837      0.000000
     14 Si    c      -0.000099     -0.000397     -0.000725      0.000000
     15 Si    c      -0.000019     -0.000003      0.000003      0.000000
     16 Si    c       0.000058     -0.000076     -0.000145      0.000000
     17 Si    c      -0.000005     -0.000062     -0.000060      0.000000
     18 Si    c      -0.000149     -0.000061     -0.000344      0.000000
     19 Si    c       0.000100      0.000045      0.000315      0.000000
     20 Si    c      -0.000061     -0.000075     -0.000182      0.000000
     21 Si    c       0.000003      0.000024     -0.000027      0.000000
     22 Si    c      -0.000109      0.000289     -0.001320      0.000000
     23 Si    c       0.000029      0.000001      0.000092      0.000000
     24 Si    c       0.000078     -0.000078     -0.000275      0.000000
     25 Si    c       0.000065      0.000036     -0.001225      0.000000
     26 Si    c      -0.000082      0.000041     -0.000222      0.000000
     27 Si    c       0.000015      0.000011     -0.000062      0.000000
     28 Si    c      -0.000044     -0.000043      0.000380      0.000000
     29 Si    c      -0.000024      0.000011      0.000010      0.000000
     30 Si    c      -0.000008      0.000299     -0.000363      0.000000
     31 Si    c       0.000044     -0.000038     -0.000061      0.000000
     32 Si    c       0.000148     -0.000135      0.000182      0.000000
     33 Si    c       0.000117     -0.000107      0.000028      0.000000
     34 Si    c       0.000046      0.000066      0.000661      0.000000
     35 Si    c      -0.000006     -0.000009     -0.000021      0.000000
     36 Ge    c       0.000526     -0.000389     -0.000831      0.000000
     37 Si    c      -0.000015     -0.000147      0.000684      0.000000
     38 Si    c       0.000006     -0.000120     -0.000107      0.000000
     39 Si    c       0.000013     -0.000005     -0.000017      0.000000
     40 Si    c      -0.000067      0.000043     -0.000137      0.000000
     41 Si    c      -0.000062      0.000021     -0.000078      0.000000
     42 Si    c       0.000021      0.000065      0.000359      0.000000
     43 Si    c       0.000078     -0.000128      0.000076      0.000000
     44 Si    c       0.000050     -0.000194     -0.000116      0.000000
     45 Si    c      -0.000036      0.000022      0.000052      0.000000
     46 Si    c       0.000099     -0.000113     -0.000111      0.000000
     47 Si    c      -0.000023      0.000018      0.000016      0.000000
     48 Si    c       0.000067     -0.000037     -0.000438      0.000000
     49 Si    c       0.000169      0.000099      0.001225      0.000000
     50 Si    c       0.000222     -0.000128     -0.000419      0.000000
     51 Si    c      -0.000009      0.000007      0.000037      0.000000
     52 Si    c       0.000053     -0.000014     -0.000228      0.000000
     53 Si    c      -0.000016      0.000067      0.000145      0.000000
     54 Si    c      -0.000475      0.000130     -0.000213      0.000000
     55 Si    c      -0.000007      0.000063      0.000652      0.000000
     56 Si    c      -0.000356     -0.000283     -0.001208      0.000000
     57 Si    c       0.000026      0.000015      0.000065      0.000000
     58 Si    c      -0.000161      0.000042     -0.000835      0.000000
     59 Si    c       0.000007     -0.000007      0.000080      0.000000
     60 Ge    c       0.000325     -0.000510     -0.000821      0.000000
     61 O2    c       0.000268      0.000329     -0.001373      0.000000
     62 O2    c      -0.000775      0.000490     -0.000447      0.000000
     63 O2    c       0.000065     -0.000064     -0.000149      0.000000
     64 O2    c       0.000008     -0.000055     -0.000074      0.000000
     65 O2    c       0.000098      0.000006     -0.000059      0.000000
     66 O3    c      -0.000108      0.000576      0.000701      0.000000
     67 O2    c       0.000118     -0.000454      0.000494      0.000000
     68 O2    c       0.000043      0.000022      0.000123      0.000000
     69 O2    c      -0.000275      0.000172      0.000458      0.000000
     70 O2    c       0.000098     -0.000092     -0.000169      0.000000
     71 O2    c      -0.000073     -0.000057      0.000279      0.000000
     72 O2    c      -0.000007     -0.000023      0.000009      0.000000
     73 O3    c      -0.000327      0.000326     -0.001697      0.000000
     74 O2    c       0.000049      0.000050     -0.000209      0.000000
     75 O2    c       0.000492     -0.000215     -0.000260      0.000000
     76 O2    c      -0.000010      0.000028      0.000084      0.000000
     77 O2    c       0.000029     -0.000155     -0.000255      0.000000
     78 O2    c      -0.000036      0.000056      0.000027      0.000000
     79 O2    c       0.000006      0.000018     -0.000090      0.000000
     80 O2    c      -0.000509      0.000346      0.000043      0.000000
     81 O2    c      -0.000009      0.000036     -0.000007      0.000000
     82 O2    c      -0.000020      0.000002      0.000002      0.000000
     83 O2    c       0.000031     -0.000012      0.000003      0.000000
     84 O2    c       0.000030      0.000322      0.000170      0.000000
     85 O2    c       0.000109      0.000332     -0.000225      0.000000
     86 O2    c       0.000185     -0.000187      0.000016      0.000000
     87 O2    c      -0.000034     -0.000001     -0.000024      0.000000
     88 O2    c       0.000008     -0.000033     -0.000077      0.000000
     89 O2    c       0.000028     -0.000026     -0.000004      0.000000
     90 O3    c       0.000041      0.000039     -0.000296      0.000000
     91 O3    c      -0.000270      0.000418      0.002990      0.000000
     92 O2    c      -0.000000      0.000016     -0.000056      0.000000
     93 O2    c      -0.000012     -0.000144     -0.000850      0.000000
     94 O2    c      -0.000026      0.000011     -0.000129      0.000000
     95 O2    c       0.000217      0.000205      0.001334      0.000000
     96 O2    c      -0.000060     -0.000015      0.000524      0.000000
     97 O2    c      -0.000315      0.000317      0.000088      0.000000
     98 O2    c       0.000045     -0.000235     -0.000001      0.000000
     99 O2    c       0.000014     -0.000011      0.000028      0.000000
    100 O2    c      -0.000000      0.000017     -0.000065      0.000000
    101 O2    c      -0.000013     -0.000030     -0.000023      0.000000
    102 O2    c       0.000206     -0.000042     -0.000168      0.000000
    103 O3    c       0.000702     -0.000819     -0.000437      0.000000
    104 O2    c       0.000048     -0.000073     -0.000182      0.000000
    105 O2    c      -0.000005     -0.000005     -0.000001      0.000000
    106 O2    c      -0.000110      0.000115     -0.000071      0.000000
    107 O2    c       0.000007      0.000007     -0.000021      0.000000
    108 O3    c      -0.000135     -0.000196      0.000257      0.000000
    109 O2    c       0.000034     -0.000053      0.000062      0.000000
    110 O2    c       0.000006      0.000003      0.000045      0.000000
    111 O2    c      -0.000191      0.000206     -0.000027      0.000000
    112 O2    c      -0.000013      0.000013      0.000111      0.000000
    113 O2    c      -0.000160      0.000049      0.000289      0.000000
    114 O2    c       0.000013     -0.000014     -0.000077      0.000000
    115 O3    c       0.000193      0.000105     -0.000220      0.000000
    116 O2    c       0.000022     -0.000028     -0.000077      0.000000
    117 O2    c      -0.000001     -0.000014     -0.000006      0.000000
    118 O2    c       0.000061     -0.000002      0.000017      0.000000
    119 O2    c      -0.000006     -0.000002      0.000029      0.000000
    120 O2    c      -0.000008      0.000057     -0.000018      0.000000
    121 O2    c      -0.000029     -0.000115     -0.000053      0.000000
    122 O2    c       0.000029     -0.000034     -0.000023      0.000000
    123 O2    c      -0.000003     -0.000004     -0.000021      0.000000
    124 O2    c      -0.000012     -0.000049     -0.000050      0.000000
    125 O2    c      -0.000003      0.000001      0.000028      0.000000
    126 O2    c      -0.000003      0.000037     -0.000078      0.000000
    127 O2    c      -0.000063      0.000095     -0.000223      0.000000
    128 O2    c       0.000040     -0.000035     -0.000083      0.000000
    129 O2    c       0.000032      0.000024     -0.000013      0.000000
    130 O2    c      -0.000029      0.000027      0.000025      0.000000
    131 O2    c      -0.000146      0.000248     -0.000001      0.000000
    132 O2    c      -0.000054     -0.000020      0.000018      0.000000
    133 O3    c      -0.000005      0.000034     -0.000032      0.000000
    134 O2    c      -0.000376      0.000209      0.000199      0.000000
    135 O2    c       0.000002     -0.000031      0.000022      0.000000
    136 O2    c       0.000008      0.000026      0.000091      0.000000
    137 O2    c       0.000012      0.000001     -0.000000      0.000000
    138 O2    c      -0.000115     -0.000171      0.000107      0.000000
    139 O2    c      -0.000052     -0.000076      0.000041      0.000000
    140 O2    c      -0.000101     -0.000119     -0.000138      0.000000
    141 O2    c      -0.000041      0.000051     -0.000026      0.000000
    142 O2    c       0.000010      0.000030     -0.000004      0.000000
    143 O2    c       0.000085      0.000033     -0.000164      0.000000
    144 O2    c       0.000012     -0.000018     -0.000035      0.000000
    145 O2    c       0.000030     -0.000004      0.000018      0.000000
    146 O2    c      -0.000124      0.000049      0.000120      0.000000
    147 O2    c      -0.000005      0.000020      0.000004      0.000000
    148 O2    c      -0.000083      0.000040      0.000135      0.000000
    149 O2    c       0.000020     -0.000053      0.000099      0.000000
    150 O2    c       0.000110     -0.000102      0.000051      0.000000
    151 O2    c      -0.000112     -0.000277      0.001413      0.000000
    152 O2    c       0.000110     -0.000082      0.000286      0.000000
    153 O2    c      -0.000006      0.000013      0.000005      0.000000
    154 O2    c      -0.000016      0.000015      0.000039      0.000000
    155 O2    c      -0.000012      0.000003      0.000052      0.000000
    156 O2    c       0.000109     -0.000138     -0.000050      0.000000
    157 O2    c       0.000017     -0.000014     -0.000160      0.000000
    158 O2    c      -0.000028      0.000017     -0.000335      0.000000
    159 O2    c      -0.000009      0.000013     -0.000001      0.000000
    160 O2    c       0.000172      0.000120     -0.001361      0.000000
    161 O2    c      -0.000001      0.000010      0.000085      0.000000
    162 O3    c      -0.000241      0.000254     -0.000053      0.000000
    163 O3    c       0.000330     -0.000827     -0.000484      0.000000
    164 O3    c      -0.000153      0.000251      0.000900      0.000000
    165 O2    c       0.000016     -0.000016     -0.000006      0.000000
    166 O2    c      -0.000011      0.000089      0.000022      0.000000
    167 O2    c       0.000054     -0.000002      0.000117      0.000000
    168 O2    c      -0.000007      0.000053      0.000086      0.000000
    169 O2    c      -0.000028      0.000049     -0.000228      0.000000
    170 O2    c      -0.000037     -0.000057     -0.000043      0.000000
    171 O2    c       0.000037     -0.000041     -0.000015      0.000000
    172 O2    c       0.000175     -0.000057     -0.000077      0.000000
    173 O2    c      -0.000007     -0.000007     -0.000006      0.000000
    174 O2    c      -0.000014      0.000024     -0.000020      0.000000
    175 O2    c      -0.000017      0.000099     -0.000004      0.000000
    176 O2    c       0.000002      0.000010      0.000046      0.000000
    177 O3    c       0.000661     -0.000662      0.000282      0.000000
    178 O2    c      -0.000017      0.000015      0.000169      0.000000
    179 O2    c       0.000043     -0.000029      0.000166      0.000000
    180 O2    c       0.000018      0.000002      0.000060      0.000000
    181 F     c      -0.000105      0.000027      0.000347      0.000000
    182 F     c       0.000002      0.000009     -0.000028      0.000000
    183 F     c      -0.000291      0.000402     -0.000439      0.000000
    184 F     c      -0.000006      0.000017     -0.000025      0.000000
    185 F     c      -0.000018     -0.000028     -0.000068      0.000000
    186 F     c      -0.000046      0.000025     -0.000123      0.000000
    187 O2    s       0.000207     -0.000316     -0.000066      0.000000
    188 O2    s      -0.000065      0.000183      0.000115      0.000000
    189 O2    s      -0.000003      0.000006      0.000028      0.000000
    190 O2    s       0.000011      0.000039     -0.000017      0.000000
    191 O2    s       0.000045     -0.000097     -0.000079      0.000000
    192 O3    s       0.000085     -0.000111      0.000566      0.000000
    193 O2    s      -0.000023      0.000125     -0.000151      0.000000
    194 O2    s      -0.000025     -0.000011      0.000019      0.000000
    195 O2    s       0.000011      0.000079      0.000063      0.000000
    196 O2    s       0.000055     -0.000047     -0.000080      0.000000
    197 O2    s       0.000016      0.000038     -0.000056      0.000000
    198 O2    s       0.000017      0.000008     -0.000065      0.000000
    199 O3    s       0.000141     -0.000583      0.001457      0.000000
    200 O2    s       0.000002      0.000022     -0.000010      0.000000
    201 O2    s      -0.000325      0.000151      0.000220      0.000000
    202 O2    s      -0.000027      0.000003      0.000008      0.000000
    203 O2    s      -0.000036      0.000056      0.000023      0.000000
    204 O2    s      -0.000066      0.000025     -0.000076      0.000000
    205 O2    s       0.000198     -0.000045      0.000205      0.000000
    206 O2    s       0.000043      0.000079      0.000224      0.000000
    207 O2    s      -0.000004      0.000008      0.000026      0.000000
    208 O2    s       0.000035     -0.000017      0.000021      0.000000
    209 O2    s      -0.000000     -0.000055      0.000049      0.000000
    210 O2    s      -0.000154      0.000162      0.000366      0.000000
    211 O2    s      -0.000012      0.000182      0.000454      0.000000
    212 O2    s       0.000223     -0.000321     -0.000245      0.000000
    213 O2    s       0.000009     -0.000005      0.000002      0.000000
    214 O2    s       0.000091     -0.000134     -0.000159      0.000000
    215 O2    s      -0.000001     -0.000009     -0.000029      0.000000
    216 O3    s       0.000234     -0.000149      0.000119      0.000000
    217 O3    s       0.000296     -0.000161     -0.001297      0.000000
    218 O2    s      -0.000006     -0.000005      0.000026      0.000000
    219 O2    s       0.000128     -0.000095      0.000007      0.000000
    220 O2    s       0.000007     -0.000008      0.000001      0.000000
    221 O2    s      -0.000385     -0.000112     -0.000463      0.000000
    222 O2    s      -0.000071      0.000087      0.000575      0.000000
    223 O2    s      -0.000168      0.000149     -0.000059      0.000000
    224 O2    s       0.000064     -0.000146     -0.000045      0.000000
    225 O2    s      -0.000028     -0.000009     -0.000040      0.000000
    226 O2    s      -0.000031     -0.000007      0.000086      0.000000
    227 O2    s      -0.000049     -0.000007     -0.000487      0.000000
    228 O2    s      -0.000071     -0.000062      0.000013      0.000000
    229 O3    s       0.000114     -0.000184     -0.000144      0.000000
    230 O2    s      -0.000165      0.000192      0.000454      0.000000
    231 O2    s       0.000017      0.000020     -0.000045      0.000000
    232 O2    s      -0.000091      0.000105     -0.000087      0.000000
    233 O2    s      -0.000040      0.000011      0.000012      0.000000
    234 O3    s       0.000023     -0.000143     -0.000491      0.000000
    235 O2    s      -0.000022     -0.000082      0.000099      0.000000
    236 O2    s      -0.000019     -0.000003     -0.000024      0.000000
    237 O2    s       0.000044     -0.000054     -0.000226      0.000000
    238 O2    s       0.000007      0.000003      0.000108      0.000000
    239 O2    s      -0.000057     -0.000088     -0.000125      0.000000
    240 O2    s      -0.000075      0.000093     -0.000014      0.000000
    241 O3    s      -0.000250     -0.000054      0.000212      0.000000
    242 O2    s       0.000035      0.000014      0.000224      0.000000
    243 O2    s       0.000002     -0.000014      0.000013      0.000000
    244 O2    s      -0.000014      0.000063      0.000092      0.000000
    245 O2    s       0.000009     -0.000005     -0.000021      0.000000
    246 O2    s       0.000032     -0.000084      0.000052      0.000000
    247 O2    s       0.000095      0.000043      0.000182      0.000000
    248 O2    s      -0.000071      0.000055      0.000277      0.000000
    249 O2    s       0.000024     -0.000056     -0.000022      0.000000
    250 O2    s       0.000072      0.000080     -0.000013      0.000000
    251 O2    s      -0.000003     -0.000013     -0.000073      0.000000
    252 O2    s      -0.000004     -0.000040      0.000231      0.000000
    253 O2    s       0.000209     -0.000358      0.000121      0.000000
    254 O2    s       0.000092     -0.000053      0.000036      0.000000
    255 O2    s      -0.000053      0.000040     -0.000123      0.000000
    256 O2    s      -0.000018     -0.000019      0.000011      0.000000
    257 O2    s      -0.000134      0.000117     -0.000074      0.000000
    258 O2    s       0.000039     -0.000072     -0.000193      0.000000
    259 O3    s      -0.000205      0.000108      0.000181      0.000000
    260 O2    s      -0.000111      0.000048      0.000385      0.000000
    261 O2    s      -0.000027      0.000019      0.000017      0.000000
    262 O2    s      -0.000039      0.000029     -0.000094      0.000000
    263 O2    s       0.000052     -0.000071      0.000087      0.000000
    264 O2    s      -0.000052      0.000100      0.000341      0.000000
    265 O2    s       0.000094      0.000383     -0.000114      0.000000
    266 O2    s       0.000161      0.000214      0.000195      0.000000
    267 O2    s       0.000069     -0.000024     -0.000021      0.000000
    268 O2    s       0.000009     -0.000015     -0.000045      0.000000
    269 O2    s      -0.000021     -0.000047      0.000114      0.000000
    270 O2    s      -0.000119      0.000100     -0.000023      0.000000
    271 O2    s       0.000010     -0.000004     -0.000035      0.000000
    272 O2    s       0.000224     -0.000191     -0.000175      0.000000
    273 O2    s      -0.000014     -0.000024      0.000021      0.000000
    274 O2    s       0.000103     -0.000074     -0.000197      0.000000
    275 O2    s       0.000053     -0.000006     -0.000156      0.000000
    276 O2    s       0.000106     -0.000057     -0.000110      0.000000
    277 O2    s       0.000076      0.000027      0.000021      0.000000
    278 O2    s      -0.000040      0.000092      0.000161      0.000000
    279 O2    s       0.000015     -0.000042     -0.000023      0.000000
    280 O2    s       0.000040     -0.000063      0.000050      0.000000
    281 O2    s      -0.000004     -0.000007      0.000013      0.000000
    282 O2    s      -0.000178      0.000094      0.000133      0.000000
    283 O2    s      -0.000062      0.000039     -0.000070      0.000000
    284 O2    s       0.000039      0.000059     -0.000047      0.000000
    285 O2    s       0.000026     -0.000019      0.000053      0.000000
    286 O2    s       0.000031      0.000135     -0.000114      0.000000
    287 O2    s      -0.000001     -0.000004     -0.000004      0.000000
    288 O3    s       0.000186     -0.000279      0.000203      0.000000
    289 O3    s       0.000166      0.000257      0.001787      0.000000
    290 O3    s       0.000196     -0.000328     -0.000835      0.000000
    291 O2    s       0.000002      0.000022     -0.000036      0.000000
    292 O2    s      -0.000085     -0.000025      0.000037      0.000000
    293 O2    s      -0.000037      0.000020     -0.000111      0.000000
    294 O2    s       0.000054      0.000002      0.000037      0.000000
    295 O2    s      -0.000067     -0.000071      0.000239      0.000000
    296 O2    s       0.000072      0.000006     -0.000098      0.000000
    297 O2    s      -0.000043     -0.000013     -0.000024      0.000000
    298 O2    s       0.000144     -0.000147     -0.000535      0.000000
    299 O2    s       0.000032     -0.000001      0.000045      0.000000
    300 O2    s      -0.000020      0.000068      0.000015      0.000000
    301 O2    s       0.000014     -0.000039     -0.000086      0.000000
    302 O2    s      -0.000003      0.000005      0.000019      0.000000
    303 O3    s      -0.000278      0.000237      0.000171      0.000000
    304 O2    s       0.000007      0.000024     -0.000026      0.000000
    305 O2    s      -0.000005      0.000069     -0.000100      0.000000
    306 O2    s      -0.000025     -0.000060     -0.000250      0.000000
    307 F     s      -0.000209      0.000136      0.000397      0.000000
    308 F     s       0.000000     -0.000008      0.000049      0.000000
    309 F     s      -0.000518      0.000407     -0.001431      0.000000
    310 F     s       0.000001     -0.000048      0.000106      0.000000
    311 F     s       0.000017      0.000139      0.000187      0.000000
    312 F     s       0.000109     -0.000063      0.000200      0.000000
--------------------------------------------------------------------------------
  Maximum abs         0.000775      0.000827      0.002990      0.000000
--------------------------------------------------------------------------------


  Time to end of optimisation =       8.4735 seconds


  Peak dynamic memory used =      19.13 MB 


  Timing analysis for GULP :

--------------------------------------------------------------------------------
  Task / Subroutine                                          Time (Seconds)
--------------------------------------------------------------------------------
  Calculation of reciprocal space energy and derivatives          0.3108
  Calculation of real space energy and derivatives                7.1353
  Calculation of three-body energy and derivatives                0.7954
  Calculation of matrix inversion                                 0.1920
--------------------------------------------------------------------------------
  Total CPU time                                                  8.4735
--------------------------------------------------------------------------------


  Dump file written as out.res                                                 
  CIF file written as out.cif                                                 


  Job Finished at 22:08.44 28th November   2016                               

