********************************************************************************
*                       GENERAL UTILITY LATTICE PROGRAM                        *
*                                 Julian Gale                                  *
*                      Nanochemistry Research Institute                        *
*                           Department of Chemistry                            *
*                    Curtin University, Western Australia                      *
********************************************************************************
* Version = 4.2.0 * Last modified =  20th January 2014                         *
********************************************************************************
*  optimise     - perform optimisation run                                     *
*  conp         - constant pressure calculation                                *
*  qok          - running with non charge neutral cell is OK                   *
********************************************************************************

  Job Started  at 18:50.06 27th November   2016                               

  Number of CPUs =     1


  Total number of configurations input =   1

********************************************************************************
*  Input for Configuration =   1                                               *
********************************************************************************

  Formula = Si57Ge3O120F6                                               

  Number of irreducible atoms/shells =     312


  Total number atoms/shells =     312

  Dimensionality = 3               :  Bulk   


  Charge on solid   =  -6.000000 =>neutralising background added


  Cartesian lattice vectors (Angstroms) :

       11.984302    0.000000    0.000000
       -5.911114   10.350934    0.000000
       -0.045440   -0.072473   29.528782

  Cell parameters (Angstroms/Degrees):

  a =      11.9843    alpha =  90.0784
  b =      11.9199    beta  =  90.0882
  c =      29.5289    gamma = 119.7294

  Initial cell volume =        3663.007716 Angs**3

  Temperature of configuration =  0.000     K 

  Pressure of configuration =         0.000 GPa 

  Fractional coordinates of asymmetric unit :

--------------------------------------------------------------------------------
   No.  Atomic       x           y          z         Charge      Occupancy
        Label      (Frac)      (Frac)     (Frac)        (e)         (Frac)  
--------------------------------------------------------------------------------
      1 Si    c    0.699600    0.375700    0.033890     4.00000    1.000000    
      2 Si    c    0.617358 *  0.323593 *  0.367759 *   4.00000    1.000000    
      3 Si    c    0.677319 *  0.290364 *  0.699063 *   4.00000    1.000000    
      4 Si    c    0.304148 *  0.622527 *  0.531806 *   4.00000    1.000000    
      5 Si    c    0.385274 *  0.673324 *  0.868234 *   4.00000    1.000000    
      6 Si    c    0.326361 *  0.707123 *  0.200564 *   4.00000    1.000000    
      7 Si    c    0.380446 *  0.706456 *  0.300841 *   4.00000    1.000000    
      8 Si    c    0.324535 *  0.620197 *  0.969560 *   4.00000    1.000000    
      9 Si    c    0.300485 *  0.670636 *  0.634594 *   4.00000    1.000000    
     10 Si    c    0.625206 *  0.293752 *  0.799499 *   4.00000    1.000000    
     11 Si    c    0.668840 *  0.381621 *  0.467696 *   4.00000    1.000000    
     12 Si    c    0.703514 *  0.328636 *  0.135843 *   4.00000    1.000000    
     13 Ge    c    0.533796 *  0.430137 *  0.966859 *   4.00000    1.000000    
     14 Si    c    0.581959 *  0.114496 *  0.302253 *   4.00000    1.000000    
     15 Si    c    0.886673 *  0.463843 *  0.635068 *   4.00000    1.000000    
     16 Si    c    0.474851 *  0.591578 *  0.467120 *   4.00000    1.000000    
     17 Si    c    0.423822 *  0.882175 *  0.801066 *   4.00000    1.000000    
     18 Si    c    0.115446 *  0.535320 *  0.135889 *   4.00000    1.000000    
     19 Si    c    0.418047 *  0.534657 *  0.366103 *   4.00000    1.000000    
     20 Si    c    0.113356 *  0.579268 *  0.034538 *   4.00000    1.000000    
     21 Si    c    0.472928 *  0.881715 *  0.699766 *   4.00000    1.000000    
     22 Si    c    0.597378 *  0.464529 *  0.867760 *   4.00000    1.000000    
     23 Si    c    0.878039 *  0.409461 *  0.531455 *   4.00000    1.000000    
     24 Si    c    0.531473 *  0.118315 *  0.200656 *   4.00000    1.000000    
     25 Si    c    0.311268 *  0.390970 *  0.853576 *   4.00000    1.000000    
     26 Si    c    0.603010 *  0.907850 *  0.186111 *   4.00000    1.000000    
     27 Si    c    0.093592 *  0.694023 *  0.517898 *   4.00000    1.000000    
     28 Si    c    0.697122 *  0.602658 *  0.352736 *   4.00000    1.000000    
     29 Si    c    0.399224 *  0.090042 *  0.685497 *   4.00000    1.000000    
     30 Si    c    0.903263 *  0.299387 *  0.022248 *   4.00000    1.000000    
     31 Si    c    0.393181 *  0.307572 *  0.483492 *   4.00000    1.000000    
     32 Si    c    0.905999 *  0.607761 *  0.149095 *   4.00000    1.000000    
     33 Si    c    0.702710 *  0.091526 *  0.814481 *   4.00000    1.000000    
     34 Si    c    0.606408 *  0.702953 *  0.989493 *   4.00000    1.000000    
     35 Si    c    0.098171 *  0.389627 *  0.652173 *   4.00000    1.000000    
     36 Si    c    0.301879 *  0.907239 *  0.316231 *   4.00000    1.000000    
     37 Si    c    0.255056 *  0.333198 *  0.955347 *   4.00000    1.000000    
     38 Si    c    0.660937 *  0.913365 *  0.286603 *   4.00000    1.000000    
     39 Si    c    0.087659 *  0.745195 *  0.619952 *   4.00000    1.000000    
     40 Si    c    0.751414 *  0.665385 *  0.452723 *   4.00000    1.000000    
     41 Si    c    0.344526 *  0.083490 *  0.786247 *   4.00000    1.000000    
     42 Si    c    0.913285 *  0.256884 *  0.122911 *   4.00000    1.000000    
     43 Si    c    0.337601 *  0.254683 *  0.382632 *   4.00000    1.000000    
     44 Si    c    0.911857 *  0.656242 *  0.047894 *   4.00000    1.000000    
     45 Si    c    0.751351 *  0.081881 *  0.714014 *   4.00000    1.000000    
     46 Si    c    0.670311 *  0.745178 *  0.887094 *   4.00000    1.000000    
     47 Ge    c    0.089233 *  0.356089 *  0.552278 *   4.00000    1.000000    
     48 Si    c    0.253980 *  0.916659 *  0.215639 *   4.00000    1.000000    
     49 Si    c    0.971109 *  0.123487 *  0.968945 *   4.00000    1.000000    
     50 Si    c    0.878979 *  0.850214 *  0.303251 *   4.00000    1.000000    
     51 Si    c    0.153338 *  0.028471 *  0.634875 *   4.00000    1.000000    
     52 Si    c    0.031069 *  0.882082 *  0.469200 *   4.00000    1.000000    
     53 Si    c    0.125682 *  0.143315 *  0.803199 *   4.00000    1.000000    
     54 Si    c    0.854851 *  0.979736 *  0.139505 *   4.00000    1.000000    
     55 Si    c    0.121785 *  0.974132 *  0.368123 *   4.00000    1.000000    
     56 Ge    c    0.855812 *  0.884225 *  0.037155 *   4.00000    1.000000    
     57 Si    c    0.031358 *  0.145440 *  0.702743 *   4.00000    1.000000    
     58 Si    c    0.882618 *  0.026877 *  0.867930 *   4.00000    1.000000    
     59 Si    c    0.146297 *  0.127334 *  0.534984 *   4.00000    1.000000    
     60 Si    c    0.974605 *  0.853724 *  0.202842 *   4.00000    1.000000    
     61 O3    c    0.944464 *  0.005363 *  0.999787 *   1.33043    1.000000    
     62 O2    c    0.996177 *  0.930032 *  0.337590 *   0.87073    1.000000    
     63 O2    c    0.077775 *  0.069880 *  0.669790 *   0.87073    1.000000    
     64 O2    c    0.073917 *  0.000414 *  0.503070 *   0.87073    1.000000    
     65 O2    c    0.006873 *  0.065530 *  0.836940 *   0.87073    1.000000    
     66 O2    c    0.929422 *  0.938327 *  0.174726 *   0.87073    1.000000    
     67 O2    c    0.341567 *  0.582986 *  0.333439 *   0.87073    1.000000    
     68 O2    c    0.422516 *  0.756123 *  0.667097 *   0.87073    1.000000    
     69 O2    c    0.236766 *  0.655675 *  0.001077 *   0.87073    1.000000    
     70 O2    c    0.667862 *  0.421271 *  0.830035 *   0.87073    1.000000    
     71 O2    c    0.581008 *  0.244816 *  0.168725 *   0.87073    1.000000    
     72 O2    c    0.749027 *  0.340471 *  0.501396 *   0.87073    1.000000    
     73 O3    c    0.581445 *  0.340660 *  0.002098 *   1.33043    1.000000    
     74 O2    c    0.761231 *  0.414505 *  0.666979 *   0.87073    1.000000    
     75 O2    c    0.656555 *  0.238891 *  0.335292 *   0.87073    1.000000    
     76 O2    c    0.429621 *  0.672805 *  0.499404 *   0.87073    1.000000    
     77 O2    c    0.241078 *  0.584129 *  0.168021 *   0.87073    1.000000    
     78 O2    c    0.350457 *  0.757128 *  0.834040 *   0.87073    1.000000    
     79 O2    c    0.122602 *  0.217175 *  0.973578 *   0.87073    1.000000    
     80 O2    c    0.787836 *  0.914171 *  0.306318 *   0.87073    1.000000    
     81 O2    c    0.090287 *  0.872599 *  0.639821 *   0.87073    1.000000    
     82 O2    c    0.877043 *  0.791188 *  0.473068 *   0.87073    1.000000    
     83 O2    c    0.217531 *  0.080131 *  0.807071 *   0.87073    1.000000    
     84 O2    c    0.913742 *  0.133360 *  0.145519 *   0.87073    1.000000    
     85 O2    c    0.211437 *  0.128567 *  0.362471 *   0.87073    1.000000    
     86 O3    c    0.912741 *  0.779909 *  0.026682 *   1.33043    1.000000    
     87 O2    c    0.877642 *  0.080521 *  0.695033 *   0.87073    1.000000    
     88 O2    c    0.791574 *  0.871796 *  0.865347 *   0.87073    1.000000    
     89 O3    c    0.080143 *  0.210722 *  0.530584 *   1.33043    1.000000    
     90 O2    c    0.127699 *  0.916650 *  0.195636 *   0.87073    1.000000    
     91 O2    c    0.939734 *  0.860771 *  0.254456 *   0.87073    1.000000    
     92 O2    c    0.140338 *  0.069563 *  0.585071 *   0.87073    1.000000    
     93 O2    c    0.930122 *  0.074385 *  0.917992 *   0.87073    1.000000    
     94 O2    c    0.066993 *  0.127670 *  0.753494 *   0.87073    1.000000    
     95 O3    c    0.884734 *  0.945244 *  0.090772 *   1.33043    1.000000    
     96 O2    c    0.075189 *  0.936441 *  0.419231 *   0.87073    1.000000    
     97 O2    c    0.896213 *  0.198290 *  0.983839 *   0.87073    1.000000    
     98 O2    c    0.795097 *  0.698299 *  0.314473 *   0.87073    1.000000    
     99 O2    c    0.304122 *  0.093220 *  0.647160 *   0.87073    1.000000    
    100 O2    c    0.096208 *  0.794429 *  0.480795 *   0.87073    1.000000    
    101 O2    c    0.212567 *  0.295530 *  0.815038 *   0.87073    1.000000    
    102 O2    c    0.701013 *  0.907747 *  0.147874 *   0.87073    1.000000    
    103 O2    c    0.203434 *  0.904771 *  0.354544 *   0.87073    1.000000    
    104 O3    c    0.693762 *  0.812565 *  0.025715 *   1.33043    1.000000    
    105 O2    c    0.097206 *  0.299064 *  0.693982 *   0.87073    1.000000    
    106 O2    c    0.802068 *  0.095287 *  0.852356 *   0.87073    1.000000    
    107 O2    c    0.298340 *  0.213346 *  0.522332 *   0.87073    1.000000    
    108 O2    c    0.903451 *  0.704416 *  0.187352 *   0.87073    1.000000    
    109 O2    c    0.324952 *  0.648553 *  0.250594 *   0.87073    1.000000    
    110 O2    c    0.352936 *  0.671136 *  0.583935 *   0.87073    1.000000    
    111 O2    c    0.327094 *  0.670907 *  0.917987 *   0.87073    1.000000    
    112 O2    c    0.679555 *  0.348058 *  0.749108 *   0.87073    1.000000    
    113 O2    c    0.648388 *  0.326797 *  0.085584 *   0.87073    1.000000    
    114 O2    c    0.673225 *  0.323225 *  0.418114 *   0.87073    1.000000    
    115 O3    c    0.366874 *  0.315280 *  0.975595 *   1.33043    1.000000    
    116 O2    c    0.669837 *  0.045739 *  0.305169 *   0.87073    1.000000    
    117 O2    c    0.958107 *  0.620606 *  0.637927 *   0.87073    1.000000    
    118 O2    c    0.630276 *  0.678667 *  0.470053 *   0.87073    1.000000    
    119 O2    c    0.336599 *  0.951304 *  0.804625 *   0.87073    1.000000    
    120 O2    c    0.045895 *  0.379225 *  0.140617 *   0.87073    1.000000    
    121 O2    c    0.330231 *  0.378229 *  0.363525 *   0.87073    1.000000    
    122 O2    c    0.046043 *  0.667638 *  0.030948 *   0.87073    1.000000    
    123 O2    c    0.628394 *  0.949150 *  0.696036 *   0.87073    1.000000    
    124 O2    c    0.680407 *  0.623302 *  0.868016 *   0.87073    1.000000    
    125 O3    c    0.940618 *  0.319766 *  0.527024 *   1.33043    1.000000    
    126 O2    c    0.375604 *  0.049494 *  0.197573 *   0.87073    1.000000    
    127 O2    c    0.770154 *  0.298689 *  0.014531 *   0.87073    1.000000    
    128 O2    c    0.693503 *  0.466487 *  0.345056 *   0.87073    1.000000    
    129 O2    c    0.533831 *  0.222216 *  0.677437 *   0.87073    1.000000    
    130 O2    c    0.227352 *  0.693614 *  0.512703 *   0.87073    1.000000    
    131 O2    c    0.315070 *  0.528028 *  0.848004 *   0.87073    1.000000    
    132 O2    c    0.469178 *  0.774378 *  0.178144 *   0.87073    1.000000    
    133 O2    c    0.303909 *  0.773519 *  0.323242 *   0.87073    1.000000    
    134 O2    c    0.468238 *  0.697838 *  0.989943 *   0.87073    1.000000    
    135 O2    c    0.231173 *  0.527612 *  0.656847 *   0.87073    1.000000    
    136 O2    c    0.698978 *  0.223984 *  0.821964 *   0.87073    1.000000    
    137 O2    c    0.526867 *  0.306408 *  0.490114 *   0.87073    1.000000    
    138 O2    c    0.773897 *  0.473207 *  0.157464 *   0.87073    1.000000    
    139 O2    c    0.788077 *  0.531424 *  0.027877 *   0.87073    1.000000    
    140 O2    c    0.461678 *  0.250532 *  0.363640 *   0.87073    1.000000    
    141 O2    c    0.750920 *  0.207463 *  0.693815 *   0.87073    1.000000    
    142 O3    c    0.231728 *  0.469690 *  0.524783 *   1.33043    1.000000    
    143 O2    c    0.539155 *  0.737184 *  0.869247 *   0.87073    1.000000    
    144 O2    c    0.252902 *  0.790120 *  0.195788 *   0.87073    1.000000    
    145 O2    c    0.536046 *  0.787184 *  0.306042 *   0.87073    1.000000    
    146 O2    c    0.261804 *  0.466240 *  0.972076 *   0.87073    1.000000    
    147 O2    c    0.210323 *  0.736059 *  0.637052 *   0.87073    1.000000    
    148 O2    c    0.469546 *  0.211411 *  0.804989 *   0.87073    1.000000    
    149 O2    c    0.748790 *  0.538365 *  0.472997 *   0.87073    1.000000    
    150 O2    c    0.786462 *  0.255668 *  0.141490 *   0.87073    1.000000    
    151 O2    c    0.245541 *  0.320847 *  0.900286 *   0.87073    1.000000    
    152 O2    c    0.677510 *  0.911473 *  0.232372 *   0.87073    1.000000    
    153 O2    c    0.086143 *  0.754980 *  0.565896 *   0.87073    1.000000    
    154 O2    c    0.770216 *  0.679388 *  0.398516 *   0.87073    1.000000    
    155 O2    c    0.326088 *  0.085974 *  0.732113 *   0.87073    1.000000    
    156 O2    c    0.909997 *  0.230589 *  0.068846 *   0.87073    1.000000    
    157 O2    c    0.319199 *  0.238758 *  0.436826 *   0.87073    1.000000    
    158 O2    c    0.906392 *  0.678069 *  0.102124 *   0.87073    1.000000    
    159 O2    c    0.771486 *  0.086350 *  0.768140 *   0.87073    1.000000    
    160 O2    c    0.683798 *  0.761830 *  0.941298 *   0.87073    1.000000    
    161 O3    c    0.094595 *  0.308061 *  0.609161 *   1.33043    1.000000    
    162 O2    c    0.233593 *  0.913677 *  0.269800 *   0.87073    1.000000    
    163 O3    c    0.601111 *  0.572067 *  0.002452 *   1.33043    1.000000    
    164 O2    c    0.441181 *  0.031543 *  0.325178 *   0.87073    1.000000    
    165 O2    c    0.974655 *  0.410506 *  0.657567 *   0.87073    1.000000    
    166 O2    c    0.416255 *  0.451497 *  0.491094 *   0.87073    1.000000    
    167 O2    c    0.565284 *  0.964044 *  0.823665 *   0.87073    1.000000    
    168 O2    c    0.033440 *  0.596951 *  0.157725 *   0.87073    1.000000    
    169 O2    c    0.559021 *  0.590855 *  0.343578 *   0.87073    1.000000    
    170 O2    c    0.031030 *  0.436424 *  0.012159 *   0.87073    1.000000    
    171 O2    c    0.411796 *  0.962891 *  0.676877 *   0.87073    1.000000    
    172 O2    c    0.453062 *  0.411982 *  0.846634 *   0.87073    1.000000    
    173 O2    c    0.971367 *  0.553078 *  0.510162 *   0.87073    1.000000    
    174 O2    c    0.588035 *  0.033317 *  0.177503 *   0.87073    1.000000    
    175 O2    c    0.582954 *  0.169267 *  0.251720 *   0.87073    1.000000    
    176 O2    c    0.836959 *  0.415079 *  0.584121 *   0.87073    1.000000    
    177 O3    c    0.604002 *  0.408095 *  0.915456 *   1.33043    1.000000    
    178 O2    c    0.421023 *  0.826697 *  0.750455 *   0.87073    1.000000    
    179 O2    c    0.170649 *  0.583774 *  0.084914 *   0.87073    1.000000    
    180 O2    c    0.419538 *  0.589854 *  0.416652 *   0.87073    1.000000    
    181 F     c    0.453080 *  0.906735 *  0.251120 *   0.56000    1.000000    
    182 F     c    0.092774 *  0.505903 *  0.579258 *   0.56000    1.000000    
    183 F     c    0.480065 *  0.522806 *  0.929039 *   0.56000    1.000000    
    184 F     c    0.549397 *  0.086692 *  0.749844 *   0.56000    1.000000    
    185 F     c    0.912759 *  0.455866 *  0.085299 *   0.56000    1.000000    
    186 F     c    0.550065 *  0.457143 *  0.417529 *   0.56000    1.000000    
    187 O3    s    0.939649 *  0.007850 *  0.999651 *  -3.33043    1.000000    
    188 O2    s    0.997239 *  0.926139 *  0.337196 *  -2.87073    1.000000    
    189 O2    s    0.080972 *  0.073713 *  0.669608 *  -2.87073    1.000000    
    190 O2    s    0.076609 *  0.000116 *  0.502526 *  -2.87073    1.000000    
    191 O2    s    0.006465 *  0.069883 *  0.836583 *  -2.87073    1.000000    
    192 O2    s    0.926214 *  0.933320 *  0.173990 *  -2.87073    1.000000    
    193 O2    s    0.353500 *  0.590656 *  0.333473 *  -2.87073    1.000000    
    194 O2    s    0.414884 *  0.760050 *  0.667036 *  -2.87073    1.000000    
    195 O2    s    0.233878 *  0.644262 *  0.001020 *  -2.87073    1.000000    
    196 O2    s    0.656302 *  0.412248 *  0.830606 *  -2.87073    1.000000    
    197 O2    s    0.588326 *  0.240313 *  0.168672 *  -2.87073    1.000000    
    198 O2    s    0.754570 *  0.352211 *  0.501120 *  -2.87073    1.000000    
    199 O3    s    0.590843 *  0.350631 *  0.003066 *  -3.33043    1.000000    
    200 O2    s    0.765616 *  0.406822 *  0.666984 *  -2.87073    1.000000    
    201 O2    s    0.644790 *  0.234778 *  0.335243 *  -2.87073    1.000000    
    202 O2    s    0.421460 *  0.659708 *  0.499484 *  -2.87073    1.000000    
    203 O2    s    0.237001 *  0.591887 *  0.168094 *  -2.87073    1.000000    
    204 O2    s    0.361583 *  0.760929 *  0.834326 *  -2.87073    1.000000    
    205 O2    s    0.120473 *  0.219764 *  0.971008 *  -2.87073    1.000000    
    206 O2    s    0.784388 *  0.907304 *  0.303975 *  -2.87073    1.000000    
    207 O2    s    0.096399 *  0.874788 *  0.637222 *  -2.87073    1.000000    
    208 O2    s    0.880315 *  0.787752 *  0.470574 *  -2.87073    1.000000    
    209 O2    s    0.220920 *  0.087146 *  0.804547 *  -2.87073    1.000000    
    210 O2    s    0.907388 *  0.129819 *  0.142546 *  -2.87073    1.000000    
    211 O2    s    0.214909 *  0.125186 *  0.365113 *  -2.87073    1.000000    
    212 O3    s    0.907895 *  0.776158 *  0.029671 *  -3.33043    1.000000    
    213 O2    s    0.880511 *  0.087386 *  0.697776 *  -2.87073    1.000000    
    214 O2    s    0.788650 *  0.875084 *  0.867850 *  -2.87073    1.000000    
    215 O3    s    0.088297 *  0.210805 *  0.532491 *  -3.33043    1.000000    
    216 O2    s    0.124553 *  0.910015 *  0.198430 *  -2.87073    1.000000    
    217 O2    s    0.936749 *  0.858781 *  0.254167 *  -2.87073    1.000000    
    218 O2    s    0.142481 *  0.070742 *  0.585695 *  -2.87073    1.000000    
    219 O2    s    0.929111 *  0.074258 *  0.917785 *  -2.87073    1.000000    
    220 O2    s    0.069637 *  0.131392 *  0.753442 *  -2.87073    1.000000    
    221 O3    s    0.878996 *  0.943503 *  0.091192 *  -3.33043    1.000000    
    222 O2    s    0.075429 *  0.934517 *  0.419129 *  -2.87073    1.000000    
    223 O2    s    0.904990 *  0.200488 *  0.986152 *  -2.87073    1.000000    
    224 O2    s    0.793976 *  0.704695 *  0.317212 *  -2.87073    1.000000    
    225 O2    s    0.298070 *  0.086006 *  0.649870 *  -2.87073    1.000000    
    226 O2    s    0.089152 *  0.792782 *  0.483547 *  -2.87073    1.000000    
    227 O2    s    0.213567 *  0.289388 *  0.817720 *  -2.87073    1.000000    
    228 O2    s    0.707063 *  0.915156 *  0.150807 *  -2.87073    1.000000    
    229 O2    s    0.204825 *  0.912381 *  0.352072 *  -2.87073    1.000000    
    230 O3    s    0.698451 *  0.807880 *  0.023179 *  -3.33043    1.000000    
    231 O2    s    0.090410 *  0.291914 *  0.690829 *  -2.87073    1.000000    
    232 O2    s    0.800307 *  0.087504 *  0.850036 *  -2.87073    1.000000    
    233 O2    s    0.293123 *  0.214629 *  0.519528 *  -2.87073    1.000000    
    234 O2    s    0.911350 *  0.710497 *  0.185078 *  -2.87073    1.000000    
    235 O2    s    0.330795 *  0.660473 *  0.250629 *  -2.87073    1.000000    
    236 O2    s    0.342683 *  0.666300 *  0.584150 *  -2.87073    1.000000    
    237 O2    s    0.332868 *  0.666129 *  0.917964 *  -2.87073    1.000000    
    238 O2    s    0.673678 *  0.336364 *  0.749095 *  -2.87073    1.000000    
    239 O2    s    0.659214 *  0.331782 *  0.085827 *  -2.87073    1.000000    
    240 O2    s    0.667078 *  0.329224 *  0.418004 *  -2.87073    1.000000    
    241 O3    s    0.366051 *  0.324922 *  0.972803 *  -3.33043    1.000000    
    242 O2    s    0.659868 *  0.039001 *  0.302920 *  -2.87073    1.000000    
    243 O2    s    0.964448 *  0.617728 *  0.635750 *  -2.87073    1.000000    
    244 O2    s    0.626911 *  0.668245 *  0.467913 *  -2.87073    1.000000    
    245 O2    s    0.346480 *  0.957812 *  0.802340 *  -2.87073    1.000000    
    246 O2    s    0.039104 *  0.382511 *  0.138239 *  -2.87073    1.000000    
    247 O2    s    0.340052 *  0.381368 *  0.365805 *  -2.87073    1.000000    
    248 O2    s    0.039333 *  0.657098 *  0.033097 *  -2.87073    1.000000    
    249 O2    s    0.625149 *  0.955973 *  0.698297 *  -2.87073    1.000000    
    250 O2    s    0.671303 *  0.620783 *  0.870021 *  -2.87073    1.000000    
    251 O3    s    0.944797 *  0.331698 *  0.529318 *  -3.33043    1.000000    
    252 O2    s    0.378864 *  0.042685 *  0.199782 *  -2.87073    1.000000    
    253 O2    s    0.777548 *  0.306578 *  0.017385 *  -2.87073    1.000000    
    254 O2    s    0.686064 *  0.466270 *  0.348236 *  -2.87073    1.000000    
    255 O2    s    0.534565 *  0.215356 *  0.680568 *  -2.87073    1.000000    
    256 O2    s    0.220786 *  0.686417 *  0.515231 *  -2.87073    1.000000    
    257 O2    s    0.322047 *  0.529013 *  0.850714 *  -2.87073    1.000000    
    258 O2    s    0.468710 *  0.781558 *  0.181290 *  -2.87073    1.000000    
    259 O2    s    0.311557 *  0.780728 *  0.320172 *  -2.87073    1.000000    
    260 O2    s    0.467031 *  0.690065 *  0.987681 *  -2.87073    1.000000    
    261 O2    s    0.224945 *  0.528534 *  0.654031 *  -2.87073    1.000000    
    262 O2    s    0.691745 *  0.217043 *  0.818819 *  -2.87073    1.000000    
    263 O2    s    0.527636 *  0.314379 *  0.487041 *  -2.87073    1.000000    
    264 O2    s    0.780531 *  0.472466 *  0.154336 *  -2.87073    1.000000    
    265 O2    s    0.792936 *  0.529340 *  0.030676 *  -2.87073    1.000000    
    266 O2    s    0.464486 *  0.258688 *  0.366102 *  -2.87073    1.000000    
    267 O2    s    0.743247 *  0.202457 *  0.696490 *  -2.87073    1.000000    
    268 O3    s    0.228385 *  0.476820 *  0.527510 *  -3.33043    1.000000    
    269 O2    s    0.536452 *  0.731042 *  0.871039 *  -2.87073    1.000000    
    270 O2    s    0.260825 *  0.795333 *  0.198424 *  -2.87073    1.000000    
    271 O2    s    0.533418 *  0.792555 *  0.303431 *  -2.87073    1.000000    
    272 O2    s    0.268239 *  0.469511 *  0.970061 *  -2.87073    1.000000    
    273 O2    s    0.206386 *  0.730070 *  0.634944 *  -2.87073    1.000000    
    274 O2    s    0.472040 *  0.205976 *  0.802435 *  -2.87073    1.000000    
    275 O2    s    0.740831 *  0.536005 *  0.470299 *  -2.87073    1.000000    
    276 O2    s    0.791681 *  0.263575 *  0.138894 *  -2.87073    1.000000    
    277 O2    s    0.253716 *  0.329731 *  0.900707 *  -2.87073    1.000000    
    278 O2    s    0.667971 *  0.911309 *  0.233280 *  -2.87073    1.000000    
    279 O2    s    0.087071 *  0.747435 *  0.566793 *  -2.87073    1.000000    
    280 O2    s    0.760625 *  0.669932 *  0.399540 *  -2.87073    1.000000    
    281 O2    s    0.335681 *  0.086132 *  0.732995 *  -2.87073    1.000000    
    282 O2    s    0.909648 *  0.240293 *  0.069641 *  -2.87073    1.000000    
    283 O2    s    0.328838 *  0.247614 *  0.435909 *  -2.87073    1.000000    
    284 O2    s    0.906864 *  0.668587 *  0.101522 *  -2.87073    1.000000    
    285 O2    s    0.762006 *  0.086409 *  0.767263 *  -2.87073    1.000000    
    286 O2    s    0.675223 *  0.754536 *  0.939976 *  -2.87073    1.000000    
    287 O3    s    0.094621 *  0.319834 *  0.609714 *  -3.33043    1.000000    
    288 O2    s    0.242979 *  0.913333 *  0.268968 *  -2.87073    1.000000    
    289 O3    s    0.597044 *  0.576642 *  0.998728 *  -3.33043    1.000000    
    290 O2    s    0.440797 *  0.026581 *  0.321814 *  -2.87073    1.000000    
    291 O2    s    0.978267 *  0.414101 *  0.654625 *  -2.87073    1.000000    
    292 O2    s    0.420185 *  0.450739 *  0.487744 *  -2.87073    1.000000    
    293 O2    s    0.565001 *  0.969065 *  0.820314 *  -2.87073    1.000000    
    294 O2    s    0.028182 *  0.591546 *  0.154515 *  -2.87073    1.000000    
    295 O2    s    0.559122 *  0.586058 *  0.346941 *  -2.87073    1.000000    
    296 O2    s    0.026034 *  0.436844 *  0.015550 *  -2.87073    1.000000    
    297 O2    s    0.416954 *  0.968108 *  0.680193 *  -2.87073    1.000000    
    298 O2    s    0.451548 *  0.414939 *  0.849487 *  -2.87073    1.000000    
    299 O2    s    0.975693 *  0.554280 *  0.513129 *  -2.87073    1.000000    
    300 O2    s    0.583578 *  0.028499 *  0.180845 *  -2.87073    1.000000    
    301 O2    s    0.577521 *  0.158332 *  0.251655 *  -2.87073    1.000000    
    302 O2    s    0.846366 *  0.419761 *  0.584411 *  -2.87073    1.000000    
    303 O3    s    0.598797 *  0.415520 *  0.913698 *  -3.33043    1.000000    
    304 O2    s    0.426623 *  0.838060 *  0.750509 *  -2.87073    1.000000    
    305 O2    s    0.159123 *  0.578371 *  0.084882 *  -2.87073    1.000000    
    306 O2    s    0.425117 *  0.584332 *  0.416659 *  -2.87073    1.000000    
    307 F     s    0.452852 *  0.906195 *  0.251121 *  -1.56000    1.000000    
    308 F     s    0.092809 *  0.497369 *  0.577827 *  -1.56000    1.000000    
    309 F     s    0.483871 *  0.516944 *  0.931448 *  -1.56000    1.000000    
    310 F     s    0.549399 *  0.086670 *  0.749828 *  -1.56000    1.000000    
    311 F     s    0.913282 *  0.455980 *  0.085289 *  -1.56000    1.000000    
    312 F     s    0.550705 *  0.457070 *  0.417547 *  -1.56000    1.000000    
--------------------------------------------------------------------------------



********************************************************************************
*  General input information                                                   *
********************************************************************************

  Species output for all configurations : 

--------------------------------------------------------------------------------
  Species    Type    Atomic    Atomic    Charge       Radii (Angs)     Library
                     Number     Mass       (e)     Cova   Ionic  VDW   Symbol
--------------------------------------------------------------------------------
    Si       Core       14      28.09   4.000000   1.200  0.000  2.100          
    O1       Core        8      16.00   1.733957   0.730  0.000  1.360          
    O1       Shell       8       0.00  -3.733957   0.730  0.000  1.360          
    O2       Core        8      16.00   0.870733   0.730  0.000  1.360          
    O2       Shell       8       0.00  -2.870733   0.730  0.000  1.360          
    O3       Core        8      16.00   1.330431   0.730  0.000  1.360          
    O3       Shell       8       0.00  -3.330431   0.730  0.000  1.360          
    F        Core        9      19.00   0.560000   0.710  0.000  1.300          
    F        Shell       9       0.00  -1.560000   0.710  0.000  1.300          
    Ge       Core       32      72.61   4.000000   1.170  0.000  1.750          
--------------------------------------------------------------------------------


  Lattice summation method               =    Ewald          (3-D)
                                         =    Parry          (2-D)
                                         =    Saunders et al (1-D)
  Accuracy factor for lattice sums       =   12.000


  Time limit = Infinity

  Maximum range for interatomic potentials =        16.000000 Angstroms

  Taper potentials to zero over   1.0000 Angstroms using polynomial

  General interatomic potentials :

--------------------------------------------------------------------------------
Atom  Types   Potential         A         B         C         D     Cutoffs(Ang)
  1     2                                                            Min    Max 
--------------------------------------------------------------------------------
Si   c O1   s Buckingham    0.132E+04 0.318      10.1      0.00     0.000 16.000
Si   c O2   s Buckingham    0.132E+04 0.318      10.1      0.00     0.000 16.000
Si   c O3   s Buckingham    0.132E+04 0.318      10.1      0.00     0.000 16.000
Ge   c O1   s Buckingham    0.150E+04 0.326      16.8      0.00     0.000 16.000
Ge   c O2   s Buckingham    0.150E+04 0.326      16.8      0.00     0.000 16.000
Ge   c O3   s Buckingham    0.150E+04 0.326      16.8      0.00     0.000 16.000
O1   s O1   s Buckingham    0.228E+05 0.149      10.9      0.00     0.000 16.000
O1   s O2   s Buckingham    0.228E+05 0.149      10.9      0.00     0.000 16.000
O1   s O3   s Buckingham    0.228E+05 0.149      10.9      0.00     0.000 16.000
O2   s O2   s Buckingham    0.228E+05 0.149      10.9      0.00     0.000 16.000
O2   s O3   s Buckingham    0.228E+05 0.149      10.9      0.00     0.000 16.000
O3   s O3   s Buckingham    0.228E+05 0.149      10.9      0.00     0.000 16.000
Si   c F    s Buckingham     977.     0.282      0.00      0.00     0.000 16.000
Ge   c F    s Buckingham     681.     0.320      0.00      0.00     0.000 16.000
F    s F    s Buckingham     540.     0.262      0.00      0.00     0.000 16.000
O1   s F    s Buckingham    0.168E+04 0.268      0.00      0.00     0.000 16.000
O2   s F    s Buckingham    0.168E+04 0.268      0.00      0.00     0.000 16.000
O3   s F    s Buckingham    0.168E+04 0.268      0.00      0.00     0.000 16.000
O2   c O2   s Spring (c-s)   76.0      0.00      0.00      0.00     0.000  0.800
O3   c O3   s Spring (c-s)   128.      0.00      0.00      0.00     0.000  0.800
O1   c O1   s Spring (c-s)   180.      0.00      0.00      0.00     0.000  0.800
F    c F    s Spring (c-s)   33.5      0.00      0.00      0.00     0.000  0.800
--------------------------------------------------------------------------------

  General Three-body potentials :

  Harmonic form:

--------------------------------------------------------------------------------
Atom    Atom    Atom           Force Constants            Theta     Cutoffs  
  1       2       3     (eVrad**-2/eVrad**-3/eVrad**-4)   (deg)  1-2  1-3  2-3
--------------------------------------------------------------------------------
Si    c O1    s O1    s  1.261        0.0000    0.0000   109.470 0.00 0.00 0.00
                                                                 1.90 1.90 3.50
Si    c O1    s O2    s  1.261        0.0000    0.0000   109.470 0.00 0.00 0.00
                                                                 1.90 1.90 3.50
Si    c O2    s O2    s  1.261        0.0000    0.0000   109.470 0.00 0.00 0.00
                                                                 1.90 1.90 3.50
--------------------------------------------------------------------------------

********************************************************************************
*  Output for configuration   1                                                *
********************************************************************************


  Components of energy : 

--------------------------------------------------------------------------------
  Interatomic potentials     =        2063.62382114 eV
  Three-body potentials      =           0.47463380 eV
  Monopole - monopole (real) =       -6614.56495112 eV
  Monopole - monopole (recip)=       -3169.55417750 eV
  Monopole - monopole (total)=       -9784.11912862 eV
  Neutralising energy        =          -6.45638372 eV
--------------------------------------------------------------------------------
  Total lattice energy       =       -7726.47705740 eV
--------------------------------------------------------------------------------
  Total lattice energy       =         -745486.9260 kJ/(mole unit cells)
--------------------------------------------------------------------------------


  Number of variables =      939

  Maximum number of calculations  =          1000
  Maximum Hessian update interval =            10
  Maximum step size               =   1.000000000
  Maximum parameter tolerance     =   0.000010000
  Maximum function  tolerance     =   0.000010000
  Maximum gradient  tolerance     =   0.001000000
  Maximum gradient  component     =   0.010000000

  Symmetry not applied to optimisation

  Cell parameters to be optimised using strains

  Newton-Raphson optimiser to be used

  BFGS hessian update to be used

  Dumpfile to be written after every cycle

  Start of bulk optimisation :

  Cycle:      0 Energy:     -7726.477057  Gnorm:      0.000722  CPU:    1.987
  ** Hessian calculated **
  Cycle:      1 Energy:     -7726.507138  Gnorm:      0.002710  CPU:    4.887
  Cycle:      2 Energy:     -7726.507339  Gnorm:      0.000174  CPU:    7.835
  Cycle:      3 Energy:     -7726.507349  Gnorm:      0.000087  CPU:   10.115


  **** Optimisation achieved ****


  Final energy =   -7726.50734918 eV
  Final Gnorm  =       0.00000948

  Components of energy : 

--------------------------------------------------------------------------------
  Interatomic potentials     =        2063.85633874 eV
  Three-body potentials      =           0.47584457 eV
  Monopole - monopole (real) =       -6614.54822668 eV
  Monopole - monopole (recip)=       -3169.83435217 eV
  Monopole - monopole (total)=       -9784.38257885 eV
  Neutralising energy        =          -6.45695364 eV
--------------------------------------------------------------------------------
  Total lattice energy       =       -7726.50734918 eV
--------------------------------------------------------------------------------
  Total lattice energy       =         -745489.8487 kJ/(mole unit cells)
--------------------------------------------------------------------------------

  Final fractional coordinates of atoms :

--------------------------------------------------------------------------------
   No.  Atomic        x           y          z          Radius
        Label       (Frac)      (Frac)     (Frac)       (Angs) 
--------------------------------------------------------------------------------
     1  Si    c     0.699600    0.375700    0.033890    0.000000
     2  Si    c     0.626108    0.326828    0.367543    0.000000
     3  Si    c     0.684261    0.287426    0.699065    0.000000
     4  Si    c     0.308660    0.619332    0.530553    0.000000
     5  Si    c     0.392033    0.670518    0.866897    0.000000
     6  Si    c     0.336197    0.713293    0.198887    0.000000
     7  Si    c     0.389862    0.709786    0.299236    0.000000
     8  Si    c     0.329117    0.621300    0.968173    0.000000
     9  Si    c     0.306263    0.666981    0.633517    0.000000
    10  Si    c     0.631111    0.289530    0.799554    0.000000
    11  Si    c     0.675750    0.384190    0.467624    0.000000
    12  Si    c     0.712834    0.334560    0.135874    0.000000
    13  Ge    c     0.535429    0.429757    0.966828    0.000000
    14  Si    c     0.591860    0.117885    0.302288    0.000000
    15  Si    c     0.893062    0.461408    0.635102    0.000000
    16  Si    c     0.482132    0.593850    0.465662    0.000000
    17  Si    c     0.430338    0.878295    0.799631    0.000000
    18  Si    c     0.124615    0.541974    0.133789    0.000000
    19  Si    c     0.426723    0.537509    0.364589    0.000000
    20  Si    c     0.116728    0.581403    0.032314    0.000000
    21  Si    c     0.479899    0.878337    0.698431    0.000000
    22  Si    c     0.602681    0.460285    0.868119    0.000000
    23  Si    c     0.882664    0.406828    0.531397    0.000000
    24  Si    c     0.542265    0.124754    0.200894    0.000000
    25  Si    c     0.316859    0.387365    0.853220    0.000000
    26  Si    c     0.613385    0.914396    0.185506    0.000000
    27  Si    c     0.097983    0.691140    0.517245    0.000000
    28  Si    c     0.706055    0.605667    0.351924    0.000000
    29  Si    c     0.406508    0.087093    0.684841    0.000000
    30  Si    c     0.905333    0.301405    0.020974    0.000000
    31  Si    c     0.399722    0.310170    0.482880    0.000000
    32  Si    c     0.915381    0.614374    0.147621    0.000000
    33  Si    c     0.708782    0.087032    0.813642    0.000000
    34  Si    c     0.610158    0.703392    0.989368    0.000000
    35  Si    c     0.104131    0.386278    0.651754    0.000000
    36  Si    c     0.311773    0.910766    0.315597    0.000000
    37  Si    c     0.257509    0.333062    0.954998    0.000000
    38  Si    c     0.670742    0.917056    0.285894    0.000000
    39  Si    c     0.093829    0.742550    0.619384    0.000000
    40  Si    c     0.758582    0.667834    0.452048    0.000000
    41  Si    c     0.350540    0.079356    0.785536    0.000000
    42  Si    c     0.922203    0.262834    0.121607    0.000000
    43  Si    c     0.345999    0.257614    0.381865    0.000000
    44  Si    c     0.914433    0.656650    0.046331    0.000000
    45  Si    c     0.758070    0.078388    0.713191    0.000000
    46  Si    c     0.676230    0.741870    0.886908    0.000000
    47  Ge    c     0.093650    0.353381    0.551765    0.000000
    48  Si    c     0.264525    0.923259    0.215126    0.000000
    49  Si    c     0.973251    0.124468    0.968531    0.000000
    50  Si    c     0.888409    0.853270    0.302625    0.000000
    51  Si    c     0.161163    0.026676    0.634244    0.000000
    52  Si    c     0.038806    0.881937    0.468516    0.000000
    53  Si    c     0.131612    0.139056    0.802808    0.000000
    54  Si    c     0.865222    0.985940    0.138851    0.000000
    55  Si    c     0.130923    0.976212    0.367660    0.000000
    56  Ge    c     0.859641    0.885216    0.036809    0.000000
    57  Si    c     0.038118    0.142427    0.702302    0.000000
    58  Si    c     0.888724    0.023266    0.867605    0.000000
    59  Si    c     0.153735    0.127072    0.534612    0.000000
    60  Si    c     0.985328    0.860762    0.202078    0.000000
    61  O3    c     0.947421    0.008192    0.000105    0.000000
    62  O2    c     0.005184    0.932326    0.337220    0.000000
    63  O2    c     0.085862    0.067883    0.669383    0.000000
    64  O2    c     0.084065    0.000082    0.502649    0.000000
    65  O2    c     0.013599    0.061653    0.836925    0.000000
    66  O2    c     0.940701    0.947046    0.174664    0.000000
    67  O2    c     0.350861    0.585579    0.331475    0.000000
    68  O2    c     0.429226    0.752864    0.665633    0.000000
    69  O2    c     0.239688    0.657233    0.998610    0.000000
    70  O2    c     0.673312    0.416135    0.830702    0.000000
    71  O2    c     0.592261    0.252247    0.169581    0.000000
    72  O2    c     0.753340    0.340475    0.501508    0.000000
    73  O3    c     0.580310    0.339289    0.002900    0.000000
    74  O2    c     0.768265    0.412258    0.667326    0.000000
    75  O2    c     0.666181    0.241794    0.335604    0.000000
    76  O2    c     0.434147    0.672651    0.498060    0.000000
    77  O2    c     0.251300    0.591894    0.165545    0.000000
    78  O2    c     0.356862    0.752783    0.832239    0.000000
    79  O2    c     0.124412    0.219225    0.973410    0.000000
    80  O2    c     0.797175    0.917146    0.305692    0.000000
    81  O2    c     0.097512    0.870697    0.639110    0.000000
    82  O2    c     0.884463    0.793811    0.472273    0.000000
    83  O2    c     0.223243    0.075518    0.806296    0.000000
    84  O2    c     0.924824    0.139970    0.143832    0.000000
    85  O2    c     0.220034    0.130734    0.361947    0.000000
    86  O3    c     0.913979    0.779535    0.024908    0.000000
    87  O2    c     0.884511    0.077260    0.694211    0.000000
    88  O2    c     0.798594    0.867951    0.865378    0.000000
    89  O3    c     0.084607    0.207690    0.530313    0.000000
    90  O2    c     0.138584    0.924099    0.195225    0.000000
    91  O2    c     0.949543    0.864617    0.253845    0.000000
    92  O2    c     0.149232    0.069206    0.584563    0.000000
    93  O2    c     0.934440    0.072538    0.917703    0.000000
    94  O2    c     0.072360    0.123833    0.753184    0.000000
    95  O3    c     0.892128    0.945958    0.090541    0.000000
    96  O2    c     0.084661    0.937342    0.418754    0.000000
    97  O2    c     0.897459    0.199343    0.982545    0.000000
    98  O2    c     0.804478    0.701240    0.313752    0.000000
    99  O2    c     0.311882    0.090835    0.646469    0.000000
   100  O2    c     0.100435    0.791084    0.480012    0.000000
   101  O2    c     0.218922    0.291240    0.814629    0.000000
   102  O2    c     0.711556    0.914965    0.147262    0.000000
   103  O2    c     0.212899    0.907262    0.353937    0.000000
   104  O3    c     0.697300    0.813729    0.025472    0.000000
   105  O2    c     0.103683    0.296116    0.693615    0.000000
   106  O2    c     0.808032    0.090787    0.851454    0.000000
   107  O2    c     0.305310    0.216318    0.521822    0.000000
   108  O2    c     0.914246    0.712292    0.185677    0.000000
   109  O2    c     0.334747    0.653566    0.248723    0.000000
   110  O2    c     0.357618    0.666487    0.582807    0.000000
   111  O2    c     0.333092    0.670035    0.916296    0.000000
   112  O2    c     0.685855    0.344376    0.749258    0.000000
   113  O2    c     0.653560    0.329982    0.086125    0.000000
   114  O2    c     0.681269    0.326818    0.417989    0.000000
   115  O3    c     0.368685    0.314728    0.975533    0.000000
   116  O2    c     0.679812    0.049167    0.304982    0.000000
   117  O2    c     0.964776    0.618298    0.637857    0.000000
   118  O2    c     0.637478    0.681844    0.469068    0.000000
   119  O2    c     0.342731    0.946960    0.803506    0.000000
   120  O2    c     0.055180    0.385902    0.138815    0.000000
   121  O2    c     0.338913    0.380903    0.362266    0.000000
   122  O2    c     0.048471    0.668915    0.028667    0.000000
   123  O2    c     0.635402    0.945907    0.694799    0.000000
   124  O2    c     0.685852    0.619197    0.868237    0.000000
   125  O3    c     0.944221    0.316266    0.526739    0.000000
   126  O2    c     0.386486    0.056316    0.197494    0.000000
   127  O2    c     0.771204    0.299272    0.014418    0.000000
   128  O2    c     0.702297    0.469283    0.344565    0.000000
   129  O2    c     0.541104    0.219474    0.677204    0.000000
   130  O2    c     0.231529    0.690599    0.512028    0.000000
   131  O2    c     0.322216    0.524880    0.846903    0.000000
   132  O2    c     0.479459    0.781385    0.176886    0.000000
   133  O2    c     0.313276    0.776529    0.321887    0.000000
   134  O2    c     0.472440    0.699490    0.988925    0.000000
   135  O2    c     0.237201    0.524412    0.656085    0.000000
   136  O2    c     0.704866    0.219335    0.821592    0.000000
   137  O2    c     0.533381    0.309222    0.489574    0.000000
   138  O2    c     0.784166    0.479799    0.157003    0.000000
   139  O2    c     0.789215    0.531379    0.027217    0.000000
   140  O2    c     0.470469    0.253639    0.363212    0.000000
   141  O2    c     0.757860    0.204550    0.693500    0.000000
   142  O3    c     0.235329    0.466449    0.523557    0.000000
   143  O2    c     0.545908    0.734304    0.868333    0.000000
   144  O2    c     0.263385    0.796988    0.194854    0.000000
   145  O2    c     0.545354    0.790298    0.304708    0.000000
   146  O2    c     0.266361    0.467451    0.971299    0.000000
   147  O2    c     0.216551    0.732965    0.636066    0.000000
   148  O2    c     0.475444    0.206917    0.804635    0.000000
   149  O2    c     0.755556    0.541040    0.472841    0.000000
   150  O2    c     0.796213    0.261849    0.140986    0.000000
   151  O2    c     0.249259    0.319208    0.899935    0.000000
   152  O2    c     0.687740    0.916613    0.231647    0.000000
   153  O2    c     0.090526    0.751797    0.565352    0.000000
   154  O2    c     0.778476    0.682000    0.397880    0.000000
   155  O2    c     0.332840    0.082485    0.731396    0.000000
   156  O2    c     0.915804    0.234929    0.067581    0.000000
   157  O2    c     0.326606    0.241959    0.436024    0.000000
   158  O2    c     0.912369    0.682139    0.100507    0.000000
   159  O2    c     0.777794    0.082074    0.767320    0.000000
   160  O2    c     0.688355    0.759559    0.941119    0.000000
   161  O3    c     0.099867    0.304841    0.608596    0.000000
   162  O2    c     0.244155    0.919179    0.269295    0.000000
   163  O3    c     0.602155    0.571536    0.002661    0.000000
   164  O2    c     0.451060    0.034508    0.325145    0.000000
   165  O2    c     0.980985    0.407727    0.657359    0.000000
   166  O2    c     0.423222    0.454362    0.490062    0.000000
   167  O2    c     0.571437    0.959405    0.822604    0.000000
   168  O2    c     0.043826    0.604908    0.155727    0.000000
   169  O2    c     0.568079    0.593796    0.342396    0.000000
   170  O2    c     0.032787    0.438210    0.010224    0.000000
   171  O2    c     0.419077    0.960047    0.675800    0.000000
   172  O2    c     0.458246    0.406738    0.846935    0.000000
   173  O2    c     0.976004    0.549924    0.509804    0.000000
   174  O2    c     0.599230    0.040508    0.177327    0.000000
   175  O2    c     0.593384    0.174459    0.252077    0.000000
   176  O2    c     0.842504    0.412579    0.584201    0.000000
   177  O3    c     0.607796    0.405499    0.916249    0.000000
   178  O2    c     0.427790    0.822895    0.749011    0.000000
   179  O2    c     0.176840    0.588113    0.082407    0.000000
   180  O2    c     0.427552    0.592940    0.415114    0.000000
   181  F     c     0.464013    0.912723    0.250467    0.000000
   182  F     c     0.097360    0.502260    0.578766    0.000000
   183  F     c     0.483992    0.521439    0.928451    0.000000
   184  F     c     0.555871    0.082433    0.749166    0.000000
   185  F     c     0.919135    0.460886    0.084218    0.000000
   186  F     c     0.557975    0.461295    0.416782    0.000000
   187  O3    s     0.942549    0.010307    0.999830    0.000000
   188  O2    s     0.006291    0.928481    0.336785    0.000000
   189  O2    s     0.088868    0.071641    0.669176    0.000000
   190  O2    s     0.086217    0.999837    0.502081    0.000000
   191  O2    s     0.013042    0.065980    0.836493    0.000000
   192  O2    s     0.937367    0.941587    0.173794    0.000000
   193  O2    s     0.362693    0.593316    0.331588    0.000000
   194  O2    s     0.421551    0.756783    0.665634    0.000000
   195  O2    s     0.237051    0.645857    0.998686    0.000000
   196  O2    s     0.661794    0.407331    0.831185    0.000000
   197  O2    s     0.599353    0.247453    0.169382    0.000000
   198  O2    s     0.759240    0.352235    0.501200    0.000000
   199  O3    s     0.590335    0.349485    0.003824    0.000000
   200  O2    s     0.772574    0.404496    0.667265    0.000000
   201  O2    s     0.654327    0.237769    0.335476    0.000000
   202  O2    s     0.426243    0.659465    0.498142    0.000000
   203  O2    s     0.247107    0.599360    0.165749    0.000000
   204  O2    s     0.368100    0.756823    0.832612    0.000000
   205  O2    s     0.122491    0.221543    0.970769    0.000000
   206  O2    s     0.793775    0.910353    0.303341    0.000000
   207  O2    s     0.103572    0.872813    0.636532    0.000000
   208  O2    s     0.887745    0.790074    0.469806    0.000000
   209  O2    s     0.226686    0.082617    0.803817    0.000000
   210  O2    s     0.918155    0.136266    0.141008    0.000000
   211  O2    s     0.223558    0.127443    0.364572    0.000000
   212  O3    s     0.909473    0.776066    0.028024    0.000000
   213  O2    s     0.887352    0.084128    0.696989    0.000000
   214  O2    s     0.795483    0.871342    0.867816    0.000000
   215  O3    s     0.093086    0.208114    0.532190    0.000000
   216  O2    s     0.135382    0.917331    0.197971    0.000000
   217  O2    s     0.946605    0.862900    0.253548    0.000000
   218  O2    s     0.151088    0.070222    0.585189    0.000000
   219  O2    s     0.933397    0.072531    0.917477    0.000000
   220  O2    s     0.075219    0.127592    0.753112    0.000000
   221  O3    s     0.886404    0.944841    0.090917    0.000000
   222  O2    s     0.084664    0.935438    0.418628    0.000000
   223  O2    s     0.906339    0.201555    0.984911    0.000000
   224  O2    s     0.803316    0.707636    0.316485    0.000000
   225  O2    s     0.305784    0.083620    0.649195    0.000000
   226  O2    s     0.093759    0.789830    0.482784    0.000000
   227  O2    s     0.219794    0.285150    0.817322    0.000000
   228  O2    s     0.717553    0.922216    0.150210    0.000000
   229  O2    s     0.214298    0.914931    0.351475    0.000000
   230  O3    s     0.701929    0.808924    0.022938    0.000000
   231  O2    s     0.096884    0.288927    0.690461    0.000000
   232  O2    s     0.806280    0.083057    0.849185    0.000000
   233  O2    s     0.300111    0.217258    0.519015    0.000000
   234  O2    s     0.922028    0.718199    0.183515    0.000000
   235  O2    s     0.340517    0.665360    0.248808    0.000000
   236  O2    s     0.347441    0.661902    0.583048    0.000000
   237  O2    s     0.338824    0.665221    0.916354    0.000000
   238  O2    s     0.680011    0.332738    0.749229    0.000000
   239  O2    s     0.664326    0.334970    0.086205    0.000000
   240  O2    s     0.675052    0.332714    0.417875    0.000000
   241  O3    s     0.367908    0.324433    0.972704    0.000000
   242  O2    s     0.669812    0.042451    0.302702    0.000000
   243  O2    s     0.971019    0.615374    0.635644    0.000000
   244  O2    s     0.634104    0.671281    0.466918    0.000000
   245  O2    s     0.352642    0.953579    0.801225    0.000000
   246  O2    s     0.048357    0.389113    0.136466    0.000000
   247  O2    s     0.348667    0.384072    0.364564    0.000000
   248  O2    s     0.041912    0.658371    0.030891    0.000000
   249  O2    s     0.632132    0.952694    0.697089    0.000000
   250  O2    s     0.676808    0.616776    0.870206    0.000000
   251  O3    s     0.948445    0.328315    0.529020    0.000000
   252  O2    s     0.389661    0.049401    0.199694    0.000000
   253  O2    s     0.778718    0.307128    0.017123    0.000000
   254  O2    s     0.694866    0.469153    0.347739    0.000000
   255  O2    s     0.541805    0.212565    0.680320    0.000000
   256  O2    s     0.224957    0.683397    0.514505    0.000000
   257  O2    s     0.328997    0.525820    0.849672    0.000000
   258  O2    s     0.478900    0.788387    0.180060    0.000000
   259  O2    s     0.320983    0.783805    0.318864    0.000000
   260  O2    s     0.471188    0.691560    0.986722    0.000000
   261  O2    s     0.230954    0.525290    0.653274    0.000000
   262  O2    s     0.697630    0.212501    0.818437    0.000000
   263  O2    s     0.534213    0.317184    0.486530    0.000000
   264  O2    s     0.790587    0.478949    0.153814    0.000000
   265  O2    s     0.794168    0.529474    0.029966    0.000000
   266  O2    s     0.473210    0.261780    0.365657    0.000000
   267  O2    s     0.750170    0.199486    0.696152    0.000000
   268  O3    s     0.232237    0.473717    0.526316    0.000000
   269  O2    s     0.543127    0.728132    0.870156    0.000000
   270  O2    s     0.271264    0.802063    0.197465    0.000000
   271  O2    s     0.542770    0.795737    0.302136    0.000000
   272  O2    s     0.272586    0.470577    0.969261    0.000000
   273  O2    s     0.212553    0.726985    0.633996    0.000000
   274  O2    s     0.477993    0.201581    0.802083    0.000000
   275  O2    s     0.747649    0.538578    0.470108    0.000000
   276  O2    s     0.801300    0.269689    0.138359    0.000000
   277  O2    s     0.257502    0.328026    0.900349    0.000000
   278  O2    s     0.678173    0.916436    0.232585    0.000000
   279  O2    s     0.091660    0.744354    0.566231    0.000000
   280  O2    s     0.768826    0.672553    0.398874    0.000000
   281  O2    s     0.342405    0.082634    0.732296    0.000000
   282  O2    s     0.915389    0.244550    0.068386    0.000000
   283  O2    s     0.336277    0.250741    0.435145    0.000000
   284  O2    s     0.912842    0.672539    0.099954    0.000000
   285  O2    s     0.768325    0.082202    0.766436    0.000000
   286  O2    s     0.679865    0.752427    0.939796    0.000000
   287  O3    s     0.099920    0.316646    0.609222    0.000000
   288  O2    s     0.253462    0.918736    0.268437    0.000000
   289  O3    s     0.598431    0.576274    0.998895    0.000000
   290  O2    s     0.450653    0.029628    0.321725    0.000000
   291  O2    s     0.984553    0.411311    0.654421    0.000000
   292  O2    s     0.427116    0.453440    0.486715    0.000000
   293  O2    s     0.571228    0.964564    0.819238    0.000000
   294  O2    s     0.038372    0.599219    0.152566    0.000000
   295  O2    s     0.568111    0.588992    0.345764    0.000000
   296  O2    s     0.028023    0.438722    0.013647    0.000000
   297  O2    s     0.424208    0.965204    0.679137    0.000000
   298  O2    s     0.456794    0.409976    0.849719    0.000000
   299  O2    s     0.980337    0.551248    0.512770    0.000000
   300  O2    s     0.594638    0.035522    0.180665    0.000000
   301  O2    s     0.587902    0.163423    0.251956    0.000000
   302  O2    s     0.851912    0.417255    0.584476    0.000000
   303  O3    s     0.602672    0.412897    0.914346    0.000000
   304  O2    s     0.433402    0.834334    0.749073    0.000000
   305  O2    s     0.165348    0.582705    0.082489    0.000000
   306  O2    s     0.433113    0.587321    0.415132    0.000000
   307  F     s     0.463873    0.912299    0.250474    0.000000
   308  F     s     0.097320    0.493427    0.577276    0.000000
   309  F     s     0.487784    0.515327    0.931005    0.000000
   310  F     s     0.555854    0.082352    0.749156    0.000000
   311  F     s     0.919710    0.461127    0.084224    0.000000
   312  F     s     0.558588    0.461350    0.416804    0.000000
--------------------------------------------------------------------------------

  Final Cartesian lattice vectors (Angstroms) :

       11.985487    0.001853    0.002247
       -5.910098   10.347203   -0.009159
       -0.039919   -0.095427   29.526148


  Final cell parameters and derivatives :

--------------------------------------------------------------------------------
       a           11.985488 Angstrom     dE/de1(xx)     0.001675 eV/strain
       b           11.916122 Angstrom     dE/de2(yy)     0.001451 eV/strain
       c           29.526329 Angstrom     dE/de3(zz)     0.002307 eV/strain
       alpha       90.166413 Degrees      dE/de4(yz)    -0.000095 eV/strain
       beta        90.066748 Degrees      dE/de5(xz)    -0.000104 eV/strain
       gamma      119.725210 Degrees      dE/de6(xy)     0.000055 eV/strain
--------------------------------------------------------------------------------

  Primitive cell volume =          3662.037867 Angs**3

  Density of cell =      1.747140 g/cm**3

  Non-primitive cell volume =          3662.037867 Angs**3


  Final internal derivatives :

--------------------------------------------------------------------------------
   No.  Atomic          a             b             c           Radius
        Label          (eV)          (eV)          (eV)        (eV/Angs)
--------------------------------------------------------------------------------
      1 Si    c       0.000000      0.000000      0.000000      0.000000
      2 Si    c      -0.000083      0.000045      0.000379      0.000000
      3 Si    c      -0.000005     -0.000003     -0.000027      0.000000
      4 Si    c       0.000205     -0.000125      0.000267      0.000000
      5 Si    c       0.000073     -0.000056     -0.000228      0.000000
      6 Si    c      -0.000001     -0.000060      0.000417      0.000000
      7 Si    c      -0.000020      0.000037     -0.000110      0.000000
      8 Si    c       0.000320     -0.000260      0.000294      0.000000
      9 Si    c      -0.000068      0.000060     -0.000148      0.000000
     10 Si    c      -0.000024     -0.000029     -0.000155      0.000000
     11 Si    c       0.000208     -0.000080     -0.000169      0.000000
     12 Si    c       0.000178     -0.000025      0.000746      0.000000
     13 Ge    c      -0.000652      0.000663      0.000194      0.000000
     14 Si    c       0.000024     -0.000055      0.000220      0.000000
     15 Si    c       0.000037     -0.000041      0.000108      0.000000
     16 Si    c       0.000134      0.000108     -0.000418      0.000000
     17 Si    c       0.000052     -0.000024     -0.000065      0.000000
     18 Si    c       0.000002     -0.000003     -0.000053      0.000000
     19 Si    c      -0.000008      0.000052     -0.000088      0.000000
     20 Si    c      -0.000322     -0.000002     -0.000354      0.000000
     21 Si    c       0.000029     -0.000030     -0.000022      0.000000
     22 Si    c       0.000256     -0.000090     -0.001876      0.000000
     23 Si    c       0.000147     -0.000154      0.000063      0.000000
     24 Si    c       0.000020     -0.000015     -0.000108      0.000000
     25 Si    c       0.000022     -0.000138     -0.000887      0.000000
     26 Si    c       0.000138     -0.000001     -0.000098      0.000000
     27 Si    c      -0.000065      0.000123      0.000015      0.000000
     28 Si    c       0.000027      0.000086      0.000127      0.000000
     29 Si    c      -0.000081      0.000052     -0.000120      0.000000
     30 Si    c       0.000231     -0.000112     -0.000595      0.000000
     31 Si    c      -0.000108     -0.000130      0.000079      0.000000
     32 Si    c       0.000110      0.000290      0.000500      0.000000
     33 Si    c       0.000097     -0.000104      0.000152      0.000000
     34 Si    c       0.000096      0.000048      0.000645      0.000000
     35 Si    c      -0.000022     -0.000060      0.000154      0.000000
     36 Si    c      -0.000132      0.000062      0.000219      0.000000
     37 Si    c       0.000045     -0.000006      0.000205      0.000000
     38 Si    c       0.000126     -0.000044      0.000140      0.000000
     39 Si    c      -0.000038      0.000076      0.000108      0.000000
     40 Si    c      -0.000002      0.000158     -0.000161      0.000000
     41 Si    c      -0.000067      0.000061      0.000031      0.000000
     42 Si    c       0.000340     -0.000205      0.000205      0.000000
     43 Si    c      -0.000039     -0.000083     -0.000072      0.000000
     44 Si    c       0.000065     -0.000333     -0.000202      0.000000
     45 Si    c       0.000063     -0.000056     -0.000052      0.000000
     46 Si    c      -0.000006      0.000065     -0.000264      0.000000
     47 Ge    c      -0.000178      0.000127      0.000328      0.000000
     48 Si    c      -0.000145      0.000050      0.000031      0.000000
     49 Si    c      -0.000019      0.000397      0.001085      0.000000
     50 Si    c      -0.000072      0.000021      0.000296      0.000000
     51 Si    c      -0.000008      0.000046     -0.000339      0.000000
     52 Si    c      -0.000044      0.000140      0.000351      0.000000
     53 Si    c      -0.000014      0.000092      0.000310      0.000000
     54 Si    c      -0.000095     -0.000232      0.002122      0.000000
     55 Si    c      -0.000024     -0.000071      0.000408      0.000000
     56 Ge    c      -0.000302      0.000003      0.000418      0.000000
     57 Si    c      -0.000022      0.000083     -0.000311      0.000000
     58 Si    c       0.000084     -0.000123     -0.000540      0.000000
     59 Si    c       0.000117     -0.000138     -0.000380      0.000000
     60 Si    c      -0.000167      0.000102     -0.000405      0.000000
     61 O3    c       0.000263     -0.000365     -0.000972      0.000000
     62 O2    c       0.000013     -0.000017     -0.000026      0.000000
     63 O2    c       0.000019     -0.000001      0.000037      0.000000
     64 O2    c       0.000148     -0.000117     -0.000095      0.000000
     65 O2    c       0.000042      0.000010     -0.000032      0.000000
     66 O2    c      -0.000102     -0.000057     -0.000663      0.000000
     67 O2    c       0.000008     -0.000120      0.000125      0.000000
     68 O2    c       0.000096      0.000036      0.000219      0.000000
     69 O2    c      -0.000566      0.000383      0.000707      0.000000
     70 O2    c      -0.000023      0.000148      0.000236      0.000000
     71 O2    c      -0.000058      0.000076     -0.000027      0.000000
     72 O2    c      -0.000244      0.000064     -0.000261      0.000000
     73 O3    c      -0.000478      0.000165     -0.001408      0.000000
     74 O2    c       0.000023      0.000074     -0.000134      0.000000
     75 O2    c       0.000141     -0.000151     -0.000264      0.000000
     76 O2    c      -0.000156      0.000169      0.000176      0.000000
     77 O2    c       0.000077     -0.000201     -0.000325      0.000000
     78 O2    c      -0.000067      0.000011      0.000039      0.000000
     79 O2    c      -0.000123      0.000041      0.000127      0.000000
     80 O2    c       0.000022     -0.000027     -0.000013      0.000000
     81 O2    c      -0.000006      0.000025     -0.000032      0.000000
     82 O2    c      -0.000124      0.000061     -0.000071      0.000000
     83 O2    c       0.000019     -0.000026      0.000005      0.000000
     84 O2    c      -0.000036      0.000203      0.000225      0.000000
     85 O2    c       0.000001      0.000008      0.000040      0.000000
     86 O3    c       0.000265     -0.000329     -0.000002      0.000000
     87 O2    c      -0.000033      0.000018     -0.000010      0.000000
     88 O2    c       0.000047     -0.000017     -0.000033      0.000000
     89 O3    c      -0.000296      0.000233      0.000004      0.000000
     90 O2    c       0.000050     -0.000017     -0.000012      0.000000
     91 O2    c       0.000039      0.000033     -0.000280      0.000000
     92 O2    c       0.000145     -0.000202      0.001313      0.000000
     93 O2    c      -0.000335      0.000166     -0.000967      0.000000
     94 O2    c      -0.000004     -0.000032      0.000153      0.000000
     95 O3    c       0.000424     -0.000235     -0.003216      0.000000
     96 O2    c       0.000124      0.000053     -0.001244      0.000000
     97 O2    c      -0.000291      0.000224      0.000199      0.000000
     98 O2    c       0.000017      0.000014     -0.000053      0.000000
     99 O2    c      -0.000037      0.000002      0.000020      0.000000
    100 O2    c       0.000019     -0.000098     -0.000004      0.000000
    101 O2    c      -0.000008      0.000030      0.000092      0.000000
    102 O2    c      -0.000009     -0.000005     -0.000064      0.000000
    103 O2    c      -0.000031      0.000016     -0.000062      0.000000
    104 O3    c       0.000077     -0.000025      0.000120      0.000000
    105 O2    c       0.000004     -0.000030      0.000021      0.000000
    106 O2    c      -0.000010      0.000019     -0.000030      0.000000
    107 O2    c       0.000093      0.000093     -0.000120      0.000000
    108 O2    c       0.000003      0.000007     -0.000012      0.000000
    109 O2    c      -0.000025     -0.000037     -0.000183      0.000000
    110 O2    c       0.000060     -0.000030     -0.000316      0.000000
    111 O2    c      -0.000130      0.000157     -0.000449      0.000000
    112 O2    c      -0.000005      0.000049      0.000058      0.000000
    113 O2    c      -0.000182     -0.000085      0.002140      0.000000
    114 O2    c      -0.000007      0.000025      0.000172      0.000000
    115 O3    c       0.000019      0.000032      0.000055      0.000000
    116 O2    c      -0.000038      0.000072      0.000090      0.000000
    117 O2    c      -0.000027     -0.000018      0.000075      0.000000
    118 O2    c      -0.000063      0.000035     -0.000019      0.000000
    119 O2    c      -0.000010     -0.000033      0.000065      0.000000
    120 O2    c       0.000041     -0.000036     -0.000005      0.000000
    121 O2    c      -0.000058      0.000070     -0.000116      0.000000
    122 O2    c       0.000145     -0.000117     -0.000075      0.000000
    123 O2    c      -0.000027     -0.000018     -0.000043      0.000000
    124 O2    c       0.000027     -0.000020     -0.000195      0.000000
    125 O3    c      -0.000033     -0.000030      0.000019      0.000000
    126 O2    c      -0.000012      0.000051     -0.000045      0.000000
    127 O2    c      -0.000623      0.000269     -0.000142      0.000000
    128 O2    c       0.000055     -0.000040     -0.000119      0.000000
    129 O2    c       0.000020      0.000043     -0.000031      0.000000
    130 O2    c      -0.000108      0.000137     -0.000067      0.000000
    131 O2    c      -0.000199      0.000399     -0.000092      0.000000
    132 O2    c       0.000012     -0.000112     -0.000188      0.000000
    133 O2    c       0.000053     -0.000154      0.000038      0.000000
    134 O2    c      -0.000402      0.000176     -0.000241      0.000000
    135 O2    c       0.000061      0.000009      0.000073      0.000000
    136 O2    c      -0.000013      0.000077      0.000089      0.000000
    137 O2    c      -0.000039     -0.000046      0.000094      0.000000
    138 O2    c      -0.000182     -0.000088      0.000352      0.000000
    139 O2    c      -0.000182     -0.000118     -0.000132      0.000000
    140 O2    c       0.000092     -0.000060     -0.000099      0.000000
    141 O2    c      -0.000012      0.000071     -0.000129      0.000000
    142 O3    c       0.000245     -0.000053     -0.000715      0.000000
    143 O2    c      -0.000027      0.000057     -0.000148      0.000000
    144 O2    c      -0.000086     -0.000025     -0.000152      0.000000
    145 O2    c      -0.000041     -0.000081      0.000153      0.000000
    146 O2    c      -0.000060      0.000016      0.000113      0.000000
    147 O2    c       0.000122     -0.000068      0.000087      0.000000
    148 O2    c      -0.000004      0.000051      0.000061      0.000000
    149 O2    c       0.000099     -0.000138      0.000299      0.000000
    150 O2    c      -0.000140     -0.000020      0.000470      0.000000
    151 O2    c      -0.000160     -0.000140      0.001142      0.000000
    152 O2    c       0.000068     -0.000046     -0.000102      0.000000
    153 O2    c      -0.000006      0.000020     -0.000320      0.000000
    154 O2    c      -0.000017     -0.000014     -0.000137      0.000000
    155 O2    c      -0.000054      0.000024     -0.000044      0.000000
    156 O2    c       0.000120     -0.000217      0.000205      0.000000
    157 O2    c      -0.000027      0.000013      0.000322      0.000000
    158 O2    c      -0.000059      0.000193     -0.000466      0.000000
    159 O2    c       0.000027     -0.000002      0.000124      0.000000
    160 O2    c       0.000199     -0.000023     -0.000575      0.000000
    161 O3    c       0.000112     -0.000054      0.000173      0.000000
    162 O2    c      -0.000095      0.000039     -0.000096      0.000000
    163 O3    c       0.000068     -0.000324      0.000184      0.000000
    164 O2    c       0.000094      0.000049      0.000081      0.000000
    165 O2    c      -0.000033      0.000031     -0.000005      0.000000
    166 O2    c      -0.000027      0.000053      0.000095      0.000000
    167 O2    c      -0.000004     -0.000017      0.000064      0.000000
    168 O2    c       0.000113     -0.000005      0.000090      0.000000
    169 O2    c      -0.000079      0.000034     -0.000063      0.000000
    170 O2    c       0.000060      0.000150     -0.000003      0.000000
    171 O2    c       0.000022     -0.000056     -0.000083      0.000000
    172 O2    c       0.000198     -0.000072     -0.000203      0.000000
    173 O2    c      -0.000009     -0.000041     -0.000030      0.000000
    174 O2    c      -0.000005      0.000029     -0.000117      0.000000
    175 O2    c      -0.000012      0.000091     -0.000022      0.000000
    176 O2    c      -0.000020      0.000002      0.000047      0.000000
    177 O3    c       0.000988     -0.000945      0.000346      0.000000
    178 O2    c      -0.000015     -0.000009      0.000121      0.000000
    179 O2    c       0.000187     -0.000085      0.000473      0.000000
    180 O2    c       0.000005      0.000010      0.000244      0.000000
    181 F     c      -0.000010     -0.000018      0.000034      0.000000
    182 F     c       0.000022     -0.000076     -0.000076      0.000000
    183 F     c      -0.000133      0.000062      0.000699      0.000000
    184 F     c      -0.000002      0.000007     -0.000045      0.000000
    185 F     c      -0.000041     -0.000054     -0.000362      0.000000
    186 F     c       0.000030     -0.000059     -0.000148      0.000000
    187 O3    s       0.000111     -0.000047      0.000756      0.000000
    188 O2    s       0.000003      0.000019      0.000196      0.000000
    189 O2    s       0.000014     -0.000031     -0.000229      0.000000
    190 O2    s       0.000122     -0.000097     -0.000011      0.000000
    191 O2    s       0.000046     -0.000104      0.000104      0.000000
    192 O2    s       0.000153     -0.000093      0.000395      0.000000
    193 O2    s      -0.000035     -0.000024      0.000094      0.000000
    194 O2    s       0.000016     -0.000008      0.000006      0.000000
    195 O2    s       0.000053      0.000124     -0.000092      0.000000
    196 O2    s       0.000001      0.000006      0.000002      0.000000
    197 O2    s      -0.000052      0.000023      0.000074      0.000000
    198 O2    s       0.000090     -0.000042      0.000144      0.000000
    199 O3    s       0.000026     -0.000097      0.000997      0.000000
    200 O2    s      -0.000057      0.000065     -0.000053      0.000000
    201 O2    s       0.000024     -0.000003     -0.000035      0.000000
    202 O2    s       0.000083     -0.000138     -0.000300      0.000000
    203 O2    s       0.000037     -0.000011     -0.000014      0.000000
    204 O2    s      -0.000079      0.000068     -0.000198      0.000000
    205 O2    s       0.000160     -0.000102      0.000257      0.000000
    206 O2    s       0.000034      0.000011      0.000153      0.000000
    207 O2    s      -0.000032      0.000101      0.000132      0.000000
    208 O2    s      -0.000076      0.000055      0.000237      0.000000
    209 O2    s       0.000009     -0.000040      0.000145      0.000000
    210 O2    s       0.000222     -0.000057      0.000416      0.000000
    211 O2    s      -0.000008     -0.000075     -0.000149      0.000000
    212 O3    s      -0.000073      0.000198     -0.000656      0.000000
    213 O2    s       0.000027     -0.000044     -0.000148      0.000000
    214 O2    s       0.000096     -0.000069     -0.000113      0.000000
    215 O3    s      -0.000113     -0.000054     -0.000163      0.000000
    216 O2    s      -0.000050      0.000102     -0.000212      0.000000
    217 O2    s      -0.000041     -0.000011      0.000019      0.000000
    218 O2    s      -0.000028     -0.000043     -0.000171      0.000000
    219 O2    s       0.000141     -0.000094     -0.000219      0.000000
    220 O2    s      -0.000042      0.000026     -0.000072      0.000000
    221 O3    s      -0.000251      0.000374      0.001619      0.000000
    222 O2    s      -0.000019      0.000065      0.000263      0.000000
    223 O2    s      -0.000109      0.000114     -0.000385      0.000000
    224 O2    s       0.000022     -0.000054     -0.000060      0.000000
    225 O2    s      -0.000036      0.000009     -0.000236      0.000000
    226 O2    s       0.000035     -0.000018      0.000111      0.000000
    227 O2    s      -0.000029     -0.000068     -0.000474      0.000000
    228 O2    s      -0.000048     -0.000157     -0.000048      0.000000
    229 O2    s      -0.000050      0.000046      0.000344      0.000000
    230 O3    s      -0.000168      0.000186      0.000113      0.000000
    231 O2    s       0.000011      0.000037      0.000017      0.000000
    232 O2    s      -0.000086      0.000048     -0.000199      0.000000
    233 O2    s       0.000043      0.000008     -0.000116      0.000000
    234 O2    s      -0.000053      0.000085      0.000373      0.000000
    235 O2    s       0.000007     -0.000109      0.000044      0.000000
    236 O2    s      -0.000005     -0.000037     -0.000057      0.000000
    237 O2    s      -0.000082      0.000128     -0.000260      0.000000
    238 O2    s      -0.000003      0.000049     -0.000077      0.000000
    239 O2    s       0.000139     -0.000037     -0.000662      0.000000
    240 O2    s       0.000111     -0.000069      0.000188      0.000000
    241 O3    s       0.000123     -0.000289      0.000110      0.000000
    242 O2    s       0.000039      0.000033      0.000072      0.000000
    243 O2    s      -0.000067      0.000032      0.000037      0.000000
    244 O2    s      -0.000020      0.000075      0.000309      0.000000
    245 O2    s      -0.000033      0.000029      0.000052      0.000000
    246 O2    s       0.000016     -0.000082      0.000386      0.000000
    247 O2    s      -0.000018      0.000005     -0.000006      0.000000
    248 O2    s       0.000126      0.000253     -0.000744      0.000000
    249 O2    s       0.000019     -0.000034     -0.000070      0.000000
    250 O2    s       0.000058     -0.000148      0.000369      0.000000
    251 O3    s       0.000081     -0.000049     -0.000194      0.000000
    252 O2    s      -0.000016     -0.000009     -0.000129      0.000000
    253 O2    s       0.000198     -0.000159      0.000221      0.000000
    254 O2    s       0.000009      0.000034     -0.000198      0.000000
    255 O2    s      -0.000037      0.000015     -0.000141      0.000000
    256 O2    s       0.000026     -0.000080     -0.000056      0.000000
    257 O2    s      -0.000097      0.000076     -0.000503      0.000000
    258 O2    s      -0.000003      0.000057     -0.000110      0.000000
    259 O2    s      -0.000066      0.000015      0.000327      0.000000
    260 O2    s       0.000064      0.000135      0.000529      0.000000
    261 O2    s      -0.000013     -0.000030      0.000112      0.000000
    262 O2    s       0.000005     -0.000034      0.000081      0.000000
    263 O2    s      -0.000024      0.000080      0.000028      0.000000
    264 O2    s      -0.000022     -0.000082      0.000086      0.000000
    265 O2    s      -0.000011     -0.000012      0.000265      0.000000
    266 O2    s      -0.000085     -0.000000     -0.000089      0.000000
    267 O2    s       0.000032     -0.000038     -0.000008      0.000000
    268 O3    s      -0.000194      0.000069      0.000635      0.000000
    269 O2    s       0.000041     -0.000001     -0.000086      0.000000
    270 O2    s       0.000041      0.000084      0.000000      0.000000
    271 O2    s       0.000075     -0.000040      0.000082      0.000000
    272 O2    s       0.000034     -0.000150     -0.000032      0.000000
    273 O2    s      -0.000026      0.000054      0.000060      0.000000
    274 O2    s      -0.000017     -0.000034      0.000052      0.000000
    275 O2    s      -0.000069      0.000012     -0.000225      0.000000
    276 O2    s      -0.000095      0.000144     -0.000245      0.000000
    277 O2    s       0.000016     -0.000089     -0.000031      0.000000
    278 O2    s      -0.000008      0.000035      0.000029      0.000000
    279 O2    s       0.000015     -0.000046     -0.000088      0.000000
    280 O2    s       0.000035      0.000010     -0.000037      0.000000
    281 O2    s       0.000011     -0.000007     -0.000009      0.000000
    282 O2    s       0.000093     -0.000116      0.000384      0.000000
    283 O2    s       0.000051      0.000009      0.000049      0.000000
    284 O2    s      -0.000063      0.000136      0.000510      0.000000
    285 O2    s       0.000009     -0.000016     -0.000038      0.000000
    286 O2    s       0.000028      0.000053     -0.000055      0.000000
    287 O3    s      -0.000109     -0.000001     -0.000246      0.000000
    288 O2    s      -0.000010      0.000047     -0.000016      0.000000
    289 O3    s       0.000246     -0.000210      0.000782      0.000000
    290 O2    s      -0.000028      0.000066      0.000175      0.000000
    291 O2    s      -0.000002     -0.000021      0.000106      0.000000
    292 O2    s      -0.000009      0.000031      0.000040      0.000000
    293 O2    s       0.000001      0.000017      0.000034      0.000000
    294 O2    s       0.000045     -0.000042      0.000397      0.000000
    295 O2    s       0.000002      0.000005     -0.000020      0.000000
    296 O2    s       0.000161     -0.000068     -0.000794      0.000000
    297 O2    s      -0.000009     -0.000001     -0.000039      0.000000
    298 O2    s       0.000305     -0.000194      0.000118      0.000000
    299 O2    s      -0.000037      0.000053     -0.000075      0.000000
    300 O2    s      -0.000030      0.000033     -0.000059      0.000000
    301 O2    s       0.000025     -0.000009      0.000038      0.000000
    302 O2    s      -0.000060      0.000023     -0.000006      0.000000
    303 O3    s      -0.000976      0.000913      0.000052      0.000000
    304 O2    s       0.000012     -0.000037     -0.000157      0.000000
    305 O2    s       0.000085      0.000093     -0.000478      0.000000
    306 O2    s      -0.000062      0.000047     -0.000106      0.000000
    307 F     s       0.000007      0.000059     -0.000114      0.000000
    308 F     s       0.000040     -0.000050     -0.000094      0.000000
    309 F     s       0.000534     -0.000549     -0.000418      0.000000
    310 F     s      -0.000008     -0.000002      0.000066      0.000000
    311 F     s       0.000008      0.000053      0.000871      0.000000
    312 F     s      -0.000076      0.000102      0.000327      0.000000
--------------------------------------------------------------------------------
  Maximum abs         0.000988      0.000945      0.003216      0.000000
--------------------------------------------------------------------------------


  Time to end of optimisation =      12.0064 seconds


  Peak dynamic memory used =      19.13 MB 


  Timing analysis for GULP :

--------------------------------------------------------------------------------
  Task / Subroutine                                          Time (Seconds)
--------------------------------------------------------------------------------
  Calculation of reciprocal space energy and derivatives          0.4664
  Calculation of real space energy and derivatives                9.9517
  Calculation of three-body energy and derivatives                1.1203
  Calculation of matrix inversion                                 0.4065
--------------------------------------------------------------------------------
  Total CPU time                                                 12.0064
--------------------------------------------------------------------------------


  Dump file written as out.res                                                 
  CIF file written as out.cif                                                 


  Job Finished at 18:50.18 27th November   2016                               

