********************************************************************************
*                       GENERAL UTILITY LATTICE PROGRAM                        *
*                                 Julian Gale                                  *
*                      Nanochemistry Research Institute                        *
*                           Department of Chemistry                            *
*                    Curtin University, Western Australia                      *
********************************************************************************
* Version = 4.2.0 * Last modified =  20th January 2014                         *
********************************************************************************
*  optimise     - perform optimisation run                                     *
*  conp         - constant pressure calculation                                *
*  qok          - running with non charge neutral cell is OK                   *
********************************************************************************

  Job Started  at 07:42.13 27th November   2016                               

  Number of CPUs =     1


  Total number of configurations input =   1

********************************************************************************
*  Input for Configuration =   1                                               *
********************************************************************************

  Formula = Si57Ge3O120F6                                               

  Number of irreducible atoms/shells =     312


  Total number atoms/shells =     312

  Dimensionality = 3               :  Bulk   


  Charge on solid   =  -6.000000 =>neutralising background added


  Cartesian lattice vectors (Angstroms) :

       11.965525    0.000000    0.000000
       -6.006337   10.403908    0.000000
        0.087313   -0.179343   29.389634

  Cell parameters (Angstroms/Degrees):

  a =      11.9655    alpha =  90.3879
  b =      12.0132    beta  =  89.8298
  c =      29.3903    gamma = 119.9985

  Initial cell volume =        3658.663214 Angs**3

  Temperature of configuration =  0.000     K 

  Pressure of configuration =         0.000 GPa 

  Fractional coordinates of asymmetric unit :

--------------------------------------------------------------------------------
   No.  Atomic       x           y          z         Charge      Occupancy
        Label      (Frac)      (Frac)     (Frac)        (e)         (Frac)  
--------------------------------------------------------------------------------
      1 Si    c    0.699600    0.375700    0.033890     4.00000    1.000000    
      2 Si    c    0.620235 *  0.322618 *  0.366492 *   4.00000    1.000000    
      3 Si    c    0.678895 *  0.294979 *  0.700023 *   4.00000    1.000000    
      4 Si    c    0.299558 *  0.624449 *  0.534174 *   4.00000    1.000000    
      5 Si    c    0.374925 *  0.681674 *  0.865664 *   4.00000    1.000000    
      6 Si    c    0.319756 *  0.692944 *  0.198241 *   4.00000    1.000000    
      7 Si    c    0.382204 *  0.698549 *  0.300720 *   4.00000    1.000000    
      8 Si    c    0.319187 *  0.618168 *  0.968090 *   4.00000    1.000000    
      9 Si    c    0.298292 *  0.674726 *  0.635662 *   4.00000    1.000000    
     10 Si    c    0.629085 *  0.299195 *  0.801034 *   4.00000    1.000000    
     11 Si    c    0.678431 *  0.379698 *  0.466953 *   4.00000    1.000000    
     12 Si    c    0.698514 *  0.327728 *  0.134747 *   4.00000    1.000000    
     13 Si    c    0.528735 *  0.412417 *  0.967321 *   4.00000    1.000000    
     14 Si    c    0.589297 *  0.114993 *  0.300347 *   4.00000    1.000000    
     15 Si    c    0.887764 *  0.468236 *  0.635041 *   4.00000    1.000000    
     16 Si    c    0.469835 *  0.584079 *  0.468521 *   4.00000    1.000000    
     17 Si    c    0.419026 *  0.895243 *  0.802330 *   4.00000    1.000000    
     18 Si    c    0.103254 *  0.524546 *  0.135201 *   4.00000    1.000000    
     19 Si    c    0.417339 *  0.527318 *  0.366740 *   4.00000    1.000000    
     20 Si    c    0.109432 *  0.579750 *  0.033943 *   4.00000    1.000000    
     21 Si    c    0.469364 *  0.886287 *  0.700934 *   4.00000    1.000000    
     22 Si    c    0.589617 *  0.469512 *  0.864150 *   4.00000    1.000000    
     23 Si    c    0.887118 *  0.420569 *  0.533039 *   4.00000    1.000000    
     24 Si    c    0.531148 *  0.118650 *  0.197449 *   4.00000    1.000000    
     25 Ge    c    0.316498 *  0.412203 *  0.858217 *   4.00000    1.000000    
     26 Ge    c    0.589669 *  0.904369 *  0.191061 *   4.00000    1.000000    
     27 Si    c    0.097175 *  0.699650 *  0.520650 *   4.00000    1.000000    
     28 Si    c    0.697447 *  0.599710 *  0.351103 *   4.00000    1.000000    
     29 Si    c    0.399775 *  0.095521 *  0.686283 *   4.00000    1.000000    
     30 Si    c    0.901104 *  0.299107 *  0.019817 *   4.00000    1.000000    
     31 Si    c    0.401220 *  0.305053 *  0.483739 *   4.00000    1.000000    
     32 Si    c    0.901014 *  0.604608 *  0.149245 *   4.00000    1.000000    
     33 Si    c    0.702239 *  0.096533 *  0.816520 *   4.00000    1.000000    
     34 Si    c    0.601218 *  0.696859 *  0.982979 *   4.00000    1.000000    
     35 Si    c    0.096921 *  0.395003 *  0.648862 *   4.00000    1.000000    
     36 Si    c    0.304535 *  0.901885 *  0.315490 *   4.00000    1.000000    
     37 Si    c    0.244426 *  0.330929 *  0.954244 *   4.00000    1.000000    
     38 Si    c    0.670036 *  0.912676 *  0.287229 *   4.00000    1.000000    
     39 Si    c    0.089071 *  0.747195 *  0.621845 *   4.00000    1.000000    
     40 Si    c    0.747879 *  0.658707 *  0.451992 *   4.00000    1.000000    
     41 Si    c    0.343561 *  0.096807 *  0.787225 *   4.00000    1.000000    
     42 Si    c    0.902275 *  0.246374 *  0.120890 *   4.00000    1.000000    
     43 Si    c    0.339707 *  0.250332 *  0.383149 *   4.00000    1.000000    
     44 Si    c    0.908431 *  0.657813 *  0.048322 *   4.00000    1.000000    
     45 Si    c    0.749123 *  0.086056 *  0.715413 *   4.00000    1.000000    
     46 Si    c    0.660922 *  0.749656 *  0.880838 *   4.00000    1.000000    
     47 Si    c    0.089287 *  0.345154 *  0.547122 *   4.00000    1.000000    
     48 Si    c    0.250387 *  0.909165 *  0.213612 *   4.00000    1.000000    
     49 Si    c    0.968278 *  0.117905 *  0.970231 *   4.00000    1.000000    
     50 Si    c    0.881078 *  0.847465 *  0.302525 *   4.00000    1.000000    
     51 Si    c    0.149153 *  0.024961 *  0.637719 *   4.00000    1.000000    
     52 Si    c    0.027772 *  0.874976 *  0.468202 *   4.00000    1.000000    
     53 Si    c    0.127055 *  0.162737 *  0.804175 *   4.00000    1.000000    
     54 Si    c    0.839339 *  0.966087 *  0.136905 *   4.00000    1.000000    
     55 Si    c    0.125170 *  0.969245 *  0.367501 *   4.00000    1.000000    
     56 Si    c    0.847234 *  0.875831 *  0.035377 *   4.00000    1.000000    
     57 Si    c    0.029872 *  0.150490 *  0.702436 *   4.00000    1.000000    
     58 Si    c    0.881956 *  0.029904 *  0.867876 *   4.00000    1.000000    
     59 Ge    c    0.150037 *  0.123307 *  0.534695 *   4.00000    1.000000    
     60 Si    c    0.969740 *  0.851824 *  0.200300 *   4.00000    1.000000    
     61 O2    c    0.923666 *  0.995652 *  0.002192 *   0.87073    1.000000    
     62 O2    c    0.005353 *  0.924855 *  0.334117 *   0.87073    1.000000    
     63 O2    c    0.072852 *  0.067381 *  0.671910 *   0.87073    1.000000    
     64 O3    c    0.062294 *  0.995945 *  0.498888 *   1.33043    1.000000    
     65 O2    c    0.003987 *  0.071723 *  0.835879 *   0.87073    1.000000    
     66 O2    c    0.930254 *  0.933398 *  0.168388 *   0.87073    1.000000    
     67 O2    c    0.342142 *  0.576972 *  0.333739 *   0.87073    1.000000    
     68 O2    c    0.420305 *  0.759350 *  0.668835 *   0.87073    1.000000    
     69 O2    c    0.235886 *  0.656182 *  0.001700 *   0.87073    1.000000    
     70 O2    c    0.674280 *  0.423953 *  0.833999 *   0.87073    1.000000    
     71 O2    c    0.574857 *  0.248418 *  0.167928 *   0.87073    1.000000    
     72 O2    c    0.763116 *  0.342903 *  0.499840 *   0.87073    1.000000    
     73 O2    c    0.578284 *  0.338402 *  0.000200 *   0.87073    1.000000    
     74 O2    c    0.762317 *  0.417785 *  0.667478 *   0.87073    1.000000    
     75 O2    c    0.659989 *  0.238941 *  0.333505 *   0.87073    1.000000    
     76 O2    c    0.422522 *  0.662349 *  0.500982 *   0.87073    1.000000    
     77 O2    c    0.224352 *  0.566602 *  0.169134 *   0.87073    1.000000    
     78 O2    c    0.342124 *  0.775644 *  0.836762 *   0.87073    1.000000    
     79 O2    c    0.121508 *  0.209971 *  0.978741 *   0.87073    1.000000    
     80 O2    c    0.790473 *  0.909693 *  0.311894 *   0.87073    1.000000    
     81 O2    c    0.088033 *  0.871233 *  0.643289 *   0.87073    1.000000    
     82 O2    c    0.873510 *  0.783255 *  0.472333 *   0.87073    1.000000    
     83 O2    c    0.220593 *  0.100366 *  0.807880 *   0.87073    1.000000    
     84 O2    c    0.900187 *  0.121472 *  0.141638 *   0.87073    1.000000    
     85 O2    c    0.213425 *  0.123339 *  0.363230 *   0.87073    1.000000    
     86 O2    c    0.909035 *  0.783940 *  0.028379 *   0.87073    1.000000    
     87 O2    c    0.875640 *  0.086345 *  0.695268 *   0.87073    1.000000    
     88 O2    c    0.787800 *  0.875685 *  0.862047 *   0.87073    1.000000    
     89 O3    c    0.085866 *  0.221161 *  0.525377 *   1.33043    1.000000    
     90 O2    c    0.124195 *  0.910082 *  0.194836 *   0.87073    1.000000    
     91 O2    c    0.933071 *  0.864556 *  0.251618 *   0.87073    1.000000    
     92 O3    c    0.126565 *  0.060893 *  0.588007 *   1.33043    1.000000    
     93 O2    c    0.930891 *  0.065808 *  0.919292 *   0.87073    1.000000    
     94 O2    c    0.068300 *  0.144309 *  0.753521 *   0.87073    1.000000    
     95 O2    c    0.859814 *  0.928639 *  0.085791 *   0.87073    1.000000    
     96 O2    c    0.071435 *  0.924155 *  0.417328 *   0.87073    1.000000    
     97 O2    c    0.898375 *  0.200407 *  0.981334 *   0.87073    1.000000    
     98 O2    c    0.797430 *  0.695055 *  0.312878 *   0.87073    1.000000    
     99 O2    c    0.302615 *  0.095292 *  0.647458 *   0.87073    1.000000    
    100 O2    c    0.100432 *  0.797862 *  0.482297 *   0.87073    1.000000    
    101 O3    c    0.203089 *  0.308452 *  0.816180 *   1.33043    1.000000    
    102 O3    c    0.693195 *  0.895347 *  0.148635 *   1.33043    1.000000    
    103 O2    c    0.210891 *  0.903455 *  0.354701 *   0.87073    1.000000    
    104 O2    c    0.695202 *  0.791760 *  0.022221 *   0.87073    1.000000    
    105 O2    c    0.099138 *  0.299552 *  0.687018 *   0.87073    1.000000    
    106 O2    c    0.798978 *  0.098162 *  0.855498 *   0.87073    1.000000    
    107 O3    c    0.312894 *  0.210560 *  0.523342 *   1.33043    1.000000    
    108 O2    c    0.898965 *  0.700672 *  0.187897 *   0.87073    1.000000    
    109 O2    c    0.326891 *  0.645977 *  0.250075 *   0.87073    1.000000    
    110 O2    c    0.356361 *  0.678629 *  0.584891 *   0.87073    1.000000    
    111 O2    c    0.321060 *  0.674108 *  0.917844 *   0.87073    1.000000    
    112 O2    c    0.682492 *  0.354039 *  0.750330 *   0.87073    1.000000    
    113 O2    c    0.640741 *  0.321638 *  0.084001 *   0.87073    1.000000    
    114 O2    c    0.679704 *  0.323622 *  0.416353 *   0.87073    1.000000    
    115 O2    c    0.372823 *  0.326678 *  0.970316 *   0.87073    1.000000    
    116 O2    c    0.675759 *  0.045817 *  0.303582 *   0.87073    1.000000    
    117 O2    c    0.956342 *  0.623806 *  0.639067 *   0.87073    1.000000    
    118 O2    c    0.626223 *  0.670296 *  0.470372 *   0.87073    1.000000    
    119 O2    c    0.332169 *  0.963890 *  0.805080 *   0.87073    1.000000    
    120 O2    c    0.035535 *  0.369634 *  0.138189 *   0.87073    1.000000    
    121 O2    c    0.329539 *  0.371281 *  0.363662 *   0.87073    1.000000    
    122 O2    c    0.040611 *  0.666705 *  0.029756 *   0.87073    1.000000    
    123 O2    c    0.625789 *  0.953830 *  0.697185 *   0.87073    1.000000    
    124 O2    c    0.670575 *  0.626648 *  0.863459 *   0.87073    1.000000    
    125 O2    c    0.956424 *  0.334755 *  0.529343 *   0.87073    1.000000    
    126 O2    c    0.373521 *  0.042305 *  0.196920 *   0.87073    1.000000    
    127 O2    c    0.768530 *  0.301703 *  0.011681 *   0.87073    1.000000    
    128 O2    c    0.693566 *  0.464114 *  0.343413 *   0.87073    1.000000    
    129 O2    c    0.535210 *  0.226988 *  0.677734 *   0.87073    1.000000    
    130 O2    c    0.231231 *  0.699621 *  0.512442 *   0.87073    1.000000    
    131 O3    c    0.300023 *  0.545345 *  0.841557 *   1.33043    1.000000    
    132 O3    c    0.456297 *  0.754194 *  0.174160 *   1.33043    1.000000    
    133 O2    c    0.308378 *  0.770468 *  0.321013 *   0.87073    1.000000    
    134 O2    c    0.464795 *  0.692172 *  0.988376 *   0.87073    1.000000    
    135 O2    c    0.229926 *  0.530397 *  0.656389 *   0.87073    1.000000    
    136 O2    c    0.703489 *  0.230787 *  0.823121 *   0.87073    1.000000    
    137 O2    c    0.535629 *  0.305038 *  0.489030 *   0.87073    1.000000    
    138 O2    c    0.766257 *  0.471760 *  0.156105 *   0.87073    1.000000    
    139 O2    c    0.780783 *  0.532107 *  0.029345 *   0.87073    1.000000    
    140 O2    c    0.463461 *  0.245371 *  0.363288 *   0.87073    1.000000    
    141 O2    c    0.751967 *  0.212323 *  0.695388 *   0.87073    1.000000    
    142 O2    c    0.217581 *  0.469470 *  0.528160 *   0.87073    1.000000    
    143 O2    c    0.532230 *  0.745821 *  0.862935 *   0.87073    1.000000    
    144 O2    c    0.255516 *  0.785591 *  0.195323 *   0.87073    1.000000    
    145 O2    c    0.537244 *  0.787750 *  0.304472 *   0.87073    1.000000    
    146 O2    c    0.252353 *  0.463680 *  0.971727 *   0.87073    1.000000    
    147 O2    c    0.214865 *  0.746768 *  0.640876 *   0.87073    1.000000    
    148 O2    c    0.473340 *  0.219396 *  0.806366 *   0.87073    1.000000    
    149 O2    c    0.749719 *  0.534690 *  0.471356 *   0.87073    1.000000    
    150 O2    c    0.779737 *  0.253746 *  0.140234 *   0.87073    1.000000    
    151 O3    c    0.215478 *  0.304628 *  0.901630 *   1.33043    1.000000    
    152 O3    c    0.697063 *  0.910633 *  0.234588 *   1.33043    1.000000    
    153 O2    c    0.093266 *  0.769914 *  0.567394 *   0.87073    1.000000    
    154 O2    c    0.767256 *  0.674610 *  0.397567 *   0.87073    1.000000    
    155 O2    c    0.326835 *  0.096363 *  0.732561 *   0.87073    1.000000    
    156 O2    c    0.901178 *  0.228247 *  0.066313 *   0.87073    1.000000    
    157 O2    c    0.321046 *  0.232811 *  0.437745 *   0.87073    1.000000    
    158 O2    c    0.908546 *  0.678923 *  0.102685 *   0.87073    1.000000    
    159 O2    c    0.769706 *  0.088700 *  0.769814 *   0.87073    1.000000    
    160 O2    c    0.670136 *  0.761152 *  0.935609 *   0.87073    1.000000    
    161 O2    c    0.094212 *  0.323836 *  0.601456 *   0.87073    1.000000    
    162 O2    c    0.238753 *  0.905620 *  0.268342 *   0.87073    1.000000    
    163 O2    c    0.580212 *  0.554758 *  0.988231 *   0.87073    1.000000    
    164 O2    c    0.446908 *  0.023039 *  0.320889 *   0.87073    1.000000    
    165 O2    c    0.971337 *  0.409376 *  0.656901 *   0.87073    1.000000    
    166 O2    c    0.415106 *  0.444462 *  0.491853 *   0.87073    1.000000    
    167 O2    c    0.561122 *  0.974289 *  0.825356 *   0.87073    1.000000    
    168 O2    c    0.024461 *  0.587710 *  0.158557 *   0.87073    1.000000    
    169 O2    c    0.557879 *  0.586243 *  0.342657 *   0.87073    1.000000    
    170 O2    c    0.027685 *  0.437731 *  0.011143 *   0.87073    1.000000    
    171 O2    c    0.411052 *  0.968572 *  0.677567 *   0.87073    1.000000    
    172 O3    c    0.454614 *  0.408980 *  0.838453 *   1.33043    1.000000    
    173 O2    c    0.969970 *  0.562452 *  0.510836 *   0.87073    1.000000    
    174 O3    c    0.591614 *  0.044450 *  0.171485 *   1.33043    1.000000    
    175 O2    c    0.585583 *  0.163649 *  0.249425 *   0.87073    1.000000    
    176 O2    c    0.832591 *  0.417829 *  0.583958 *   0.87073    1.000000    
    177 O2    c    0.581835 *  0.417020 *  0.916181 *   0.87073    1.000000    
    178 O2    c    0.416336 *  0.835537 *  0.752047 *   0.87073    1.000000    
    179 O2    c    0.162108 *  0.581451 *  0.085068 *   0.87073    1.000000    
    180 O2    c    0.415797 *  0.581552 *  0.417433 *   0.87073    1.000000    
    181 F     c    0.483387 *  0.906208 *  0.239562 *   0.56000    1.000000    
    182 F     c    0.094956 *  0.547925 *  0.583178 *   0.56000    1.000000    
    183 F     c    0.424849 *  0.518416 *  0.906666 *   0.56000    1.000000    
    184 F     c    0.549637 *  0.093835 *  0.750372 *   0.56000    1.000000    
    185 F     c    0.902895 *  0.454017 *  0.084143 *   0.56000    1.000000    
    186 F     c    0.544967 *  0.450140 *  0.415912 *   0.56000    1.000000    
    187 O2    s    0.920059 *  0.995897 *  0.002323 *  -2.87073    1.000000    
    188 O2    s    0.005031 *  0.921164 *  0.334372 *  -2.87073    1.000000    
    189 O2    s    0.076658 *  0.071890 *  0.671462 *  -2.87073    1.000000    
    190 O3    s    0.066119 *  0.993659 *  0.498607 *  -3.33043    1.000000    
    191 O2    s    0.002832 *  0.076415 *  0.836247 *  -2.87073    1.000000    
    192 O2    s    0.925337 *  0.927535 *  0.168754 *  -2.87073    1.000000    
    193 O2    s    0.353913 *  0.584644 *  0.333617 *  -2.87073    1.000000    
    194 O2    s    0.412612 *  0.763417 *  0.668643 *  -2.87073    1.000000    
    195 O2    s    0.231669 *  0.644384 *  0.001468 *  -2.87073    1.000000    
    196 O2    s    0.661289 *  0.416056 *  0.833727 *  -2.87073    1.000000    
    197 O2    s    0.582940 *  0.243414 *  0.167541 *  -2.87073    1.000000    
    198 O2    s    0.766977 *  0.354745 *  0.499788 *  -2.87073    1.000000    
    199 O2    s    0.585508 *  0.349942 *  0.000218 *  -2.87073    1.000000    
    200 O2    s    0.766783 *  0.410339 *  0.667455 *  -2.87073    1.000000    
    201 O2    s    0.648434 *  0.234395 *  0.333383 *  -2.87073    1.000000    
    202 O2    s    0.414990 *  0.650476 *  0.501004 *  -2.87073    1.000000    
    203 O2    s    0.221913 *  0.575740 *  0.168733 *  -2.87073    1.000000    
    204 O2    s    0.353584 *  0.778147 *  0.836274 *  -2.87073    1.000000    
    205 O2    s    0.117826 *  0.212483 *  0.975452 *  -2.87073    1.000000    
    206 O2    s    0.787846 *  0.903472 *  0.308502 *  -2.87073    1.000000    
    207 O2    s    0.094517 *  0.874310 *  0.640487 *  -2.87073    1.000000    
    208 O2    s    0.876523 *  0.779698 *  0.469744 *  -2.87073    1.000000    
    209 O2    s    0.224483 *  0.106234 *  0.805321 *  -2.87073    1.000000    
    210 O2    s    0.894360 *  0.119360 *  0.138993 *  -2.87073    1.000000    
    211 O2    s    0.216992 *  0.119962 *  0.365704 *  -2.87073    1.000000    
    212 O2    s    0.902462 *  0.780573 *  0.031124 *  -2.87073    1.000000    
    213 O2    s    0.878644 *  0.093013 *  0.698064 *  -2.87073    1.000000    
    214 O2    s    0.784007 *  0.878174 *  0.864621 *  -2.87073    1.000000    
    215 O3    s    0.091532 *  0.225449 *  0.528318 *  -3.33043    1.000000    
    216 O2    s    0.121697 *  0.903943 *  0.197375 *  -2.87073    1.000000    
    217 O2    s    0.931341 *  0.861213 *  0.251652 *  -2.87073    1.000000    
    218 O3    s    0.131049 *  0.062628 *  0.588578 *  -3.33043    1.000000    
    219 O2    s    0.929615 *  0.067622 *  0.919317 *  -2.87073    1.000000    
    220 O2    s    0.070036 *  0.146953 *  0.752928 *  -2.87073    1.000000    
    221 O2    s    0.856219 *  0.926445 *  0.085291 *  -2.87073    1.000000    
    222 O2    s    0.072880 *  0.923970 *  0.417165 *  -2.87073    1.000000    
    223 O2    s    0.905992 *  0.201894 *  0.984136 *  -2.87073    1.000000    
    224 O2    s    0.795971 *  0.701251 *  0.315687 *  -2.87073    1.000000    
    225 O2    s    0.296331 *  0.087962 *  0.650311 *  -2.87073    1.000000    
    226 O2    s    0.092375 *  0.796036 *  0.484737 *  -2.87073    1.000000    
    227 O3    s    0.202010 *  0.298818 *  0.817591 *  -3.33043    1.000000    
    228 O3    s    0.702924 *  0.903990 *  0.150113 *  -3.33043    1.000000    
    229 O2    s    0.212014 *  0.910179 *  0.351827 *  -2.87073    1.000000    
    230 O2    s    0.700756 *  0.790242 *  0.019384 *  -2.87073    1.000000    
    231 O2    s    0.091675 *  0.293985 *  0.684622 *  -2.87073    1.000000    
    232 O2    s    0.797798 *  0.090796 *  0.852809 *  -2.87073    1.000000    
    233 O3    s    0.308250 *  0.212680 *  0.520421 *  -3.33043    1.000000    
    234 O2    s    0.906713 *  0.706834 *  0.185227 *  -2.87073    1.000000    
    235 O2    s    0.332039 *  0.656066 *  0.250353 *  -2.87073    1.000000    
    236 O2    s    0.344737 *  0.672700 *  0.584814 *  -2.87073    1.000000    
    237 O2    s    0.326043 *  0.668960 *  0.918044 *  -2.87073    1.000000    
    238 O2    s    0.676617 *  0.342288 *  0.750357 *  -2.87073    1.000000    
    239 O2    s    0.652749 *  0.327890 *  0.083930 *  -2.87073    1.000000    
    240 O2    s    0.673475 *  0.329219 *  0.416370 *  -2.87073    1.000000    
    241 O2    s    0.376161 *  0.336032 *  0.968373 *  -2.87073    1.000000    
    242 O2    s    0.666216 *  0.039706 *  0.301603 *  -2.87073    1.000000    
    243 O2    s    0.963210 *  0.620723 *  0.636821 *  -2.87073    1.000000    
    244 O2    s    0.622802 *  0.660175 *  0.468248 *  -2.87073    1.000000    
    245 O2    s    0.342519 *  0.970515 *  0.802926 *  -2.87073    1.000000    
    246 O2    s    0.028639 *  0.372986 *  0.136046 *  -2.87073    1.000000    
    247 O2    s    0.339545 *  0.374697 *  0.365995 *  -2.87073    1.000000    
    248 O2    s    0.033894 *  0.656815 *  0.032114 *  -2.87073    1.000000    
    249 O2    s    0.622667 *  0.960692 *  0.699465 *  -2.87073    1.000000    
    250 O2    s    0.661487 *  0.623925 *  0.865361 *  -2.87073    1.000000    
    251 O2    s    0.963110 *  0.344976 *  0.531626 *  -2.87073    1.000000    
    252 O2    s    0.376374 *  0.035924 *  0.198747 *  -2.87073    1.000000    
    253 O2    s    0.775159 *  0.309221 *  0.014893 *  -2.87073    1.000000    
    254 O2    s    0.686352 *  0.463717 *  0.346624 *  -2.87073    1.000000    
    255 O2    s    0.535734 *  0.220148 *  0.680936 *  -2.87073    1.000000    
    256 O2    s    0.224278 *  0.691902 *  0.515573 *  -2.87073    1.000000    
    257 O3    s    0.309037 *  0.550192 *  0.845282 *  -3.33043    1.000000    
    258 O3    s    0.451452 *  0.758439 *  0.177918 *  -3.33043    1.000000    
    259 O2    s    0.315566 *  0.777183 *  0.318332 *  -2.87073    1.000000    
    260 O2    s    0.464301 *  0.684976 *  0.985689 *  -2.87073    1.000000    
    261 O2    s    0.223170 *  0.531229 *  0.653424 *  -2.87073    1.000000    
    262 O2    s    0.695656 *  0.223609 *  0.820100 *  -2.87073    1.000000    
    263 O2    s    0.536486 *  0.312971 *  0.486091 *  -2.87073    1.000000    
    264 O2    s    0.773484 *  0.470843 *  0.153123 *  -2.87073    1.000000    
    265 O2    s    0.786304 *  0.529763 *  0.031807 *  -2.87073    1.000000    
    266 O2    s    0.466515 *  0.253938 *  0.365706 *  -2.87073    1.000000    
    267 O2    s    0.743903 *  0.207312 *  0.697989 *  -2.87073    1.000000    
    268 O2    s    0.212402 *  0.472457 *  0.530794 *  -2.87073    1.000000    
    269 O2    s    0.530781 *  0.739769 *  0.865142 *  -2.87073    1.000000    
    270 O2    s    0.261410 *  0.790202 *  0.197604 *  -2.87073    1.000000    
    271 O2    s    0.534362 *  0.791185 *  0.302302 *  -2.87073    1.000000    
    272 O2    s    0.258742 *  0.466498 *  0.969552 *  -2.87073    1.000000    
    273 O2    s    0.209782 *  0.739120 *  0.638268 *  -2.87073    1.000000    
    274 O2    s    0.475783 *  0.214445 *  0.803784 *  -2.87073    1.000000    
    275 O2    s    0.741842 *  0.531814 *  0.468796 *  -2.87073    1.000000    
    276 O2    s    0.784487 *  0.260915 *  0.137614 *  -2.87073    1.000000    
    277 O3    s    0.225404 *  0.314688 *  0.904235 *  -3.33043    1.000000    
    278 O3    s    0.686956 *  0.910447 *  0.237155 *  -3.33043    1.000000    
    279 O2    s    0.093249 *  0.760285 *  0.568171 *  -2.87073    1.000000    
    280 O2    s    0.757802 *  0.664995 *  0.398425 *  -2.87073    1.000000    
    281 O2    s    0.336306 *  0.096333 *  0.733385 *  -2.87073    1.000000    
    282 O2    s    0.901262 *  0.237645 *  0.067149 *  -2.87073    1.000000    
    283 O2    s    0.330987 *  0.241898 *  0.436693 *  -2.87073    1.000000    
    284 O2    s    0.907728 *  0.668836 *  0.101854 *  -2.87073    1.000000    
    285 O2    s    0.760400 *  0.089229 *  0.768986 *  -2.87073    1.000000    
    286 O2    s    0.661712 *  0.752980 *  0.934928 *  -2.87073    1.000000    
    287 O2    s    0.094074 *  0.333367 *  0.600791 *  -2.87073    1.000000    
    288 O2    s    0.247086 *  0.905597 *  0.267646 *  -2.87073    1.000000    
    289 O2    s    0.576943 *  0.555328 *  0.985454 *  -2.87073    1.000000    
    290 O2    s    0.446245 *  0.019246 *  0.318109 *  -2.87073    1.000000    
    291 O2    s    0.976277 *  0.414154 *  0.653733 *  -2.87073    1.000000    
    292 O2    s    0.419528 *  0.444187 *  0.488547 *  -2.87073    1.000000    
    293 O2    s    0.561612 *  0.979425 *  0.822010 *  -2.87073    1.000000    
    294 O2    s    0.019170 *  0.582845 *  0.155147 *  -2.87073    1.000000    
    295 O2    s    0.558205 *  0.581407 *  0.346040 *  -2.87073    1.000000    
    296 O2    s    0.022546 *  0.437730 *  0.014429 *  -2.87073    1.000000    
    297 O2    s    0.416074 *  0.973710 *  0.680916 *  -2.87073    1.000000    
    298 O3    s    0.458333 *  0.415626 *  0.842523 *  -3.33043    1.000000    
    299 O2    s    0.975167 *  0.562418 *  0.514207 *  -2.87073    1.000000    
    300 O3    s    0.585052 *  0.041692 *  0.175572 *  -3.33043    1.000000    
    301 O2    s    0.580614 *  0.154022 *  0.249669 *  -2.87073    1.000000    
    302 O2    s    0.843953 *  0.423327 *  0.583910 *  -2.87073    1.000000    
    303 O2    s    0.576959 *  0.421678 *  0.916453 *  -2.87073    1.000000    
    304 O2    s    0.422101 *  0.846847 *  0.751904 *  -2.87073    1.000000    
    305 O2    s    0.150636 *  0.575457 *  0.084904 *  -2.87073    1.000000    
    306 O2    s    0.421454 *  0.576168 *  0.417402 *  -2.87073    1.000000    
    307 F     s    0.489949 *  0.906056 *  0.236634 *  -1.56000    1.000000    
    308 F     s    0.095156 *  0.548034 *  0.583020 *  -1.56000    1.000000    
    309 F     s    0.418169 *  0.511885 *  0.903775 *  -1.56000    1.000000    
    310 F     s    0.549762 *  0.093907 *  0.750304 *  -1.56000    1.000000    
    311 F     s    0.902797 *  0.454148 *  0.084122 *  -1.56000    1.000000    
    312 F     s    0.544864 *  0.449791 *  0.415766 *  -1.56000    1.000000    
--------------------------------------------------------------------------------



********************************************************************************
*  General input information                                                   *
********************************************************************************

  Species output for all configurations : 

--------------------------------------------------------------------------------
  Species    Type    Atomic    Atomic    Charge       Radii (Angs)     Library
                     Number     Mass       (e)     Cova   Ionic  VDW   Symbol
--------------------------------------------------------------------------------
    Si       Core       14      28.09   4.000000   1.200  0.000  2.100          
    O1       Core        8      16.00   1.733957   0.730  0.000  1.360          
    O1       Shell       8       0.00  -3.733957   0.730  0.000  1.360          
    O2       Core        8      16.00   0.870733   0.730  0.000  1.360          
    O2       Shell       8       0.00  -2.870733   0.730  0.000  1.360          
    O3       Core        8      16.00   1.330431   0.730  0.000  1.360          
    O3       Shell       8       0.00  -3.330431   0.730  0.000  1.360          
    F        Core        9      19.00   0.560000   0.710  0.000  1.300          
    F        Shell       9       0.00  -1.560000   0.710  0.000  1.300          
    Ge       Core       32      72.61   4.000000   1.170  0.000  1.750          
--------------------------------------------------------------------------------


  Lattice summation method               =    Ewald          (3-D)
                                         =    Parry          (2-D)
                                         =    Saunders et al (1-D)
  Accuracy factor for lattice sums       =   12.000


  Time limit = Infinity

  Maximum range for interatomic potentials =        16.000000 Angstroms

  Taper potentials to zero over   1.0000 Angstroms using polynomial

  General interatomic potentials :

--------------------------------------------------------------------------------
Atom  Types   Potential         A         B         C         D     Cutoffs(Ang)
  1     2                                                            Min    Max 
--------------------------------------------------------------------------------
Si   c O1   s Buckingham    0.132E+04 0.318      10.1      0.00     0.000 16.000
Si   c O2   s Buckingham    0.132E+04 0.318      10.1      0.00     0.000 16.000
Si   c O3   s Buckingham    0.132E+04 0.318      10.1      0.00     0.000 16.000
Ge   c O1   s Buckingham    0.150E+04 0.326      16.8      0.00     0.000 16.000
Ge   c O2   s Buckingham    0.150E+04 0.326      16.8      0.00     0.000 16.000
Ge   c O3   s Buckingham    0.150E+04 0.326      16.8      0.00     0.000 16.000
O1   s O1   s Buckingham    0.228E+05 0.149      10.9      0.00     0.000 16.000
O1   s O2   s Buckingham    0.228E+05 0.149      10.9      0.00     0.000 16.000
O1   s O3   s Buckingham    0.228E+05 0.149      10.9      0.00     0.000 16.000
O2   s O2   s Buckingham    0.228E+05 0.149      10.9      0.00     0.000 16.000
O2   s O3   s Buckingham    0.228E+05 0.149      10.9      0.00     0.000 16.000
O3   s O3   s Buckingham    0.228E+05 0.149      10.9      0.00     0.000 16.000
Si   c F    s Buckingham     977.     0.282      0.00      0.00     0.000 16.000
Ge   c F    s Buckingham     681.     0.320      0.00      0.00     0.000 16.000
F    s F    s Buckingham     540.     0.262      0.00      0.00     0.000 16.000
O1   s F    s Buckingham    0.168E+04 0.268      0.00      0.00     0.000 16.000
O2   s F    s Buckingham    0.168E+04 0.268      0.00      0.00     0.000 16.000
O3   s F    s Buckingham    0.168E+04 0.268      0.00      0.00     0.000 16.000
O2   c O2   s Spring (c-s)   76.0      0.00      0.00      0.00     0.000  0.800
O3   c O3   s Spring (c-s)   128.      0.00      0.00      0.00     0.000  0.800
O1   c O1   s Spring (c-s)   180.      0.00      0.00      0.00     0.000  0.800
F    c F    s Spring (c-s)   33.5      0.00      0.00      0.00     0.000  0.800
--------------------------------------------------------------------------------

  General Three-body potentials :

  Harmonic form:

--------------------------------------------------------------------------------
Atom    Atom    Atom           Force Constants            Theta     Cutoffs  
  1       2       3     (eVrad**-2/eVrad**-3/eVrad**-4)   (deg)  1-2  1-3  2-3
--------------------------------------------------------------------------------
Si    c O1    s O1    s  1.261        0.0000    0.0000   109.470 0.00 0.00 0.00
                                                                 1.90 1.90 3.50
Si    c O1    s O2    s  1.261        0.0000    0.0000   109.470 0.00 0.00 0.00
                                                                 1.90 1.90 3.50
Si    c O2    s O2    s  1.261        0.0000    0.0000   109.470 0.00 0.00 0.00
                                                                 1.90 1.90 3.50
--------------------------------------------------------------------------------

********************************************************************************
*  Output for configuration   1                                                *
********************************************************************************


  Components of energy : 

--------------------------------------------------------------------------------
  Interatomic potentials     =        2063.11336821 eV
  Three-body potentials      =           0.48032106 eV
  Monopole - monopole (real) =       -6612.70658380 eV
  Monopole - monopole (recip)=       -3170.80697851 eV
  Monopole - monopole (total)=       -9783.51356231 eV
  Neutralising energy        =          -6.45893827 eV
--------------------------------------------------------------------------------
  Total lattice energy       =       -7726.37881130 eV
--------------------------------------------------------------------------------
  Total lattice energy       =         -745477.4468 kJ/(mole unit cells)
--------------------------------------------------------------------------------


  Number of variables =      939

  Maximum number of calculations  =          1000
  Maximum Hessian update interval =            10
  Maximum step size               =   1.000000000
  Maximum parameter tolerance     =   0.000010000
  Maximum function  tolerance     =   0.000010000
  Maximum gradient  tolerance     =   0.001000000
  Maximum gradient  component     =   0.010000000

  Symmetry not applied to optimisation

  Cell parameters to be optimised using strains

  Newton-Raphson optimiser to be used

  BFGS hessian update to be used

  Dumpfile to be written after every cycle

  Start of bulk optimisation :

  Cycle:      0 Energy:     -7726.378811  Gnorm:      0.014243  CPU:    1.139
  ** Hessian calculated **
  Cycle:      1 Energy:     -7726.453668  Gnorm:      0.005684  CPU:    3.051
  Cycle:      2 Energy:     -7726.454647  Gnorm:      0.000385  CPU:    4.427
  Cycle:      3 Energy:     -7726.454703  Gnorm:      0.000147  CPU:    5.803


  **** Optimisation achieved ****


  Final energy =   -7726.45470366 eV
  Final Gnorm  =       0.00001364

  Components of energy : 

--------------------------------------------------------------------------------
  Interatomic potentials     =        2064.29003022 eV
  Three-body potentials      =           0.50727385 eV
  Monopole - monopole (real) =       -6611.71843349 eV
  Monopole - monopole (recip)=       -3173.07002339 eV
  Monopole - monopole (total)=       -9784.78845688 eV
  Neutralising energy        =          -6.46355085 eV
--------------------------------------------------------------------------------
  Total lattice energy       =       -7726.45470366 eV
--------------------------------------------------------------------------------
  Total lattice energy       =         -745484.7692 kJ/(mole unit cells)
--------------------------------------------------------------------------------

  Final fractional coordinates of atoms :

--------------------------------------------------------------------------------
   No.  Atomic        x           y          z          Radius
        Label       (Frac)      (Frac)     (Frac)       (Angs) 
--------------------------------------------------------------------------------
     1  Si    c     0.699600    0.375700    0.033890    0.000000
     2  Si    c     0.627315    0.321319    0.367108    0.000000
     3  Si    c     0.686520    0.294093    0.701206    0.000000
     4  Si    c     0.312395    0.625536    0.537708    0.000000
     5  Si    c     0.374459    0.682152    0.868778    0.000000
     6  Si    c     0.317065    0.682480    0.201203    0.000000
     7  Si    c     0.387445    0.696811    0.303716    0.000000
     8  Si    c     0.317594    0.612855    0.971088    0.000000
     9  Si    c     0.305758    0.673112    0.639358    0.000000
    10  Si    c     0.638650    0.303631    0.802201    0.000000
    11  Si    c     0.690022    0.377892    0.467696    0.000000
    12  Si    c     0.692720    0.322776    0.134834    0.000000
    13  Si    c     0.527168    0.408725    0.967084    0.000000
    14  Si    c     0.593696    0.113181    0.300097    0.000000
    15  Si    c     0.895947    0.466240    0.635982    0.000000
    16  Si    c     0.481910    0.583353    0.472256    0.000000
    17  Si    c     0.426703    0.900244    0.806548    0.000000
    18  Si    c     0.096461    0.513929    0.139194    0.000000
    19  Si    c     0.425324    0.527664    0.370223    0.000000
    20  Si    c     0.107072    0.571401    0.037508    0.000000
    21  Si    c     0.475665    0.885646    0.704884    0.000000
    22  Si    c     0.590496    0.470380    0.864001    0.000000
    23  Si    c     0.900171    0.420654    0.533609    0.000000
    24  Si    c     0.529764    0.110455    0.196855    0.000000
    25  Ge    c     0.316866    0.413649    0.859883    0.000000
    26  Ge    c     0.585941    0.894031    0.192677    0.000000
    27  Si    c     0.110209    0.700149    0.522679    0.000000
    28  Si    c     0.704742    0.598965    0.353320    0.000000
    29  Si    c     0.406847    0.095337    0.689080    0.000000
    30  Si    c     0.897113    0.292310    0.021913    0.000000
    31  Si    c     0.413963    0.304247    0.486283    0.000000
    32  Si    c     0.895284    0.596979    0.151850    0.000000
    33  Si    c     0.710563    0.101430    0.819115    0.000000
    34  Si    c     0.600488    0.692630    0.984840    0.000000
    35  Si    c     0.105099    0.393277    0.651139    0.000000
    36  Si    c     0.309748    0.900875    0.316915    0.000000
    37  Si    c     0.242376    0.326027    0.955516    0.000000
    38  Si    c     0.674673    0.910206    0.288459    0.000000
    39  Si    c     0.096881    0.745305    0.624085    0.000000
    40  Si    c     0.759216    0.657126    0.454360    0.000000
    41  Si    c     0.352458    0.102598    0.790175    0.000000
    42  Si    c     0.893639    0.236782    0.123232    0.000000
    43  Si    c     0.347850    0.250426    0.385636    0.000000
    44  Si    c     0.908716    0.653921    0.050714    0.000000
    45  Si    c     0.755911    0.085403    0.717953    0.000000
    46  Si    c     0.661162    0.749638    0.882765    0.000000
    47  Si    c     0.102770    0.346065    0.549107    0.000000
    48  Si    c     0.249861    0.901021    0.215015    0.000000
    49  Si    c     0.967517    0.112630    0.972616    0.000000
    50  Si    c     0.887142    0.847396    0.304925    0.000000
    51  Si    c     0.155819    0.022575    0.639953    0.000000
    52  Si    c     0.038966    0.874354    0.470666    0.000000
    53  Si    c     0.131341    0.162945    0.806803    0.000000
    54  Si    c     0.835746    0.957642    0.139389    0.000000
    55  Si    c     0.132447    0.970267    0.369711    0.000000
    56  Si    c     0.846989    0.870669    0.037634    0.000000
    57  Si    c     0.035744    0.147751    0.704606    0.000000
    58  Si    c     0.885480    0.028521    0.869832    0.000000
    59  Ge    c     0.162531    0.123262    0.536818    0.000000
    60  Si    c     0.969816    0.846446    0.202227    0.000000
    61  O2    c     0.923317    0.990865    0.004720    0.000000
    62  O2    c     0.010899    0.925516    0.336919    0.000000
    63  O2    c     0.078391    0.064473    0.673943    0.000000
    64  O3    c     0.072707    0.994977    0.501490    0.000000
    65  O2    c     0.008370    0.068617    0.838203    0.000000
    66  O2    c     0.930200    0.928829    0.170670    0.000000
    67  O2    c     0.349277    0.577904    0.337877    0.000000
    68  O2    c     0.425735    0.757228    0.673536    0.000000
    69  O2    c     0.234420    0.648414    0.005763    0.000000
    70  O2    c     0.679946    0.429586    0.834280    0.000000
    71  O2    c     0.567751    0.238612    0.167195    0.000000
    72  O2    c     0.777559    0.342383    0.499754    0.000000
    73  O2    c     0.579393    0.336381    0.999534    0.000000
    74  O2    c     0.768912    0.414635    0.667654    0.000000
    75  O2    c     0.665101    0.238459    0.332802    0.000000
    76  O2    c     0.436770    0.662738    0.505241    0.000000
    77  O2    c     0.216749    0.554382    0.173627    0.000000
    78  O2    c     0.346877    0.781804    0.841194    0.000000
    79  O2    c     0.120778    0.205527    0.980666    0.000000
    80  O2    c     0.796002    0.909489    0.313522    0.000000
    81  O2    c     0.094506    0.868909    0.645406    0.000000
    82  O2    c     0.885174    0.780818    0.474910    0.000000
    83  O2    c     0.230662    0.107450    0.811320    0.000000
    84  O2    c     0.890334    0.111910    0.144443    0.000000
    85  O2    c     0.220322    0.124331    0.365801    0.000000
    86  O2    c     0.911434    0.780991    0.030871    0.000000
    87  O2    c     0.881456    0.083841    0.697665    0.000000
    88  O2    c     0.787124    0.875371    0.863416    0.000000
    89  O3    c     0.101084    0.223205    0.527051    0.000000
    90  O2    c     0.123263    0.900495    0.195725    0.000000
    91  O2    c     0.939999    0.864125    0.254054    0.000000
    92  O3    c     0.135508    0.060002    0.590184    0.000000
    93  O2    c     0.932023    0.059274    0.921689    0.000000
    94  O2    c     0.073961    0.140698    0.755729    0.000000
    95  O2    c     0.859078    0.923264    0.088143    0.000000
    96  O2    c     0.080913    0.924759    0.419771    0.000000
    97  O2    c     0.895900    0.193703    0.983522    0.000000
    98  O2    c     0.803839    0.695164    0.315127    0.000000
    99  O2    c     0.309005    0.092770    0.650095    0.000000
   100  O2    c     0.113889    0.798986    0.484437    0.000000
   101  O3    c     0.202297    0.309067    0.818233    0.000000
   102  O3    c     0.689282    0.882352    0.150750    0.000000
   103  O2    c     0.218137    0.904937    0.356413    0.000000
   104  O2    c     0.695070    0.785307    0.024484    0.000000
   105  O2    c     0.105142    0.296743    0.689280    0.000000
   106  O2    c     0.807763    0.102587    0.857892    0.000000
   107  O3    c     0.325722    0.208733    0.525794    0.000000
   108  O2    c     0.894774    0.694568    0.190376    0.000000
   109  O2    c     0.329009    0.640317    0.253501    0.000000
   110  O2    c     0.366952    0.678527    0.588891    0.000000
   111  O2    c     0.319102    0.670778    0.921103    0.000000
   112  O2    c     0.691945    0.356606    0.751218    0.000000
   113  O2    c     0.637407    0.320501    0.083895    0.000000
   114  O2    c     0.688990    0.321814    0.416696    0.000000
   115  O2    c     0.371614    0.321771    0.970688    0.000000
   116  O2    c     0.680144    0.044057    0.303856    0.000000
   117  O2    c     0.963829    0.621493    0.640648    0.000000
   118  O2    c     0.638280    0.668983    0.473478    0.000000
   119  O2    c     0.341150    0.970259    0.808462    0.000000
   120  O2    c     0.026788    0.359058    0.141287    0.000000
   121  O2    c     0.337562    0.371864    0.366785    0.000000
   122  O2    c     0.040177    0.660103    0.032961    0.000000
   123  O2    c     0.631793    0.952789    0.700544    0.000000
   124  O2    c     0.671070    0.627338    0.864835    0.000000
   125  O2    c     0.970351    0.335479    0.530630    0.000000
   126  O2    c     0.372124    0.032870    0.197541    0.000000
   127  O2    c     0.767545    0.299302    0.012330    0.000000
   128  O2    c     0.700022    0.463368    0.344503    0.000000
   129  O2    c     0.542256    0.225417    0.679324    0.000000
   130  O2    c     0.245466    0.701616    0.515383    0.000000
   131  O3    c     0.299261    0.547152    0.843776    0.000000
   132  O3    c     0.452375    0.742214    0.176429    0.000000
   133  O2    c     0.314701    0.770429    0.323595    0.000000
   134  O2    c     0.463733    0.687033    0.991031    0.000000
   135  O2    c     0.237220    0.528592    0.659805    0.000000
   136  O2    c     0.714410    0.237329    0.825153    0.000000
   137  O2    c     0.548188    0.303156    0.490681    0.000000
   138  O2    c     0.758945    0.465218    0.157825    0.000000
   139  O2    c     0.781262    0.531348    0.029905    0.000000
   140  O2    c     0.470483    0.244799    0.364831    0.000000
   141  O2    c     0.759216    0.210922    0.696956    0.000000
   142  O2    c     0.231325    0.470939    0.530820    0.000000
   143  O2    c     0.531501    0.745153    0.865713    0.000000
   144  O2    c     0.253886    0.775943    0.197735    0.000000
   145  O2    c     0.542503    0.786123    0.306629    0.000000
   146  O2    c     0.250953    0.458499    0.973833    0.000000
   147  O2    c     0.221923    0.744924    0.644114    0.000000
   148  O2    c     0.483198    0.225164    0.808605    0.000000
   149  O2    c     0.761574    0.532635    0.472851    0.000000
   150  O2    c     0.771500    0.246424    0.141530    0.000000
   151  O3    c     0.214226    0.302682    0.902745    0.000000
   152  O3    c     0.697950    0.904291    0.235709    0.000000
   153  O2    c     0.103136    0.768733    0.569546    0.000000
   154  O2    c     0.776541    0.673219    0.399778    0.000000
   155  O2    c     0.335538    0.100275    0.735350    0.000000
   156  O2    c     0.893529    0.219538    0.068499    0.000000
   157  O2    c     0.331546    0.232794    0.440396    0.000000
   158  O2    c     0.905554    0.672611    0.105232    0.000000
   159  O2    c     0.777202    0.090439    0.772491    0.000000
   160  O2    c     0.669849    0.759525    0.937714    0.000000
   161  O2    c     0.105768    0.323812    0.603570    0.000000
   162  O2    c     0.240679    0.900756    0.269941    0.000000
   163  O2    c     0.578587    0.550177    0.988803    0.000000
   164  O2    c     0.451876    0.022655    0.321241    0.000000
   165  O2    c     0.978804    0.407080    0.658285    0.000000
   166  O2    c     0.428782    0.443737    0.495427    0.000000
   167  O2    c     0.569233    0.980751    0.829227    0.000000
   168  O2    c     0.016442    0.576576    0.162006    0.000000
   169  O2    c     0.565215    0.586427    0.345663    0.000000
   170  O2    c     0.025675    0.429942    0.014354    0.000000
   171  O2    c     0.417001    0.967407    0.681406    0.000000
   172  O3    c     0.455596    0.412924    0.838442    0.000000
   173  O2    c     0.984465    0.562748    0.511791    0.000000
   174  O3    c     0.587304    0.032743    0.171435    0.000000
   175  O2    c     0.587691    0.157709    0.248644    0.000000
   176  O2    c     0.843917    0.417856    0.584343    0.000000
   177  O2    c     0.579410    0.414090    0.915739    0.000000
   178  O2    c     0.424828    0.838927    0.756536    0.000000
   179  O2    c     0.156385    0.570951    0.089100    0.000000
   180  O2    c     0.425597    0.580719    0.421413    0.000000
   181  F     c     0.483755    0.898766    0.241078    0.000000
   182  F     c     0.107117    0.548307    0.585432    0.000000
   183  F     c     0.423073    0.516045    0.908391    0.000000
   184  F     c     0.560070    0.099158    0.753340    0.000000
   185  F     c     0.895342    0.446728    0.086150    0.000000
   186  F     c     0.554916    0.448687    0.418374    0.000000
   187  O2    s     0.919656    0.991012    0.004813    0.000000
   188  O2    s     0.010841    0.921829    0.337054    0.000000
   189  O2    s     0.082333    0.069065    0.673545    0.000000
   190  O3    s     0.076776    0.992795    0.501153    0.000000
   191  O2    s     0.007109    0.073773    0.838551    0.000000
   192  O2    s     0.924961    0.922496    0.171014    0.000000
   193  O2    s     0.360926    0.585212    0.337579    0.000000
   194  O2    s     0.418418    0.761606    0.673189    0.000000
   195  O2    s     0.230127    0.636819    0.005373    0.000000
   196  O2    s     0.666887    0.421084    0.834043    0.000000
   197  O2    s     0.576415    0.234188    0.166933    0.000000
   198  O2    s     0.780970    0.354098    0.499862    0.000000
   199  O2    s     0.586329    0.348085    0.999673    0.000000
   200  O2    s     0.773702    0.407583    0.667811    0.000000
   201  O2    s     0.653723    0.233774    0.332884    0.000000
   202  O2    s     0.428879    0.650848    0.505133    0.000000
   203  O2    s     0.214957    0.563784    0.173009    0.000000
   204  O2    s     0.358022    0.783485    0.840555    0.000000
   205  O2    s     0.116944    0.207900    0.977359    0.000000
   206  O2    s     0.793381    0.903055    0.310170    0.000000
   207  O2    s     0.101150    0.872044    0.642635    0.000000
   208  O2    s     0.888113    0.777536    0.472271    0.000000
   209  O2    s     0.233860    0.112461    0.808612    0.000000
   210  O2    s     0.885285    0.109970    0.141694    0.000000
   211  O2    s     0.224020    0.120836    0.368223    0.000000
   212  O2    s     0.904396    0.777264    0.033599    0.000000
   213  O2    s     0.884580    0.090680    0.700458    0.000000
   214  O2    s     0.783881    0.877814    0.866105    0.000000
   215  O3    s     0.106365    0.227222    0.530054    0.000000
   216  O2    s     0.120854    0.894938    0.198424    0.000000
   217  O2    s     0.937353    0.860229    0.254017    0.000000
   218  O3    s     0.140091    0.061640    0.590759    0.000000
   219  O2    s     0.930812    0.061869    0.921652    0.000000
   220  O2    s     0.075596    0.143873    0.755181    0.000000
   221  O2    s     0.855214    0.920764    0.087652    0.000000
   222  O2    s     0.082268    0.924443    0.419579    0.000000
   223  O2    s     0.903564    0.195317    0.986326    0.000000
   224  O2    s     0.802437    0.701283    0.317963    0.000000
   225  O2    s     0.302861    0.085681    0.652957    0.000000
   226  O2    s     0.105600    0.796895    0.486893    0.000000
   227  O3    s     0.201906    0.299535    0.819699    0.000000
   228  O3    s     0.699023    0.891644    0.152222    0.000000
   229  O2    s     0.219026    0.911377    0.353543    0.000000
   230  O2    s     0.700564    0.784173    0.021602    0.000000
   231  O2    s     0.097905    0.291322    0.686871    0.000000
   232  O2    s     0.805972    0.094676    0.855170    0.000000
   233  O3    s     0.321011    0.211025    0.522875    0.000000
   234  O2    s     0.902703    0.700519    0.187673    0.000000
   235  O2    s     0.333962    0.650273    0.253680    0.000000
   236  O2    s     0.355264    0.672590    0.588722    0.000000
   237  O2    s     0.324250    0.665839    0.921261    0.000000
   238  O2    s     0.685901    0.344719    0.751332    0.000000
   239  O2    s     0.649429    0.326387    0.084009    0.000000
   240  O2    s     0.682809    0.327432    0.416806    0.000000
   241  O2    s     0.374948    0.331293    0.968776    0.000000
   242  O2    s     0.670614    0.037930    0.301920    0.000000
   243  O2    s     0.970826    0.618501    0.638410    0.000000
   244  O2    s     0.634739    0.658854    0.471331    0.000000
   245  O2    s     0.351397    0.976665    0.806330    0.000000
   246  O2    s     0.020254    0.362702    0.139160    0.000000
   247  O2    s     0.347615    0.375239    0.369098    0.000000
   248  O2    s     0.033224    0.650332    0.035302    0.000000
   249  O2    s     0.628761    0.959760    0.702812    0.000000
   250  O2    s     0.661948    0.624603    0.866666    0.000000
   251  O2    s     0.976893    0.345660    0.532915    0.000000
   252  O2    s     0.374897    0.026582    0.199350    0.000000
   253  O2    s     0.774211    0.306520    0.015617    0.000000
   254  O2    s     0.692990    0.462958    0.347793    0.000000
   255  O2    s     0.542831    0.218782    0.682623    0.000000
   256  O2    s     0.238230    0.693674    0.518469    0.000000
   257  O3    s     0.308335    0.552019    0.847539    0.000000
   258  O3    s     0.447450    0.746475    0.180186    0.000000
   259  O2    s     0.321647    0.776851    0.320820    0.000000
   260  O2    s     0.463268    0.679992    0.988299    0.000000
   261  O2    s     0.230580    0.529459    0.656756    0.000000
   262  O2    s     0.706203    0.229814    0.822113    0.000000
   263  O2    s     0.548896    0.311128    0.487750    0.000000
   264  O2    s     0.766508    0.464464    0.154791    0.000000
   265  O2    s     0.786468    0.528297    0.032518    0.000000
   266  O2    s     0.473711    0.253389    0.367264    0.000000
   267  O2    s     0.751127    0.206064    0.699633    0.000000
   268  O2    s     0.225985    0.473809    0.533476    0.000000
   269  O2    s     0.530230    0.739291    0.867873    0.000000
   270  O2    s     0.259801    0.780608    0.199958    0.000000
   271  O2    s     0.539401    0.789340    0.304463    0.000000
   272  O2    s     0.257326    0.461480    0.971660    0.000000
   273  O2    s     0.216986    0.737297    0.641444    0.000000
   274  O2    s     0.485390    0.220017    0.805980    0.000000
   275  O2    s     0.753608    0.529844    0.470297    0.000000
   276  O2    s     0.776597    0.253504    0.138895    0.000000
   277  O3    s     0.223971    0.312418    0.905544    0.000000
   278  O3    s     0.688130    0.904287    0.238466    0.000000
   279  O2    s     0.103244    0.759197    0.570331    0.000000
   280  O2    s     0.767100    0.663665    0.400677    0.000000
   281  O2    s     0.344831    0.099995    0.736210    0.000000
   282  O2    s     0.893916    0.229038    0.069363    0.000000
   283  O2    s     0.341421    0.241773    0.439296    0.000000
   284  O2    s     0.904820    0.662663    0.104366    0.000000
   285  O2    s     0.767919    0.091047    0.771625    0.000000
   286  O2    s     0.661501    0.751317    0.936979    0.000000
   287  O2    s     0.105459    0.333264    0.602907    0.000000
   288  O2    s     0.249076    0.900795    0.269202    0.000000
   289  O2    s     0.575466    0.551006    0.986067    0.000000
   290  O2    s     0.451146    0.018619    0.318503    0.000000
   291  O2    s     0.983900    0.411963    0.655165    0.000000
   292  O2    s     0.432904    0.443435    0.492025    0.000000
   293  O2    s     0.569559    0.985450    0.825769    0.000000
   294  O2    s     0.011630    0.572129    0.158542    0.000000
   295  O2    s     0.565608    0.581515    0.349024    0.000000
   296  O2    s     0.020374    0.430103    0.017581    0.000000
   297  O2    s     0.422214    0.972693    0.684682    0.000000
   298  O3    s     0.459550    0.419101    0.842600    0.000000
   299  O2    s     0.989334    0.562682    0.515241    0.000000
   300  O3    s     0.581079    0.030586    0.175565    0.000000
   301  O2    s     0.582720    0.148367    0.249050    0.000000
   302  O2    s     0.855136    0.423155    0.584380    0.000000
   303  O2    s     0.574891    0.419011    0.916121    0.000000
   304  O2    s     0.430295    0.849992    0.756297    0.000000
   305  O2    s     0.145186    0.565223    0.088869    0.000000
   306  O2    s     0.431290    0.575458    0.421281    0.000000
   307  F     s     0.490565    0.898375    0.237950    0.000000
   308  F     s     0.107498    0.548533    0.585273    0.000000
   309  F     s     0.415946    0.509253    0.905269    0.000000
   310  F     s     0.560451    0.099562    0.753293    0.000000
   311  F     s     0.894891    0.446789    0.086115    0.000000
   312  F     s     0.554843    0.448300    0.418247    0.000000
--------------------------------------------------------------------------------

  Final Cartesian lattice vectors (Angstroms) :

       11.958536    0.003545   -0.000804
       -5.999746   10.408833   -0.006548
        0.085235   -0.199068   29.325131


  Final cell parameters and derivatives :

--------------------------------------------------------------------------------
       a           11.958537 Angstrom     dE/de1(xx)    -0.000163 eV/strain
       b           12.014191 Angstrom     dE/de2(yy)    -0.000211 eV/strain
       c           29.325931 Angstrom     dE/de3(zz)    -0.000655 eV/strain
       alpha       90.451353 Degrees      dE/de4(yz)    -0.000304 eV/strain
       beta        89.837438 Degrees      dE/de5(xz)     0.000124 eV/strain
       gamma      119.942548 Degrees      dE/de6(xy)    -0.000262 eV/strain
--------------------------------------------------------------------------------

  Primitive cell volume =          3650.836016 Angs**3

  Density of cell =      1.752501 g/cm**3

  Non-primitive cell volume =          3650.836016 Angs**3


  Final internal derivatives :

--------------------------------------------------------------------------------
   No.  Atomic          a             b             c           Radius
        Label          (eV)          (eV)          (eV)        (eV/Angs)
--------------------------------------------------------------------------------
      1 Si    c       0.000000      0.000000      0.000000      0.000000
      2 Si    c      -0.000140      0.000011     -0.000631      0.000000
      3 Si    c       0.000097      0.000013     -0.001232      0.000000
      4 Si    c       0.000021     -0.000083      0.000351      0.000000
      5 Si    c       0.000246     -0.001178      0.000482      0.000000
      6 Si    c       0.000349      0.000522      0.001278      0.000000
      7 Si    c       0.000057      0.000072     -0.000371      0.000000
      8 Si    c       0.000152     -0.000468     -0.000212      0.000000
      9 Si    c       0.000194      0.000030      0.000088      0.000000
     10 Si    c       0.000171      0.000048      0.000572      0.000000
     11 Si    c      -0.000080      0.000009      0.000133      0.000000
     12 Si    c      -0.000401      0.000808      0.000798      0.000000
     13 Si    c       0.000061      0.000331      0.000430      0.000000
     14 Si    c      -0.000256      0.000066      0.000421      0.000000
     15 Si    c      -0.000006      0.000051     -0.000275      0.000000
     16 Si    c      -0.000143      0.000079      0.000241      0.000000
     17 Si    c       0.000520     -0.000543     -0.000207      0.000000
     18 Si    c       0.000452      0.000074     -0.000056      0.000000
     19 Si    c       0.000053     -0.000032     -0.000122      0.000000
     20 Si    c      -0.001025      0.000067     -0.000703      0.000000
     21 Si    c       0.000035      0.000406      0.000198      0.000000
     22 Si    c       0.000285     -0.000297      0.000379      0.000000
     23 Si    c      -0.000104      0.000029     -0.000289      0.000000
     24 Si    c      -0.000078      0.000431     -0.000323      0.000000
     25 Ge    c       0.000181      0.001488      0.003131      0.000000
     26 Ge    c      -0.001280     -0.000101      0.002899      0.000000
     27 Si    c      -0.000069     -0.000009      0.000111      0.000000
     28 Si    c      -0.000033     -0.000062      0.000047      0.000000
     29 Si    c       0.000040     -0.000187      0.000343      0.000000
     30 Si    c      -0.000247      0.000815      0.000135      0.000000
     31 Si    c      -0.000037      0.000094     -0.000210      0.000000
     32 Si    c      -0.000018     -0.000526     -0.001151      0.000000
     33 Si    c      -0.000040     -0.000136     -0.000607      0.000000
     34 Si    c       0.000090     -0.000303      0.000172      0.000000
     35 Si    c       0.000183     -0.000093     -0.000179      0.000000
     36 Si    c      -0.000105     -0.000047     -0.000023      0.000000
     37 Si    c      -0.000333      0.000219      0.001020      0.000000
     38 Si    c       0.000184     -0.000247      0.000769      0.000000
     39 Si    c      -0.000015      0.000054      0.000065      0.000000
     40 Si    c      -0.000050      0.000028     -0.000108      0.000000
     41 Si    c      -0.000129      0.000105     -0.000302      0.000000
     42 Si    c      -0.000076      0.000034      0.000139      0.000000
     43 Si    c       0.000049      0.000058     -0.000084      0.000000
     44 Si    c       0.000537     -0.001330      0.000621      0.000000
     45 Si    c      -0.000107     -0.000203      0.000487      0.000000
     46 Si    c      -0.000010     -0.000111      0.000371      0.000000
     47 Si    c       0.000067      0.000003     -0.000059      0.000000
     48 Si    c      -0.000014     -0.000087      0.000130      0.000000
     49 Si    c      -0.000116      0.000111     -0.000814      0.000000
     50 Si    c       0.000017      0.000012     -0.000357      0.000000
     51 Si    c       0.000126      0.000006      0.000229      0.000000
     52 Si    c      -0.000038     -0.000013     -0.000071      0.000000
     53 Si    c       0.000180      0.000467     -0.001983      0.000000
     54 Si    c      -0.000025      0.000371     -0.000299      0.000000
     55 Si    c       0.000073     -0.000075      0.000151      0.000000
     56 Si    c       0.000134     -0.000254     -0.000404      0.000000
     57 Si    c      -0.000036      0.000001      0.000528      0.000000
     58 Si    c      -0.000255      0.000330      0.001176      0.000000
     59 Ge    c       0.000127     -0.000005      0.000276      0.000000
     60 Si    c      -0.000068      0.000157      0.001417      0.000000
     61 O2    c      -0.000033     -0.000003      0.000265      0.000000
     62 O2    c      -0.000048      0.000007     -0.000158      0.000000
     63 O2    c       0.000057     -0.000067     -0.000093      0.000000
     64 O3    c      -0.000187     -0.000190     -0.000348      0.000000
     65 O2    c      -0.000244     -0.000839      0.001305      0.000000
     66 O2    c       0.000516     -0.000005      0.000321      0.000000
     67 O2    c      -0.000130      0.000197     -0.000444      0.000000
     68 O2    c      -0.000072     -0.000196     -0.000746      0.000000
     69 O2    c       0.000018      0.000071     -0.000081      0.000000
     70 O2    c      -0.000096      0.000485      0.000610      0.000000
     71 O2    c      -0.000759     -0.000432      0.001335      0.000000
     72 O2    c       0.000174     -0.000042      0.000343      0.000000
     73 O2    c       0.000447     -0.000238      0.000167      0.000000
     74 O2    c      -0.000187     -0.000146      0.000805      0.000000
     75 O2    c      -0.000184      0.000361      0.000676      0.000000
     76 O2    c       0.000292     -0.000239     -0.000756      0.000000
     77 O2    c      -0.000012     -0.000571     -0.000872      0.000000
     78 O2    c      -0.000460      0.001193     -0.000892      0.000000
     79 O2    c      -0.000001      0.000075     -0.000233      0.000000
     80 O2    c       0.000037     -0.000056     -0.000167      0.000000
     81 O2    c       0.000032     -0.000020      0.000081      0.000000
     82 O2    c       0.000061     -0.000047     -0.000106      0.000000
     83 O2    c       0.000354     -0.000308      0.000149      0.000000
     84 O2    c      -0.000102     -0.000256     -0.000117      0.000000
     85 O2    c      -0.000025     -0.000026      0.000062      0.000000
     86 O2    c      -0.000262      0.000292      0.000124      0.000000
     87 O2    c      -0.000059      0.000022      0.000132      0.000000
     88 O2    c      -0.000133     -0.000467     -0.000038      0.000000
     89 O3    c      -0.000040      0.000108     -0.000328      0.000000
     90 O2    c       0.000271      0.000024      0.000205      0.000000
     91 O2    c       0.000224     -0.000197     -0.001873      0.000000
     92 O3    c       0.000048     -0.000018     -0.000964      0.000000
     93 O2    c       0.000198      0.000056      0.001122      0.000000
     94 O2    c       0.000172      0.000120      0.002081      0.000000
     95 O2    c       0.000032     -0.000091     -0.000154      0.000000
     96 O2    c      -0.000039      0.000080     -0.000477      0.000000
     97 O2    c       0.000004     -0.000042     -0.000098      0.000000
     98 O2    c       0.000017      0.000048     -0.000066      0.000000
     99 O2    c      -0.000023     -0.000047     -0.000164      0.000000
    100 O2    c       0.000002      0.000007     -0.000067      0.000000
    101 O3    c      -0.000017     -0.000849     -0.000301      0.000000
    102 O3    c      -0.000290     -0.000007      0.000424      0.000000
    103 O2    c       0.000134     -0.000066     -0.000221      0.000000
    104 O2    c       0.000166     -0.000024      0.000076      0.000000
    105 O2    c      -0.000005     -0.000057      0.000109      0.000000
    106 O2    c       0.000370     -0.000105      0.000249      0.000000
    107 O3    c      -0.000093     -0.000050      0.000052      0.000000
    108 O2    c      -0.000033     -0.000075     -0.000016      0.000000
    109 O2    c      -0.000006      0.000025     -0.000047      0.000000
    110 O2    c      -0.000073      0.000036      0.000153      0.000000
    111 O2    c       0.000090     -0.000168     -0.000270      0.000000
    112 O2    c      -0.000019      0.000083      0.000189      0.000000
    113 O2    c      -0.000349      0.000132      0.000981      0.000000
    114 O2    c       0.000042     -0.000021      0.000317      0.000000
    115 O2    c      -0.000029     -0.000007      0.000370      0.000000
    116 O2    c      -0.000078      0.000204      0.000260      0.000000
    117 O2    c      -0.000000     -0.000091      0.000023      0.000000
    118 O2    c       0.000056     -0.000053     -0.000131      0.000000
    119 O2    c      -0.000280      0.000204      0.000013      0.000000
    120 O2    c      -0.000023     -0.000647     -0.000130      0.000000
    121 O2    c       0.000033     -0.000009      0.000064      0.000000
    122 O2    c       0.000060     -0.000290      0.000266      0.000000
    123 O2    c      -0.000109      0.000076      0.000132      0.000000
    124 O2    c      -0.000054      0.000236      0.000323      0.000000
    125 O2    c       0.000076     -0.000069     -0.000066      0.000000
    126 O2    c      -0.000116     -0.000034      0.000140      0.000000
    127 O2    c       0.000022      0.000308     -0.000546      0.000000
    128 O2    c      -0.000033      0.000043      0.000135      0.000000
    129 O2    c       0.000128      0.000032     -0.000050      0.000000
    130 O2    c      -0.000049      0.000025     -0.000205      0.000000
    131 O3    c       0.000153     -0.000157      0.000798      0.000000
    132 O3    c      -0.000028      0.000067      0.000103      0.000000
    133 O2    c      -0.000036      0.000004     -0.000238      0.000000
    134 O2    c      -0.000116      0.000098     -0.000099      0.000000
    135 O2    c      -0.000063     -0.000054      0.000008      0.000000
    136 O2    c       0.000011     -0.000004      0.000065      0.000000
    137 O2    c       0.000038     -0.000003     -0.000079      0.000000
    138 O2    c       0.000195      0.000190      0.000128      0.000000
    139 O2    c       0.000496     -0.000468      0.000452      0.000000
    140 O2    c       0.000111      0.000060      0.000181      0.000000
    141 O2    c      -0.000195      0.000251     -0.000248      0.000000
    142 O2    c      -0.000032      0.000056      0.000047      0.000000
    143 O2    c       0.000067     -0.000098     -0.000031      0.000000
    144 O2    c      -0.000045      0.000087     -0.000026      0.000000
    145 O2    c      -0.000061      0.000067     -0.000106      0.000000
    146 O2    c       0.000114     -0.000080     -0.000302      0.000000
    147 O2    c      -0.000028      0.000047      0.000079      0.000000
    148 O2    c      -0.000237      0.000017      0.000110      0.000000
    149 O2    c      -0.000027      0.000013     -0.000085      0.000000
    150 O2    c       0.000638     -0.000524     -0.000341      0.000000
    151 O3    c      -0.000000     -0.000502      0.001639      0.000000
    152 O3    c       0.000378     -0.000166      0.000263      0.000000
    153 O2    c       0.000082     -0.000078     -0.000282      0.000000
    154 O2    c      -0.000018      0.000036      0.000176      0.000000
    155 O2    c       0.000050     -0.000071     -0.000070      0.000000
    156 O2    c       0.000157     -0.000065      0.000192      0.000000
    157 O2    c       0.000039     -0.000003     -0.000048      0.000000
    158 O2    c      -0.000015     -0.000162      0.000235      0.000000
    159 O2    c      -0.000204      0.000154     -0.000038      0.000000
    160 O2    c       0.000054      0.000075     -0.001168      0.000000
    161 O2    c      -0.000060      0.000065     -0.000004      0.000000
    162 O2    c       0.000038      0.000028     -0.000359      0.000000
    163 O2    c      -0.000115     -0.000271     -0.000767      0.000000
    164 O2    c       0.000165      0.000027      0.000059      0.000000
    165 O2    c      -0.000108      0.000091      0.000152      0.000000
    166 O2    c      -0.000011     -0.000060     -0.000198      0.000000
    167 O2    c       0.000259     -0.000089      0.000119      0.000000
    168 O2    c      -0.000500      0.000503      0.000549      0.000000
    169 O2    c       0.000005     -0.000029      0.000045      0.000000
    170 O2    c      -0.000294      0.000051      0.000424      0.000000
    171 O2    c       0.000142     -0.000059      0.000038      0.000000
    172 O3    c       0.000302     -0.000512     -0.001283      0.000000
    173 O2    c       0.000087      0.000108      0.000025      0.000000
    174 O3    c      -0.000066      0.000579     -0.002357      0.000000
    175 O2    c      -0.000113      0.000042     -0.000032      0.000000
    176 O2    c       0.000067     -0.000004      0.000211      0.000000
    177 O2    c       0.000043     -0.000006     -0.000775      0.000000
    178 O2    c      -0.000106      0.000178      0.000623      0.000000
    179 O2    c       0.000137      0.000018      0.000721      0.000000
    180 O2    c       0.000010      0.000004     -0.000018      0.000000
    181 F     c       0.000321     -0.000373     -0.001224      0.000000
    182 F     c      -0.000003      0.000001     -0.000093      0.000000
    183 F     c      -0.000283     -0.000029     -0.001598      0.000000
    184 F     c      -0.000074     -0.000108     -0.000115      0.000000
    185 F     c       0.000117      0.000143      0.000035      0.000000
    186 F     c      -0.000030      0.000028     -0.000052      0.000000
    187 O2    s      -0.000055      0.000022     -0.000266      0.000000
    188 O2    s       0.000013      0.000000      0.000067      0.000000
    189 O2    s       0.000016      0.000042     -0.000117      0.000000
    190 O3    s       0.000100      0.000066      0.000168      0.000000
    191 O2    s       0.000163      0.000058     -0.000860      0.000000
    192 O2    s      -0.000265      0.000063      0.000102      0.000000
    193 O2    s       0.000123     -0.000161      0.000130      0.000000
    194 O2    s      -0.000017     -0.000098      0.000004      0.000000
    195 O2    s       0.000096      0.000058     -0.000131      0.000000
    196 O2    s       0.000147     -0.000297     -0.000254      0.000000
    197 O2    s       0.000659      0.000219     -0.000508      0.000000
    198 O2    s      -0.000157      0.000103      0.000015      0.000000
    199 O2    s      -0.000410      0.000234      0.000312      0.000000
    200 O2    s       0.000048      0.000066      0.000065      0.000000
    201 O2    s       0.000068     -0.000091     -0.000038      0.000000
    202 O2    s      -0.000069      0.000109      0.000044      0.000000
    203 O2    s       0.000069      0.000124      0.000116      0.000000
    204 O2    s       0.000133     -0.000553      0.000324      0.000000
    205 O2    s      -0.000048      0.000027      0.000043      0.000000
    206 O2    s       0.000022      0.000055      0.000479      0.000000
    207 O2    s      -0.000099      0.000023     -0.000127      0.000000
    208 O2    s      -0.000027     -0.000015      0.000287      0.000000
    209 O2    s      -0.000217      0.000170     -0.000625      0.000000
    210 O2    s      -0.000051      0.000216     -0.000064      0.000000
    211 O2    s       0.000032     -0.000013     -0.000124      0.000000
    212 O2    s       0.000026      0.000108     -0.000356      0.000000
    213 O2    s       0.000086      0.000011     -0.000216      0.000000
    214 O2    s       0.000145      0.000094     -0.000078      0.000000
    215 O3    s      -0.000067      0.000064      0.000480      0.000000
    216 O2    s      -0.000237      0.000046      0.000205      0.000000
    217 O2    s      -0.000102      0.000082      0.000364      0.000000
    218 O3    s      -0.000110      0.000042      0.000920      0.000000
    219 O2    s      -0.000056     -0.000074     -0.000738      0.000000
    220 O2    s       0.000032      0.000017     -0.000397      0.000000
    221 O2    s      -0.000065      0.000065      0.000130      0.000000
    222 O2    s       0.000003     -0.000015      0.000169      0.000000
    223 O2    s       0.000081     -0.000136     -0.000459      0.000000
    224 O2    s      -0.000006     -0.000057     -0.000016      0.000000
    225 O2    s      -0.000178      0.000177      0.000034      0.000000
    226 O2    s      -0.000032     -0.000011      0.000141      0.000000
    227 O3    s      -0.000200      0.000764     -0.000711      0.000000
    228 O3    s       0.000191     -0.000171      0.000259      0.000000
    229 O2    s      -0.000099      0.000086      0.000087      0.000000
    230 O2    s      -0.000037      0.000072      0.000158      0.000000
    231 O2    s       0.000031      0.000012     -0.000057      0.000000
    232 O2    s      -0.000312      0.000283      0.000005      0.000000
    233 O3    s       0.000143     -0.000012     -0.000029      0.000000
    234 O2    s       0.000071     -0.000041     -0.000112      0.000000
    235 O2    s       0.000059     -0.000188      0.000325      0.000000
    236 O2    s      -0.000056     -0.000004      0.000090      0.000000
    237 O2    s      -0.000240      0.000300     -0.000309      0.000000
    238 O2    s      -0.000013     -0.000657     -0.000077      0.000000
    239 O2    s       0.001764     -0.000495      0.000365      0.000000
    240 O2    s      -0.000109      0.000096     -0.000219      0.000000
    241 O2    s      -0.000211      0.000042     -0.000805      0.000000
    242 O2    s       0.000046     -0.000072     -0.000365      0.000000
    243 O2    s       0.000018      0.000036     -0.000054      0.000000
    244 O2    s      -0.000039      0.000016     -0.000009      0.000000
    245 O2    s       0.000358     -0.000141     -0.000234      0.000000
    246 O2    s      -0.000394      0.000801     -0.000414      0.000000
    247 O2    s      -0.000028     -0.000058     -0.000117      0.000000
    248 O2    s       0.000420      0.000619     -0.000779      0.000000
    249 O2    s       0.000385     -0.000357     -0.000583      0.000000
    250 O2    s      -0.000151     -0.000102     -0.000118      0.000000
    251 O2    s      -0.000100      0.000088      0.000275      0.000000
    252 O2    s       0.000302     -0.000142     -0.000071      0.000000
    253 O2    s      -0.000339     -0.000453      0.001380      0.000000
    254 O2    s       0.000054     -0.000096      0.000090      0.000000
    255 O2    s       0.000001      0.000311      0.000453      0.000000
    256 O2    s      -0.000120      0.000017      0.000172      0.000000
    257 O3    s      -0.000092     -0.000137     -0.000975      0.000000
    258 O3    s       0.000258     -0.000140     -0.000690      0.000000
    259 O2    s      -0.000020     -0.000038      0.000293      0.000000
    260 O2    s      -0.000030      0.000145      0.000457      0.000000
    261 O2    s       0.000081      0.000026     -0.000065      0.000000
    262 O2    s      -0.000064      0.000131     -0.000140      0.000000
    263 O2    s      -0.000013      0.000056      0.000048      0.000000
    264 O2    s       0.000014     -0.000166      0.000107      0.000000
    265 O2    s      -0.001581      0.000749     -0.001830      0.000000
    266 O2    s       0.000115     -0.000156     -0.000144      0.000000
    267 O2    s      -0.000017      0.000351      0.000400      0.000000
    268 O2    s      -0.000040     -0.000105      0.000016      0.000000
    269 O2    s       0.000040      0.000255      0.000000      0.000000
    270 O2    s      -0.000190      0.000128      0.000444      0.000000
    271 O2    s       0.000094     -0.000168     -0.000011      0.000000
    272 O2    s      -0.000024     -0.000071      0.000071      0.000000
    273 O2    s       0.000094     -0.000086     -0.000132      0.000000
    274 O2    s       0.000261     -0.000026     -0.000340      0.000000
    275 O2    s      -0.000032      0.000015      0.000088      0.000000
    276 O2    s      -0.000483      0.000508      0.000396      0.000000
    277 O3    s      -0.000041      0.000576     -0.001184      0.000000
    278 O3    s      -0.000395      0.000163     -0.000915      0.000000
    279 O2    s      -0.000023     -0.000017      0.000063      0.000000
    280 O2    s       0.000016     -0.000047     -0.000012      0.000000
    281 O2    s      -0.000077      0.000036      0.000184      0.000000
    282 O2    s       0.000086     -0.000166      0.000484      0.000000
    283 O2    s      -0.000050     -0.000032      0.000126      0.000000
    284 O2    s      -0.000226      0.000523      0.001146      0.000000
    285 O2    s       0.000376     -0.000138      0.000052      0.000000
    286 O2    s       0.000102     -0.000091     -0.000028      0.000000
    287 O2    s       0.000004     -0.000004     -0.000014      0.000000
    288 O2    s      -0.000036      0.000069     -0.000035      0.000000
    289 O2    s       0.000446     -0.000027      0.001390      0.000000
    290 O2    s      -0.000070      0.000039      0.000071      0.000000
    291 O2    s       0.000041     -0.000027     -0.000275      0.000000
    292 O2    s       0.000057      0.000027      0.000026      0.000000
    293 O2    s      -0.000394      0.000149     -0.000401      0.000000
    294 O2    s       0.000317     -0.000571     -0.001046      0.000000
    295 O2    s       0.000049      0.000014     -0.000072      0.000000
    296 O2    s       0.000799     -0.000413     -0.000918      0.000000
    297 O2    s      -0.000322     -0.000044     -0.000716      0.000000
    298 O3    s      -0.000169      0.000561      0.001580      0.000000
    299 O2    s      -0.000122      0.000014      0.000210      0.000000
    300 O3    s       0.000083     -0.000544      0.002558      0.000000
    301 O2    s       0.000145     -0.000071     -0.000523      0.000000
    302 O2    s       0.000036     -0.000035     -0.000015      0.000000
    303 O2    s      -0.000047     -0.000086     -0.000592      0.000000
    304 O2    s      -0.000067     -0.000089      0.000508      0.000000
    305 O2    s      -0.000433     -0.000261      0.000636      0.000000
    306 O2    s       0.000036      0.000025      0.000267      0.000000
    307 F     s       0.000676     -0.000074     -0.001340      0.000000
    308 F     s       0.000049     -0.000008      0.000197      0.000000
    309 F     s      -0.000407     -0.000497     -0.001596      0.000000
    310 F     s       0.000144      0.000495      0.000322      0.000000
    311 F     s      -0.000715     -0.000434      0.000373      0.000000
    312 F     s       0.000107     -0.000072      0.000144      0.000000
--------------------------------------------------------------------------------
  Maximum abs         0.001764      0.001488      0.003131      0.000000
--------------------------------------------------------------------------------


  Time to end of optimisation =       7.1806 seconds


  Peak dynamic memory used =      19.13 MB 


  Timing analysis for GULP :

--------------------------------------------------------------------------------
  Task / Subroutine                                          Time (Seconds)
--------------------------------------------------------------------------------
  Calculation of reciprocal space energy and derivatives          0.2830
  Calculation of real space energy and derivatives                5.9956
  Calculation of three-body energy and derivatives                0.6652
  Calculation of matrix inversion                                 0.2038
--------------------------------------------------------------------------------
  Total CPU time                                                  7.1806
--------------------------------------------------------------------------------


  Dump file written as out.res                                                 
  CIF file written as out.cif                                                 


  Job Finished at 07:42.21 27th November   2016                               

