********************************************************************************
*                       GENERAL UTILITY LATTICE PROGRAM                        *
*                                 Julian Gale                                  *
*                      Nanochemistry Research Institute                        *
*                           Department of Chemistry                            *
*                    Curtin University, Western Australia                      *
********************************************************************************
* Version = 4.2.0 * Last modified =  20th January 2014                         *
********************************************************************************
*  optimise     - perform optimisation run                                     *
*  conp         - constant pressure calculation                                *
*  qok          - running with non charge neutral cell is OK                   *
********************************************************************************

  Job Started  at 01:33.08 27th November   2016                               

  Number of CPUs =     1


  Total number of configurations input =   1

********************************************************************************
*  Input for Configuration =   1                                               *
********************************************************************************

  Formula = Si57Ge3O120F6                                               

  Number of irreducible atoms/shells =     312


  Total number atoms/shells =     312

  Dimensionality = 3               :  Bulk   


  Charge on solid   =  -6.000000 =>neutralising background added


  Cartesian lattice vectors (Angstroms) :

       11.959889    0.000000    0.000000
       -5.970431   10.393619    0.000000
        0.200659   -0.238695   29.385640

  Cell parameters (Angstroms/Degrees):

  a =      11.9599    alpha =  90.5984
  b =      11.9864    beta  =  89.6088
  c =      29.3873    gamma = 119.8745

  Initial cell volume =        3652.827032 Angs**3

  Temperature of configuration =  0.000     K 

  Pressure of configuration =         0.000 GPa 

  Fractional coordinates of asymmetric unit :

--------------------------------------------------------------------------------
   No.  Atomic       x           y          z         Charge      Occupancy
        Label      (Frac)      (Frac)     (Frac)        (e)         (Frac)  
--------------------------------------------------------------------------------
      1 Si    c    0.699600    0.375700    0.033890     4.00000    1.000000    
      2 Si    c    0.632112 *  0.332328 *  0.366950 *   4.00000    1.000000    
      3 Si    c    0.675361 *  0.286594 *  0.700112 *   4.00000    1.000000    
      4 Si    c    0.299972 *  0.625116 *  0.533378 *   4.00000    1.000000    
      5 Si    c    0.375163 *  0.679052 *  0.865199 *   4.00000    1.000000    
      6 Si    c    0.316736 *  0.701578 *  0.200835 *   4.00000    1.000000    
      7 Si    c    0.373425 *  0.693449 *  0.303095 *   4.00000    1.000000    
      8 Si    c    0.317630 *  0.615437 *  0.967406 *   4.00000    1.000000    
      9 Si    c    0.304475 *  0.678836 *  0.636678 *   4.00000    1.000000    
     10 Si    c    0.630010 *  0.296429 *  0.800842 *   4.00000    1.000000    
     11 Si    c    0.679937 *  0.384655 *  0.467840 *   4.00000    1.000000    
     12 Si    c    0.699056 *  0.323131 *  0.134882 *   4.00000    1.000000    
     13 Si    c    0.527589 *  0.409539 *  0.966960 *   4.00000    1.000000    
     14 Si    c    0.587229 *  0.120447 *  0.304466 *   4.00000    1.000000    
     15 Si    c    0.881961 *  0.469134 *  0.636378 *   4.00000    1.000000    
     16 Si    c    0.469850 *  0.581337 *  0.467263 *   4.00000    1.000000    
     17 Si    c    0.423358 *  0.894588 *  0.802774 *   4.00000    1.000000    
     18 Si    c    0.108690 *  0.529602 *  0.134981 *   4.00000    1.000000    
     19 Si    c    0.421021 *  0.524713 *  0.365708 *   4.00000    1.000000    
     20 Si    c    0.108725 *  0.578853 *  0.033189 *   4.00000    1.000000    
     21 Si    c    0.475750 *  0.882783 *  0.701694 *   4.00000    1.000000    
     22 Si    c    0.589449 *  0.466912 *  0.863801 *   4.00000    1.000000    
     23 Si    c    0.888434 *  0.420308 *  0.532511 *   4.00000    1.000000    
     24 Si    c    0.525317 *  0.117237 *  0.201449 *   4.00000    1.000000    
     25 Ge    c    0.315558 *  0.408606 *  0.857380 *   4.00000    1.000000    
     26 Si    c    0.597684 *  0.904535 *  0.185816 *   4.00000    1.000000    
     27 Si    c    0.098425 *  0.704975 *  0.515600 *   4.00000    1.000000    
     28 Si    c    0.704393 *  0.606966 *  0.351879 *   4.00000    1.000000    
     29 Si    c    0.397029 *  0.086818 *  0.685442 *   4.00000    1.000000    
     30 Si    c    0.901221 *  0.298286 *  0.018615 *   4.00000    1.000000    
     31 Si    c    0.399309 *  0.301428 *  0.481461 *   4.00000    1.000000    
     32 Si    c    0.899692 *  0.601384 *  0.149448 *   4.00000    1.000000    
     33 Si    c    0.704797 *  0.095984 *  0.816570 *   4.00000    1.000000    
     34 Si    c    0.598859 *  0.693912 *  0.982135 *   4.00000    1.000000    
     35 Si    c    0.095472 *  0.397573 *  0.650926 *   4.00000    1.000000    
     36 Ge    c    0.314326 *  0.905053 *  0.310842 *   4.00000    1.000000    
     37 Si    c    0.244156 *  0.328678 *  0.953666 *   4.00000    1.000000    
     38 Si    c    0.658567 *  0.910909 *  0.287651 *   4.00000    1.000000    
     39 Ge    c    0.090920 *  0.733090 *  0.616172 *   4.00000    1.000000    
     40 Si    c    0.750866 *  0.664419 *  0.453095 *   4.00000    1.000000    
     41 Si    c    0.345611 *  0.094205 *  0.786969 *   4.00000    1.000000    
     42 Si    c    0.908592 *  0.251423 *  0.119657 *   4.00000    1.000000    
     43 Si    c    0.346416 *  0.247638 *  0.380071 *   4.00000    1.000000    
     44 Si    c    0.907447 *  0.656747 *  0.048602 *   4.00000    1.000000    
     45 Si    c    0.754284 *  0.083842 *  0.715799 *   4.00000    1.000000    
     46 Si    c    0.661260 *  0.747687 *  0.880258 *   4.00000    1.000000    
     47 Si    c    0.088188 *  0.338622 *  0.548308 *   4.00000    1.000000    
     48 Si    c    0.242133 *  0.914895 *  0.214810 *   4.00000    1.000000    
     49 Si    c    0.968531 *  0.116305 *  0.968814 *   4.00000    1.000000    
     50 Si    c    0.881293 *  0.853733 *  0.301033 *   4.00000    1.000000    
     51 Si    c    0.149202 *  0.018747 *  0.633780 *   4.00000    1.000000    
     52 Si    c    0.030655 *  0.881543 *  0.465379 *   4.00000    1.000000    
     53 Si    c    0.128578 *  0.159489 *  0.802661 *   4.00000    1.000000    
     54 Si    c    0.844705 *  0.972043 *  0.134144 *   4.00000    1.000000    
     55 Si    c    0.126450 *  0.968075 *  0.364344 *   4.00000    1.000000    
     56 Si    c    0.845041 *  0.873730 *  0.033406 *   4.00000    1.000000    
     57 Si    c    0.035025 *  0.149658 *  0.700562 *   4.00000    1.000000    
     58 Si    c    0.883450 *  0.027678 *  0.866613 *   4.00000    1.000000    
     59 Si    c    0.153371 *  0.120869 *  0.533448 *   4.00000    1.000000    
     60 Si    c    0.965946 *  0.850367 *  0.198707 *   4.00000    1.000000    
     61 O2    c    0.922262 *  0.992834 *  0.000467 *   0.87073    1.000000    
     62 O2    c    0.003494 *  0.935957 *  0.332501 *   0.87073    1.000000    
     63 O2    c    0.079681 *  0.074519 *  0.666832 *   0.87073    1.000000    
     64 O2    c    0.074750 *  0.001210 *  0.499728 *   0.87073    1.000000    
     65 O2    c    0.003487 *  0.067824 *  0.833669 *   0.87073    1.000000    
     66 O2    c    0.920825 *  0.927989 *  0.166807 *   0.87073    1.000000    
     67 O2    c    0.343007 *  0.566999 *  0.331522 *   0.87073    1.000000    
     68 O2    c    0.429910 *  0.755805 *  0.669605 *   0.87073    1.000000    
     69 O2    c    0.234538 *  0.654949 *  0.000875 *   0.87073    1.000000    
     70 O2    c    0.674724 *  0.421804 *  0.833813 *   0.87073    1.000000    
     71 O2    c    0.576836 *  0.240248 *  0.168198 *   0.87073    1.000000    
     72 O2    c    0.763022 *  0.344512 *  0.500310 *   0.87073    1.000000    
     73 O2    c    0.577965 *  0.337362 *  0.000502 *   0.87073    1.000000    
     74 O2    c    0.752286 *  0.406975 *  0.666487 *   0.87073    1.000000    
     75 O2    c    0.675605 *  0.250701 *  0.333878 *   0.87073    1.000000    
     76 O2    c    0.420354 *  0.657783 *  0.500095 *   0.87073    1.000000    
     77 O2    c    0.234479 *  0.579786 *  0.167331 *   0.87073    1.000000    
     78 O2    c    0.344199 *  0.774949 *  0.837086 *   0.87073    1.000000    
     79 O2    c    0.120821 *  0.208132 *  0.978355 *   0.87073    1.000000    
     80 O2    c    0.785151 *  0.912009 *  0.306764 *   0.87073    1.000000    
     81 O3    c    0.082679 *  0.869786 *  0.637842 *   1.33043    1.000000    
     82 O2    c    0.876094 *  0.791851 *  0.472768 *   0.87073    1.000000    
     83 O2    c    0.223563 *  0.099337 *  0.808141 *   0.87073    1.000000    
     84 O2    c    0.909103 *  0.125904 *  0.139693 *   0.87073    1.000000    
     85 O2    c    0.224432 *  0.122387 *  0.358569 *   0.87073    1.000000    
     86 O2    c    0.908399 *  0.782803 *  0.028480 *   0.87073    1.000000    
     87 O2    c    0.880220 *  0.083994 *  0.695207 *   0.87073    1.000000    
     88 O2    c    0.788415 *  0.873162 *  0.861590 *   0.87073    1.000000    
     89 O2    c    0.091167 *  0.214174 *  0.528419 *   0.87073    1.000000    
     90 O2    c    0.118897 *  0.911794 *  0.189973 *   0.87073    1.000000    
     91 O2    c    0.928889 *  0.866955 *  0.249393 *   0.87073    1.000000    
     92 O2    c    0.142755 *  0.070925 *  0.583879 *   0.87073    1.000000    
     93 O2    c    0.934518 *  0.064038 *  0.917922 *   0.87073    1.000000    
     94 O2    c    0.076170 *  0.140119 *  0.751119 *   0.87073    1.000000    
     95 O2    c    0.855947 *  0.929159 *  0.083676 *   0.87073    1.000000    
     96 O2    c    0.067654 *  0.937561 *  0.415223 *   0.87073    1.000000    
     97 O2    c    0.897196 *  0.197985 *  0.980342 *   0.87073    1.000000    
     98 O2    c    0.801260 *  0.702715 *  0.313178 *   0.87073    1.000000    
     99 O2    c    0.302005 *  0.083830 *  0.646167 *   0.87073    1.000000    
    100 O2    c    0.096707 *  0.793955 *  0.474148 *   0.87073    1.000000    
    101 O3    c    0.201709 *  0.305210 *  0.815627 *   1.33043    1.000000    
    102 O2    c    0.692747 *  0.905388 *  0.146331 *   0.87073    1.000000    
    103 O3    c    0.199835 *  0.894392 *  0.352778 *   1.33043    1.000000    
    104 O2    c    0.693227 *  0.789166 *  0.021395 *   0.87073    1.000000    
    105 O2    c    0.098099 *  0.301314 *  0.688324 *   0.87073    1.000000    
    106 O2    c    0.801204 *  0.097312 *  0.855653 *   0.87073    1.000000    
    107 O2    c    0.304122 *  0.204780 *  0.520104 *   0.87073    1.000000    
    108 O2    c    0.895502 *  0.697916 *  0.187616 *   0.87073    1.000000    
    109 O2    c    0.318891 *  0.647569 *  0.250914 *   0.87073    1.000000    
    110 O2    c    0.353811 *  0.678609 *  0.584267 *   0.87073    1.000000    
    111 O2    c    0.319989 *  0.671111 *  0.917339 *   0.87073    1.000000    
    112 O2    c    0.683242 *  0.350153 *  0.750158 *   0.87073    1.000000    
    113 O2    c    0.641643 *  0.320618 *  0.084380 *   0.87073    1.000000    
    114 O2    c    0.684909 *  0.329316 *  0.417495 *   0.87073    1.000000    
    115 O2    c    0.371850 *  0.323857 *  0.970277 *   0.87073    1.000000    
    116 O2    c    0.668163 *  0.043902 *  0.304569 *   0.87073    1.000000    
    117 O3    c    0.942248 *  0.620297 *  0.641535 *   1.33043    1.000000    
    118 O2    c    0.625608 *  0.670287 *  0.471465 *   0.87073    1.000000    
    119 O2    c    0.335966 *  0.962856 *  0.805761 *   0.87073    1.000000    
    120 O2    c    0.040243 *  0.373849 *  0.138392 *   0.87073    1.000000    
    121 O2    c    0.334430 *  0.369552 *  0.362902 *   0.87073    1.000000    
    122 O2    c    0.039534 *  0.665790 *  0.030001 *   0.87073    1.000000    
    123 O2    c    0.631813 *  0.950243 *  0.698585 *   0.87073    1.000000    
    124 O2    c    0.671160 *  0.623990 *  0.863553 *   0.87073    1.000000    
    125 O2    c    0.958539 *  0.333869 *  0.530096 *   0.87073    1.000000    
    126 O2    c    0.369554 *  0.047432 *  0.198263 *   0.87073    1.000000    
    127 O2    c    0.768071 *  0.300353 *  0.011689 *   0.87073    1.000000    
    128 O2    c    0.707853 *  0.474794 *  0.344784 *   0.87073    1.000000    
    129 O2    c    0.532190 *  0.218977 *  0.678381 *   0.87073    1.000000    
    130 O2    c    0.231898 *  0.699627 *  0.511206 *   0.87073    1.000000    
    131 O3    c    0.300142 *  0.542612 *  0.841046 *   1.33043    1.000000    
    132 O2    c    0.462005 *  0.773186 *  0.180081 *   0.87073    1.000000    
    133 O3    c    0.298561 *  0.755421 *  0.327328 *   1.33043    1.000000    
    134 O2    c    0.462701 *  0.689288 *  0.988117 *   0.87073    1.000000    
    135 O2    c    0.229532 *  0.532075 *  0.655798 *   0.87073    1.000000    
    136 O2    c    0.705438 *  0.230070 *  0.823978 *   0.87073    1.000000    
    137 O2    c    0.536449 *  0.308773 *  0.489907 *   0.87073    1.000000    
    138 O2    c    0.767013 *  0.466669 *  0.157025 *   0.87073    1.000000    
    139 O2    c    0.780327 *  0.531465 *  0.029394 *   0.87073    1.000000    
    140 O2    c    0.476790 *  0.256204 *  0.360508 *   0.87073    1.000000    
    141 O2    c    0.752777 *  0.207578 *  0.695265 *   0.87073    1.000000    
    142 O2    c    0.210089 *  0.470313 *  0.531324 *   0.87073    1.000000    
    143 O2    c    0.532248 *  0.742583 *  0.862498 *   0.87073    1.000000    
    144 O2    c    0.249713 *  0.789509 *  0.197043 *   0.87073    1.000000    
    145 O2    c    0.530338 *  0.786538 *  0.305472 *   0.87073    1.000000    
    146 O2    c    0.250570 *  0.460877 *  0.971679 *   0.87073    1.000000    
    147 O3    c    0.232779 *  0.759933 *  0.643999 *   1.33043    1.000000    
    148 O2    c    0.474284 *  0.218226 *  0.806050 *   0.87073    1.000000    
    149 O2    c    0.753500 *  0.540415 *  0.472858 *   0.87073    1.000000    
    150 O2    c    0.780753 *  0.248688 *  0.139263 *   0.87073    1.000000    
    151 O3    c    0.215137 *  0.301662 *  0.901179 *   1.33043    1.000000    
    152 O2    c    0.667440 *  0.908284 *  0.232782 *   0.87073    1.000000    
    153 O3    c    0.094809 *  0.783009 *  0.559098 *   1.33043    1.000000    
    154 O2    c    0.770914 *  0.682327 *  0.398623 *   0.87073    1.000000    
    155 O2    c    0.326533 *  0.088942 *  0.732462 *   0.87073    1.000000    
    156 O2    c    0.906935 *  0.230741 *  0.065309 *   0.87073    1.000000    
    157 O2    c    0.329662 *  0.228829 *  0.434618 *   0.87073    1.000000    
    158 O2    c    0.904944 *  0.675279 *  0.102981 *   0.87073    1.000000    
    159 O2    c    0.775389 *  0.089026 *  0.770308 *   0.87073    1.000000    
    160 O2    c    0.669064 *  0.759236 *  0.935156 *   0.87073    1.000000    
    161 O2    c    0.086990 *  0.328342 *  0.602649 *   0.87073    1.000000    
    162 O3    c    0.213442 *  0.912820 *  0.267381 *   1.33043    1.000000    
    163 O2    c    0.578867 *  0.552273 *  0.987891 *   0.87073    1.000000    
    164 O3    c    0.452862 *  0.045646 *  0.330499 *   1.33043    1.000000    
    165 O2    c    0.973892 *  0.418307 *  0.658342 *   0.87073    1.000000    
    166 O2    c    0.408458 *  0.439407 *  0.489516 *   0.87073    1.000000    
    167 O2    c    0.564884 *  0.972589 *  0.826252 *   0.87073    1.000000    
    168 O2    c    0.025792 *  0.588451 *  0.158450 *   0.87073    1.000000    
    169 O2    c    0.562993 *  0.587479 *  0.342474 *   0.87073    1.000000    
    170 O2    c    0.026190 *  0.437577 *  0.009829 *   0.87073    1.000000    
    171 O2    c    0.417383 *  0.964553 *  0.678465 *   0.87073    1.000000    
    172 O3    c    0.454847 *  0.407211 *  0.838059 *   1.33043    1.000000    
    173 O2    c    0.976112 *  0.560451 *  0.509976 *   0.87073    1.000000    
    174 O2    c    0.576755 *  0.025765 *  0.180437 *   0.87073    1.000000    
    175 O2    c    0.577606 *  0.165217 *  0.252560 *   0.87073    1.000000    
    176 O2    c    0.838938 *  0.421122 *  0.583703 *   0.87073    1.000000    
    177 O2    c    0.580653 *  0.413586 *  0.915901 *   0.87073    1.000000    
    178 O2    c    0.421838 *  0.833379 *  0.752902 *   0.87073    1.000000    
    179 O2    c    0.162540 *  0.581009 *  0.084080 *   0.87073    1.000000    
    180 O2    c    0.418548 *  0.581759 *  0.416088 *   0.87073    1.000000    
    181 F     c    0.421711 *  0.906663 *  0.261838 *   0.56000    1.000000    
    182 F     c    0.093937 *  0.585208 *  0.589128 *   0.56000    1.000000    
    183 F     c    0.423113 *  0.515090 *  0.906694 *   0.56000    1.000000    
    184 F     c    0.555578 *  0.092803 *  0.752611 *   0.56000    1.000000    
    185 F     c    0.902224 *  0.451173 *  0.084527 *   0.56000    1.000000    
    186 F     c    0.552885 *  0.456169 *  0.416880 *   0.56000    1.000000    
    187 O2    s    0.918462 *  0.992805 *  0.000751 *  -2.87073    1.000000    
    188 O2    s    0.002145 *  0.929820 *  0.332170 *  -2.87073    1.000000    
    189 O2    s    0.081967 *  0.077265 *  0.667192 *  -2.87073    1.000000    
    190 O2    s    0.078690 *  0.001438 *  0.499712 *  -2.87073    1.000000    
    191 O2    s    0.002589 *  0.072636 *  0.834259 *  -2.87073    1.000000    
    192 O2    s    0.917053 *  0.924361 *  0.166607 *  -2.87073    1.000000    
    193 O2    s    0.354283 *  0.576096 *  0.331998 *  -2.87073    1.000000    
    194 O2    s    0.422009 *  0.760800 *  0.669520 *  -2.87073    1.000000    
    195 O2    s    0.230159 *  0.642973 *  0.000738 *  -2.87073    1.000000    
    196 O2    s    0.661611 *  0.413988 *  0.833600 *  -2.87073    1.000000    
    197 O2    s    0.584016 *  0.235974 *  0.168221 *  -2.87073    1.000000    
    198 O2    s    0.767615 *  0.356616 *  0.500319 *  -2.87073    1.000000    
    199 O2    s    0.585259 *  0.348770 *  0.000476 *  -2.87073    1.000000    
    200 O2    s    0.758089 *  0.400862 *  0.666824 *  -2.87073    1.000000    
    201 O2    s    0.662319 *  0.245665 *  0.334202 *  -2.87073    1.000000    
    202 O2    s    0.412751 *  0.646490 *  0.500241 *  -2.87073    1.000000    
    203 O2    s    0.230120 *  0.587315 *  0.167503 *  -2.87073    1.000000    
    204 O2    s    0.355661 *  0.776913 *  0.836610 *  -2.87073    1.000000    
    205 O2    s    0.117039 *  0.210436 *  0.974968 *  -2.87073    1.000000    
    206 O2    s    0.781522 *  0.905836 *  0.304140 *  -2.87073    1.000000    
    207 O3    s    0.090744 *  0.877634 *  0.635986 *  -3.33043    1.000000    
    208 O2    s    0.878908 *  0.787783 *  0.469986 *  -2.87073    1.000000    
    209 O2    s    0.227026 *  0.104830 *  0.805355 *  -2.87073    1.000000    
    210 O2    s    0.902146 *  0.122393 *  0.137061 *  -2.87073    1.000000    
    211 O2    s    0.227757 *  0.120471 *  0.361424 *  -2.87073    1.000000    
    212 O2    s    0.901505 *  0.779464 *  0.031066 *  -2.87073    1.000000    
    213 O2    s    0.883204 *  0.090853 *  0.697902 *  -2.87073    1.000000    
    214 O2    s    0.784570 *  0.875606 *  0.864083 *  -2.87073    1.000000    
    215 O2    s    0.097127 *  0.218069 *  0.531026 *  -2.87073    1.000000    
    216 O2    s    0.115118 *  0.905623 *  0.193315 *  -2.87073    1.000000    
    217 O2    s    0.927811 *  0.863573 *  0.249329 *  -2.87073    1.000000    
    218 O2    s    0.144670 *  0.071292 *  0.583230 *  -2.87073    1.000000    
    219 O2    s    0.932761 *  0.065989 *  0.918116 *  -2.87073    1.000000    
    220 O2    s    0.077051 *  0.143270 *  0.750837 *  -2.87073    1.000000    
    221 O2    s    0.853399 *  0.927737 *  0.083726 *  -2.87073    1.000000    
    222 O2    s    0.069694 *  0.934436 *  0.415536 *  -2.87073    1.000000    
    223 O2    s    0.905034 *  0.199853 *  0.983111 *  -2.87073    1.000000    
    224 O2    s    0.799834 *  0.708944 *  0.315850 *  -2.87073    1.000000    
    225 O2    s    0.296865 *  0.077689 *  0.649081 *  -2.87073    1.000000    
    226 O2    s    0.090088 *  0.794125 *  0.477325 *  -2.87073    1.000000    
    227 O3    s    0.201157 *  0.295825 *  0.816968 *  -3.33043    1.000000    
    228 O2    s    0.698557 *  0.912252 *  0.149226 *  -2.87073    1.000000    
    229 O3    s    0.199214 *  0.903365 *  0.351304 *  -3.33043    1.000000    
    230 O2    s    0.699205 *  0.787997 *  0.018536 *  -2.87073    1.000000    
    231 O2    s    0.091402 *  0.296131 *  0.685595 *  -2.87073    1.000000    
    232 O2    s    0.800228 *  0.089739 *  0.852872 *  -2.87073    1.000000    
    233 O2    s    0.298100 *  0.205989 *  0.517486 *  -2.87073    1.000000    
    234 O2    s    0.903327 *  0.703952 *  0.184832 *  -2.87073    1.000000    
    235 O2    s    0.323904 *  0.657682 *  0.250662 *  -2.87073    1.000000    
    236 O2    s    0.343469 *  0.673147 *  0.584099 *  -2.87073    1.000000    
    237 O2    s    0.325031 *  0.665910 *  0.917657 *  -2.87073    1.000000    
    238 O2    s    0.676901 *  0.338046 *  0.750348 *  -2.87073    1.000000    
    239 O2    s    0.653306 *  0.326437 *  0.084388 *  -2.87073    1.000000    
    240 O2    s    0.678918 *  0.335350 *  0.417436 *  -2.87073    1.000000    
    241 O2    s    0.375297 *  0.333257 *  0.968257 *  -2.87073    1.000000    
    242 O2    s    0.658954 *  0.037380 *  0.302731 *  -2.87073    1.000000    
    243 O3    s    0.946632 *  0.612704 *  0.639172 *  -3.33043    1.000000    
    244 O2    s    0.622642 *  0.660507 *  0.469104 *  -2.87073    1.000000    
    245 O2    s    0.346214 *  0.969369 *  0.803470 *  -2.87073    1.000000    
    246 O2    s    0.033464 *  0.377025 *  0.136069 *  -2.87073    1.000000    
    247 O2    s    0.344842 *  0.373283 *  0.365005 *  -2.87073    1.000000    
    248 O2    s    0.032767 *  0.655844 *  0.032301 *  -2.87073    1.000000    
    249 O2    s    0.628638 *  0.957376 *  0.700739 *  -2.87073    1.000000    
    250 O2    s    0.661891 *  0.621320 *  0.865366 *  -2.87073    1.000000    
    251 O2    s    0.965029 *  0.343177 *  0.532253 *  -2.87073    1.000000    
    252 O2    s    0.373091 *  0.041505 *  0.200256 *  -2.87073    1.000000    
    253 O2    s    0.774968 *  0.308007 *  0.014779 *  -2.87073    1.000000    
    254 O2    s    0.699652 *  0.474100 *  0.347869 *  -2.87073    1.000000    
    255 O2    s    0.532951 *  0.212084 *  0.681456 *  -2.87073    1.000000    
    256 O2    s    0.225569 *  0.692448 *  0.513987 *  -2.87073    1.000000    
    257 O3    s    0.309102 *  0.547369 *  0.844781 *  -3.33043    1.000000    
    258 O2    s    0.461688 *  0.779956 *  0.182839 *  -2.87073    1.000000    
    259 O3    s    0.307544 *  0.759478 *  0.323580 *  -3.33043    1.000000    
    260 O2    s    0.462461 *  0.682196 *  0.985338 *  -2.87073    1.000000    
    261 O2    s    0.222928 *  0.532717 *  0.653313 *  -2.87073    1.000000    
    262 O2    s    0.697613 *  0.222582 *  0.820775 *  -2.87073    1.000000    
    263 O2    s    0.536884 *  0.315912 *  0.486691 *  -2.87073    1.000000    
    264 O2    s    0.773903 *  0.465914 *  0.153891 *  -2.87073    1.000000    
    265 O2    s    0.785724 *  0.528825 *  0.031913 *  -2.87073    1.000000    
    266 O2    s    0.479056 *  0.263442 *  0.363252 *  -2.87073    1.000000    
    267 O2    s    0.744840 *  0.202418 *  0.697952 *  -2.87073    1.000000    
    268 O2    s    0.206185 *  0.472283 *  0.533391 *  -2.87073    1.000000    
    269 O2    s    0.530968 *  0.736705 *  0.864716 *  -2.87073    1.000000    
    270 O2    s    0.256194 *  0.793022 *  0.199261 *  -2.87073    1.000000    
    271 O2    s    0.528886 *  0.791137 *  0.303284 *  -2.87073    1.000000    
    272 O2    s    0.257139 *  0.463820 *  0.969395 *  -2.87073    1.000000    
    273 O3    s    0.229364 *  0.749578 *  0.641219 *  -3.33043    1.000000    
    274 O2    s    0.476885 *  0.213005 *  0.803487 *  -2.87073    1.000000    
    275 O2    s    0.745489 *  0.537490 *  0.470254 *  -2.87073    1.000000    
    276 O2    s    0.786024 *  0.256774 *  0.136726 *  -2.87073    1.000000    
    277 O3    s    0.224997 *  0.311721 *  0.903830 *  -3.33043    1.000000    
    278 O2    s    0.658958 *  0.908145 *  0.233445 *  -2.87073    1.000000    
    279 O3    s    0.094938 *  0.771475 *  0.558637 *  -3.33043    1.000000    
    280 O2    s    0.761734 *  0.672450 *  0.399390 *  -2.87073    1.000000    
    281 O2    s    0.335913 *  0.089270 *  0.733331 *  -2.87073    1.000000    
    282 O2    s    0.906507 *  0.240020 *  0.066246 *  -2.87073    1.000000    
    283 O2    s    0.338804 *  0.238482 *  0.433826 *  -2.87073    1.000000    
    284 O2    s    0.904652 *  0.665553 *  0.102037 *  -2.87073    1.000000    
    285 O2    s    0.765770 *  0.089207 *  0.769456 *  -2.87073    1.000000    
    286 O2    s    0.660624 *  0.750929 *  0.934532 *  -2.87073    1.000000    
    287 O2    s    0.088015 *  0.336804 *  0.601778 *  -2.87073    1.000000    
    288 O3    s    0.223238 *  0.912556 *  0.264691 *  -3.33043    1.000000    
    289 O2    s    0.575573 *  0.552909 *  0.985060 *  -2.87073    1.000000    
    290 O3    s    0.456486 *  0.042799 *  0.326398 *  -3.33043    1.000000    
    291 O2    s    0.978283 *  0.421271 *  0.655350 *  -2.87073    1.000000    
    292 O2    s    0.414007 *  0.439570 *  0.486332 *  -2.87073    1.000000    
    293 O2    s    0.565271 *  0.977895 *  0.822776 *  -2.87073    1.000000    
    294 O2    s    0.020787 *  0.583523 *  0.155040 *  -2.87073    1.000000    
    295 O2    s    0.563487 *  0.582947 *  0.345902 *  -2.87073    1.000000    
    296 O2    s    0.021248 *  0.437391 *  0.013209 *  -2.87073    1.000000    
    297 O2    s    0.421628 *  0.969292 *  0.681699 *  -2.87073    1.000000    
    298 O3    s    0.458304 *  0.413666 *  0.842140 *  -3.33043    1.000000    
    299 O2    s    0.979676 *  0.560627 *  0.512955 *  -2.87073    1.000000    
    300 O2    s    0.573524 *  0.021891 *  0.183250 *  -2.87073    1.000000    
    301 O2    s    0.572910 *  0.155713 *  0.252165 *  -2.87073    1.000000    
    302 O2    s    0.848585 *  0.425860 *  0.583434 *  -2.87073    1.000000    
    303 O2    s    0.575800 *  0.418291 *  0.916301 *  -2.87073    1.000000    
    304 O2    s    0.427538 *  0.844723 *  0.752793 *  -2.87073    1.000000    
    305 O2    s    0.151353 *  0.575424 *  0.084106 *  -2.87073    1.000000    
    306 O2    s    0.424093 *  0.575926 *  0.416191 *  -2.87073    1.000000    
    307 F     s    0.415059 *  0.906519 *  0.264717 *  -1.56000    1.000000    
    308 F     s    0.093966 *  0.593414 *  0.590541 *  -1.56000    1.000000    
    309 F     s    0.416701 *  0.508820 *  0.903960 *  -1.56000    1.000000    
    310 F     s    0.556140 *  0.093167 *  0.752768 *  -1.56000    1.000000    
    311 F     s    0.901987 *  0.451075 *  0.084568 *  -1.56000    1.000000    
    312 F     s    0.553200 *  0.456231 *  0.416865 *  -1.56000    1.000000    
--------------------------------------------------------------------------------



********************************************************************************
*  General input information                                                   *
********************************************************************************

  Species output for all configurations : 

--------------------------------------------------------------------------------
  Species    Type    Atomic    Atomic    Charge       Radii (Angs)     Library
                     Number     Mass       (e)     Cova   Ionic  VDW   Symbol
--------------------------------------------------------------------------------
    Si       Core       14      28.09   4.000000   1.200  0.000  2.100          
    O1       Core        8      16.00   1.733957   0.730  0.000  1.360          
    O1       Shell       8       0.00  -3.733957   0.730  0.000  1.360          
    O2       Core        8      16.00   0.870733   0.730  0.000  1.360          
    O2       Shell       8       0.00  -2.870733   0.730  0.000  1.360          
    O3       Core        8      16.00   1.330431   0.730  0.000  1.360          
    O3       Shell       8       0.00  -3.330431   0.730  0.000  1.360          
    F        Core        9      19.00   0.560000   0.710  0.000  1.300          
    F        Shell       9       0.00  -1.560000   0.710  0.000  1.300          
    Ge       Core       32      72.61   4.000000   1.170  0.000  1.750          
--------------------------------------------------------------------------------


  Lattice summation method               =    Ewald          (3-D)
                                         =    Parry          (2-D)
                                         =    Saunders et al (1-D)
  Accuracy factor for lattice sums       =   12.000


  Time limit = Infinity

  Maximum range for interatomic potentials =        16.000000 Angstroms

  Taper potentials to zero over   1.0000 Angstroms using polynomial

  General interatomic potentials :

--------------------------------------------------------------------------------
Atom  Types   Potential         A         B         C         D     Cutoffs(Ang)
  1     2                                                            Min    Max 
--------------------------------------------------------------------------------
Si   c O1   s Buckingham    0.132E+04 0.318      10.1      0.00     0.000 16.000
Si   c O2   s Buckingham    0.132E+04 0.318      10.1      0.00     0.000 16.000
Si   c O3   s Buckingham    0.132E+04 0.318      10.1      0.00     0.000 16.000
Ge   c O1   s Buckingham    0.150E+04 0.326      16.8      0.00     0.000 16.000
Ge   c O2   s Buckingham    0.150E+04 0.326      16.8      0.00     0.000 16.000
Ge   c O3   s Buckingham    0.150E+04 0.326      16.8      0.00     0.000 16.000
O1   s O1   s Buckingham    0.228E+05 0.149      10.9      0.00     0.000 16.000
O1   s O2   s Buckingham    0.228E+05 0.149      10.9      0.00     0.000 16.000
O1   s O3   s Buckingham    0.228E+05 0.149      10.9      0.00     0.000 16.000
O2   s O2   s Buckingham    0.228E+05 0.149      10.9      0.00     0.000 16.000
O2   s O3   s Buckingham    0.228E+05 0.149      10.9      0.00     0.000 16.000
O3   s O3   s Buckingham    0.228E+05 0.149      10.9      0.00     0.000 16.000
Si   c F    s Buckingham     977.     0.282      0.00      0.00     0.000 16.000
Ge   c F    s Buckingham     681.     0.320      0.00      0.00     0.000 16.000
F    s F    s Buckingham     540.     0.262      0.00      0.00     0.000 16.000
O1   s F    s Buckingham    0.168E+04 0.268      0.00      0.00     0.000 16.000
O2   s F    s Buckingham    0.168E+04 0.268      0.00      0.00     0.000 16.000
O3   s F    s Buckingham    0.168E+04 0.268      0.00      0.00     0.000 16.000
O2   c O2   s Spring (c-s)   76.0      0.00      0.00      0.00     0.000  0.800
O3   c O3   s Spring (c-s)   128.      0.00      0.00      0.00     0.000  0.800
O1   c O1   s Spring (c-s)   180.      0.00      0.00      0.00     0.000  0.800
F    c F    s Spring (c-s)   33.5      0.00      0.00      0.00     0.000  0.800
--------------------------------------------------------------------------------

  General Three-body potentials :

  Harmonic form:

--------------------------------------------------------------------------------
Atom    Atom    Atom           Force Constants            Theta     Cutoffs  
  1       2       3     (eVrad**-2/eVrad**-3/eVrad**-4)   (deg)  1-2  1-3  2-3
--------------------------------------------------------------------------------
Si    c O1    s O1    s  1.261        0.0000    0.0000   109.470 0.00 0.00 0.00
                                                                 1.90 1.90 3.50
Si    c O1    s O2    s  1.261        0.0000    0.0000   109.470 0.00 0.00 0.00
                                                                 1.90 1.90 3.50
Si    c O2    s O2    s  1.261        0.0000    0.0000   109.470 0.00 0.00 0.00
                                                                 1.90 1.90 3.50
--------------------------------------------------------------------------------

********************************************************************************
*  Output for configuration   1                                                *
********************************************************************************


  Components of energy : 

--------------------------------------------------------------------------------
  Interatomic potentials     =        2066.17704969 eV
  Three-body potentials      =           0.50871375 eV
  Monopole - monopole (real) =       -6614.55932122 eV
  Monopole - monopole (recip)=       -3172.48437489 eV
  Monopole - monopole (total)=       -9787.04369611 eV
  Neutralising energy        =          -6.46237629 eV
--------------------------------------------------------------------------------
  Total lattice energy       =       -7726.82030895 eV
--------------------------------------------------------------------------------
  Total lattice energy       =         -745520.0445 kJ/(mole unit cells)
--------------------------------------------------------------------------------


  Number of variables =      939

  Maximum number of calculations  =          1000
  Maximum Hessian update interval =            10
  Maximum step size               =   1.000000000
  Maximum parameter tolerance     =   0.000010000
  Maximum function  tolerance     =   0.000010000
  Maximum gradient  tolerance     =   0.001000000
  Maximum gradient  component     =   0.010000000

  Symmetry not applied to optimisation

  Cell parameters to be optimised using strains

  Newton-Raphson optimiser to be used

  BFGS hessian update to be used

  Dumpfile to be written after every cycle

  Start of bulk optimisation :

  Cycle:      0 Energy:     -7726.820309  Gnorm:      0.001238  CPU:    1.056
  ** Hessian calculated **
  Cycle:      1 Energy:     -7726.858771  Gnorm:      0.002312  CPU:    2.951
  Cycle:      2 Energy:     -7726.858941  Gnorm:      0.000119  CPU:    4.324
  Cycle:      3 Energy:     -7726.858944  Gnorm:      0.000026  CPU:    5.696


  **** Optimisation achieved ****


  Final energy =   -7726.85894433 eV
  Final Gnorm  =       0.00000155

  Components of energy : 

--------------------------------------------------------------------------------
  Interatomic potentials     =        2066.54784172 eV
  Three-body potentials      =           0.52170744 eV
  Monopole - monopole (real) =       -6613.77289659 eV
  Monopole - monopole (recip)=       -3173.69076370 eV
  Monopole - monopole (total)=       -9787.46366029 eV
  Neutralising energy        =          -6.46483320 eV
--------------------------------------------------------------------------------
  Total lattice energy       =       -7726.85894433 eV
--------------------------------------------------------------------------------
  Total lattice energy       =         -745523.7723 kJ/(mole unit cells)
--------------------------------------------------------------------------------

  Final fractional coordinates of atoms :

--------------------------------------------------------------------------------
   No.  Atomic        x           y          z          Radius
        Label       (Frac)      (Frac)     (Frac)       (Angs) 
--------------------------------------------------------------------------------
     1  Si    c     0.699600    0.375700    0.033890    0.000000
     2  Si    c     0.641902    0.340447    0.366915    0.000000
     3  Si    c     0.686588    0.293395    0.700594    0.000000
     4  Si    c     0.313251    0.634835    0.534587    0.000000
     5  Si    c     0.377897    0.681817    0.866201    0.000000
     6  Si    c     0.316113    0.700700    0.202255    0.000000
     7  Si    c     0.377483    0.698206    0.304536    0.000000
     8  Si    c     0.318060    0.615338    0.968303    0.000000
     9  Si    c     0.315191    0.686059    0.638016    0.000000
    10  Si    c     0.639640    0.302324    0.801225    0.000000
    11  Si    c     0.693462    0.393246    0.467722    0.000000
    12  Si    c     0.697333    0.323001    0.134916    0.000000
    13  Si    c     0.528142    0.409286    0.966836    0.000000
    14  Si    c     0.590952    0.126019    0.304324    0.000000
    15  Si    c     0.892907    0.476201    0.636594    0.000000
    16  Si    c     0.483145    0.590541    0.468713    0.000000
    17  Si    c     0.432210    0.900395    0.804206    0.000000
    18  Si    c     0.106960    0.528282    0.136508    0.000000
    19  Si    c     0.430990    0.533491    0.367213    0.000000
    20  Si    c     0.108819    0.577609    0.034474    0.000000
    21  Si    c     0.486370    0.889165    0.703123    0.000000
    22  Si    c     0.592635    0.469113    0.863850    0.000000
    23  Si    c     0.902033    0.429409    0.532535    0.000000
    24  Si    c     0.524560    0.117296    0.201388    0.000000
    25  Ge    c     0.318695    0.411587    0.858291    0.000000
    26  Si    c     0.596622    0.903791    0.186309    0.000000
    27  Si    c     0.112006    0.714715    0.516094    0.000000
    28  Si    c     0.714087    0.615377    0.352911    0.000000
    29  Si    c     0.407891    0.093293    0.686360    0.000000
    30  Si    c     0.900889    0.297109    0.019344    0.000000
    31  Si    c     0.413137    0.310390    0.482298    0.000000
    32  Si    c     0.897805    0.600732    0.150499    0.000000
    33  Si    c     0.714031    0.102174    0.817277    0.000000
    34  Si    c     0.599560    0.693722    0.982737    0.000000
    35  Si    c     0.106326    0.404397    0.651697    0.000000
    36  Ge    c     0.318185    0.909773    0.311047    0.000000
    37  Si    c     0.244548    0.328318    0.954176    0.000000
    38  Si    c     0.662243    0.915690    0.287959    0.000000
    39  Ge    c     0.102166    0.740402    0.616810    0.000000
    40  Si    c     0.763831    0.673197    0.453969    0.000000
    41  Si    c     0.354808    0.100581    0.787833    0.000000
    42  Si    c     0.906317    0.250314    0.120517    0.000000
    43  Si    c     0.356338    0.255844    0.381021    0.000000
    44  Si    c     0.907554    0.656056    0.049497    0.000000
    45  Si    c     0.764907    0.090263    0.716616    0.000000
    46  Si    c     0.664272    0.750019    0.881110    0.000000
    47  Si    c     0.101806    0.347864    0.548925    0.000000
    48  Si    c     0.241633    0.914699    0.215243    0.000000
    49  Si    c     0.969790    0.115731    0.969655    0.000000
    50  Si    c     0.887959    0.862298    0.301768    0.000000
    51  Si    c     0.160898    0.026219    0.634320    0.000000
    52  Si    c     0.043231    0.890776    0.466110    0.000000
    53  Si    c     0.134666    0.162139    0.803589    0.000000
    54  Si    c     0.843101    0.971058    0.134738    0.000000
    55  Si    c     0.133631    0.977180    0.364720    0.000000
    56  Si    c     0.845351    0.873013    0.034136    0.000000
    57  Si    c     0.045238    0.155882    0.701176    0.000000
    58  Si    c     0.889090    0.029379    0.867115    0.000000
    59  Si    c     0.167516    0.130292    0.534163    0.000000
    60  Si    c     0.966049    0.850959    0.199197    0.000000
    61  O2    c     0.922591    0.991729    0.001046    0.000000
    62  O2    c     0.010525    0.947273    0.333053    0.000000
    63  O2    c     0.091390    0.082339    0.667266    0.000000
    64  O2    c     0.088525    0.010776    0.500402    0.000000
    65  O2    c     0.009240    0.067511    0.834182    0.000000
    66  O2    c     0.919732    0.927291    0.167236    0.000000
    67  O2    c     0.350250    0.573766    0.333572    0.000000
    68  O2    c     0.440199    0.761865    0.671168    0.000000
    69  O2    c     0.234856    0.653876    0.002213    0.000000
    70  O2    c     0.681238    0.427318    0.834210    0.000000
    71  O2    c     0.574216    0.239234    0.167766    0.000000
    72  O2    c     0.777601    0.353471    0.499838    0.000000
    73  O2    c     0.578649    0.336971    0.000223    0.000000
    74  O2    c     0.762903    0.413078    0.666605    0.000000
    75  O2    c     0.681856    0.257200    0.333081    0.000000
    76  O2    c     0.434547    0.667470    0.501758    0.000000
    77  O2    c     0.232110    0.577761    0.169254    0.000000
    78  O2    c     0.350722    0.780838    0.838370    0.000000
    79  O2    c     0.121959    0.208211    0.979357    0.000000
    80  O2    c     0.789911    0.918626    0.307014    0.000000
    81  O3    c     0.093453    0.877141    0.638280    0.000000
    82  O2    c     0.888986    0.800180    0.473972    0.000000
    83  O2    c     0.232487    0.105195    0.809085    0.000000
    84  O2    c     0.906268    0.124695    0.140718    0.000000
    85  O2    c     0.233473    0.131359    0.359452    0.000000
    86  O2    c     0.909377    0.782592    0.029420    0.000000
    87  O2    c     0.890437    0.090067    0.695708    0.000000
    88  O2    c     0.791326    0.875210    0.862163    0.000000
    89  O2    c     0.105997    0.224138    0.528881    0.000000
    90  O2    c     0.118506    0.910290    0.189825    0.000000
    91  O2    c     0.934095    0.873056    0.250001    0.000000
    92  O2    c     0.156104    0.080002    0.584568    0.000000
    93  O2    c     0.938943    0.064087    0.918595    0.000000
    94  O2    c     0.084594    0.143913    0.751747    0.000000
    95  O2    c     0.855869    0.929456    0.084226    0.000000
    96  O2    c     0.076604    0.946546    0.415846    0.000000
    97  O2    c     0.897599    0.196798    0.981081    0.000000
    98  O2    c     0.810339    0.711641    0.314274    0.000000
    99  O2    c     0.313456    0.090189    0.646875    0.000000
   100  O2    c     0.110585    0.804061    0.474637    0.000000
   101  O3    c     0.204676    0.307761    0.816727    0.000000
   102  O2    c     0.690804    0.903244    0.146659    0.000000
   103  O3    c     0.204709    0.901354    0.352910    0.000000
   104  O2    c     0.693453    0.787814    0.022334    0.000000
   105  O2    c     0.108019    0.307813    0.689207    0.000000
   106  O2    c     0.810140    0.102486    0.856257    0.000000
   107  O2    c     0.318599    0.213694    0.521086    0.000000
   108  O2    c     0.893873    0.697808    0.188704    0.000000
   109  O2    c     0.320726    0.649460    0.252634    0.000000
   110  O2    c     0.365784    0.687568    0.585647    0.000000
   111  O2    c     0.321072    0.672061    0.918302    0.000000
   112  O2    c     0.694515    0.357092    0.750717    0.000000
   113  O2    c     0.640590    0.320829    0.084330    0.000000
   114  O2    c     0.696926    0.337645    0.417154    0.000000
   115  O2    c     0.372543    0.323455    0.970403    0.000000
   116  O2    c     0.671673    0.049146    0.304218    0.000000
   117  O3    c     0.952990    0.627338    0.641934    0.000000
   118  O2    c     0.638918    0.679135    0.472741    0.000000
   119  O2    c     0.345744    0.969669    0.806769    0.000000
   120  O2    c     0.037772    0.372412    0.139625    0.000000
   121  O2    c     0.344708    0.378363    0.364496    0.000000
   122  O2    c     0.039820    0.664760    0.031252    0.000000
   123  O2    c     0.642293    0.956218    0.699802    0.000000
   124  O2    c     0.673949    0.626245    0.864403    0.000000
   125  O2    c     0.972442    0.343156    0.530408    0.000000
   126  O2    c     0.368794    0.046960    0.198430    0.000000
   127  O2    c     0.768290    0.299959    0.011972    0.000000
   128  O2    c     0.717527    0.483250    0.344974    0.000000
   129  O2    c     0.542985    0.225456    0.679237    0.000000
   130  O2    c     0.245842    0.709689    0.512113    0.000000
   131  O3    c     0.302857    0.545758    0.841810    0.000000
   132  O2    c     0.461009    0.771926    0.181106    0.000000
   133  O3    c     0.302792    0.760699    0.328551    0.000000
   134  O2    c     0.463331    0.688978    0.988857    0.000000
   135  O2    c     0.240190    0.538971    0.656824    0.000000
   136  O2    c     0.715317    0.236740    0.824848    0.000000
   137  O2    c     0.550382    0.317415    0.490165    0.000000
   138  O2    c     0.764683    0.466103    0.157622    0.000000
   139  O2    c     0.780767    0.531506    0.029637    0.000000
   140  O2    c     0.486417    0.264605    0.361061    0.000000
   141  O2    c     0.763644    0.213948    0.695845    0.000000
   142  O2    c     0.223689    0.480004    0.532288    0.000000
   143  O2    c     0.534882    0.744586    0.863665    0.000000
   144  O2    c     0.248996    0.788449    0.198245    0.000000
   145  O2    c     0.534380    0.792077    0.306386    0.000000
   146  O2    c     0.251073    0.460742    0.972205    0.000000
   147  O3    c     0.243117    0.766867    0.645349    0.000000
   148  O2    c     0.483853    0.224778    0.806523    0.000000
   149  O2    c     0.767288    0.548998    0.473096    0.000000
   150  O2    c     0.778195    0.247700    0.139756    0.000000
   151  O3    c     0.216489    0.302602    0.901638    0.000000
   152  O2    c     0.668464    0.909667    0.233052    0.000000
   153  O3    c     0.107446    0.791747    0.559767    0.000000
   154  O2    c     0.782546    0.691317    0.399440    0.000000
   155  O2    c     0.336594    0.095096    0.733262    0.000000
   156  O2    c     0.905394    0.229334    0.066149    0.000000
   157  O2    c     0.341867    0.237517    0.435631    0.000000
   158  O2    c     0.903675    0.674361    0.103892    0.000000
   159  O2    c     0.785829    0.095655    0.771171    0.000000
   160  O2    c     0.671112    0.760811    0.936081    0.000000
   161  O2    c     0.099271    0.336173    0.603273    0.000000
   162  O3    c     0.214583    0.914812    0.267856    0.000000
   163  O2    c     0.579364    0.551877    0.987958    0.000000
   164  O3    c     0.456871    0.051420    0.330465    0.000000
   165  O2    c     0.984590    0.425190    0.658641    0.000000
   166  O2    c     0.422511    0.448426    0.490730    0.000000
   167  O2    c     0.574113    0.978776    0.827365    0.000000
   168  O2    c     0.023475    0.587041    0.159650    0.000000
   169  O2    c     0.572707    0.596559    0.343737    0.000000
   170  O2    c     0.026451    0.436354    0.011023    0.000000
   171  O2    c     0.428527    0.971101    0.679700    0.000000
   172  O3    c     0.458071    0.410629    0.838230    0.000000
   173  O2    c     0.990131    0.569891    0.510272    0.000000
   174  O2    c     0.575320    0.024762    0.180679    0.000000
   175  O2    c     0.578372    0.167812    0.252239    0.000000
   176  O2    c     0.851246    0.429492    0.583662    0.000000
   177  O2    c     0.581296    0.413549    0.915781    0.000000
   178  O2    c     0.432019    0.839871    0.754296    0.000000
   179  O2    c     0.161421    0.579422    0.085586    0.000000
   180  O2    c     0.430610    0.590964    0.417741    0.000000
   181  F     c     0.423258    0.909202    0.262265    0.000000
   182  F     c     0.106123    0.593570    0.589725    0.000000
   183  F     c     0.424344    0.516035    0.907402    0.000000
   184  F     c     0.567561    0.100520    0.753722    0.000000
   185  F     c     0.900171    0.449767    0.085356    0.000000
   186  F     c     0.566015    0.465442    0.417619    0.000000
   187  O2    s     0.918921    0.991863    0.001368    0.000000
   188  O2    s     0.009178    0.940693    0.332733    0.000000
   189  O2    s     0.093481    0.084871    0.667665    0.000000
   190  O2    s     0.092367    0.010921    0.500393    0.000000
   191  O2    s     0.008383    0.072798    0.834802    0.000000
   192  O2    s     0.916051    0.923742    0.167071    0.000000
   193  O2    s     0.361491    0.582901    0.333924    0.000000
   194  O2    s     0.432340    0.767030    0.671047    0.000000
   195  O2    s     0.230488    0.642018    0.002024    0.000000
   196  O2    s     0.668086    0.419204    0.833964    0.000000
   197  O2    s     0.581698    0.235158    0.167881    0.000000
   198  O2    s     0.781955    0.365513    0.499933    0.000000
   199  O2    s     0.585944    0.348486    0.000257    0.000000
   200  O2    s     0.768791    0.407154    0.666992    0.000000
   201  O2    s     0.668711    0.252276    0.333554    0.000000
   202  O2    s     0.426743    0.656115    0.501831    0.000000
   203  O2    s     0.228040    0.585457    0.169335    0.000000
   204  O2    s     0.361984    0.782431    0.837882    0.000000
   205  O2    s     0.118135    0.210417    0.975907    0.000000
   206  O2    s     0.786400    0.912473    0.304458    0.000000
   207  O3    s     0.101648    0.884996    0.636449    0.000000
   208  O2    s     0.891778    0.796244    0.471107    0.000000
   209  O2    s     0.235700    0.110407    0.806291    0.000000
   210  O2    s     0.899499    0.121216    0.138019    0.000000
   211  O2    s     0.236681    0.129354    0.362260    0.000000
   212  O2    s     0.902319    0.779162    0.031981    0.000000
   213  O2    s     0.893465    0.096979    0.698444    0.000000
   214  O2    s     0.787786    0.877657    0.864673    0.000000
   215  O2    s     0.111757    0.227914    0.531536    0.000000
   216  O2    s     0.114790    0.904477    0.193293    0.000000
   217  O2    s     0.932584    0.869305    0.249942    0.000000
   218  O2    s     0.157922    0.080218    0.583907    0.000000
   219  O2    s     0.936947    0.066152    0.918779    0.000000
   220  O2    s     0.085417    0.147210    0.751496    0.000000
   221  O2    s     0.853187    0.927769    0.084301    0.000000
   222  O2    s     0.078860    0.943456    0.416141    0.000000
   223  O2    s     0.905442    0.198707    0.983843    0.000000
   224  O2    s     0.808709    0.717815    0.316919    0.000000
   225  O2    s     0.308279    0.084156    0.649809    0.000000
   226  O2    s     0.103838    0.804110    0.477819    0.000000
   227  O3    s     0.204521    0.298447    0.818050    0.000000
   228  O2    s     0.696742    0.910367    0.149589    0.000000
   229  O3    s     0.204324    0.910447    0.351445    0.000000
   230  O2    s     0.699492    0.786831    0.019409    0.000000
   231  O2    s     0.101471    0.302659    0.686447    0.000000
   232  O2    s     0.808836    0.094639    0.853470    0.000000
   233  O2    s     0.312485    0.214956    0.518427    0.000000
   234  O2    s     0.901794    0.703830    0.185883    0.000000
   235  O2    s     0.325655    0.659501    0.252298    0.000000
   236  O2    s     0.355416    0.681990    0.585441    0.000000
   237  O2    s     0.326165    0.666967    0.918624    0.000000
   238  O2    s     0.688028    0.344909    0.750879    0.000000
   239  O2    s     0.652312    0.326598    0.084370    0.000000
   240  O2    s     0.690887    0.343638    0.417150    0.000000
   241  O2    s     0.376008    0.332916    0.968395    0.000000
   242  O2    s     0.662515    0.042565    0.302468    0.000000
   243  O3    s     0.957376    0.619723    0.639578    0.000000
   244  O2    s     0.635881    0.669350    0.470351    0.000000
   245  O2    s     0.355864    0.976034    0.804505    0.000000
   246  O2    s     0.031134    0.375687    0.137294    0.000000
   247  O2    s     0.355090    0.382009    0.366535    0.000000
   248  O2    s     0.033007    0.654825    0.033521    0.000000
   249  O2    s     0.639114    0.963445    0.701940    0.000000
   250  O2    s     0.664735    0.623649    0.866147    0.000000
   251  O2    s     0.978868    0.352436    0.532568    0.000000
   252  O2    s     0.372383    0.041107    0.200431    0.000000
   253  O2    s     0.775161    0.307544    0.015071    0.000000
   254  O2    s     0.709338    0.482444    0.348122    0.000000
   255  O2    s     0.543810    0.218599    0.682285    0.000000
   256  O2    s     0.239425    0.702449    0.514875    0.000000
   257  O3    s     0.311850    0.550667    0.845567    0.000000
   258  O2    s     0.460716    0.778770    0.183842    0.000000
   259  O3    s     0.311737    0.764527    0.324761    0.000000
   260  O2    s     0.463079    0.681931    0.986078    0.000000
   261  O2    s     0.233590    0.539620    0.654343    0.000000
   262  O2    s     0.707418    0.229164    0.821587    0.000000
   263  O2    s     0.550734    0.324561    0.486973    0.000000
   264  O2    s     0.771729    0.465467    0.154490    0.000000
   265  O2    s     0.786058    0.528743    0.032198    0.000000
   266  O2    s     0.488698    0.271774    0.363793    0.000000
   267  O2    s     0.755704    0.208869    0.698545    0.000000
   268  O2    s     0.219739    0.481920    0.534344    0.000000
   269  O2    s     0.533671    0.738829    0.865837    0.000000
   270  O2    s     0.255543    0.792024    0.200406    0.000000
   271  O2    s     0.532922    0.796536    0.304181    0.000000
   272  O2    s     0.257658    0.463763    0.969960    0.000000
   273  O3    s     0.239855    0.756580    0.642527    0.000000
   274  O2    s     0.486322    0.219408    0.803991    0.000000
   275  O2    s     0.759148    0.546086    0.470521    0.000000
   276  O2    s     0.783643    0.255857    0.137208    0.000000
   277  O3    s     0.226254    0.312532    0.904416    0.000000
   278  O2    s     0.660078    0.909666    0.233754    0.000000
   279  O3    s     0.107577    0.780213    0.559247    0.000000
   280  O2    s     0.773311    0.681367    0.400256    0.000000
   281  O2    s     0.345953    0.095479    0.734155    0.000000
   282  O2    s     0.905024    0.238675    0.067062    0.000000
   283  O2    s     0.350908    0.247116    0.434795    0.000000
   284  O2    s     0.903474    0.664699    0.102973    0.000000
   285  O2    s     0.776127    0.095765    0.770277    0.000000
   286  O2    s     0.662674    0.752439    0.935407    0.000000
   287  O2    s     0.100284    0.344679    0.602430    0.000000
   288  O3    s     0.224308    0.914508    0.265080    0.000000
   289  O2    s     0.576106    0.552580    0.985159    0.000000
   290  O3    s     0.460631    0.048636    0.326377    0.000000
   291  O2    s     0.989013    0.428160    0.655692    0.000000
   292  O2    s     0.427958    0.448619    0.487527    0.000000
   293  O2    s     0.574314    0.983926    0.823879    0.000000
   294  O2    s     0.018614    0.582210    0.156256    0.000000
   295  O2    s     0.573144    0.591906    0.347163    0.000000
   296  O2    s     0.021457    0.436203    0.014364    0.000000
   297  O2    s     0.432686    0.975828    0.682926    0.000000
   298  O3    s     0.461709    0.416948    0.842342    0.000000
   299  O2    s     0.993588    0.570044    0.513242    0.000000
   300  O2    s     0.572219    0.021007    0.183487    0.000000
   301  O2    s     0.573832    0.158357    0.251902    0.000000
   302  O2    s     0.860847    0.434159    0.583434    0.000000
   303  O2    s     0.576660    0.418431    0.916232    0.000000
   304  O2    s     0.437626    0.851141    0.754198    0.000000
   305  O2    s     0.150351    0.573936    0.085586    0.000000
   306  O2    s     0.436061    0.585070    0.417797    0.000000
   307  F     s     0.416394    0.909145    0.265276    0.000000
   308  F     s     0.106119    0.601905    0.591176    0.000000
   309  F     s     0.417615    0.509499    0.904500    0.000000
   310  F     s     0.568308    0.101050    0.753910    0.000000
   311  F     s     0.899830    0.449614    0.085402    0.000000
   312  F     s     0.566448    0.465530    0.417594    0.000000
--------------------------------------------------------------------------------

  Final Cartesian lattice vectors (Angstroms) :

       11.956346    0.002252    0.003088
       -5.966706   10.388910   -0.005849
        0.208141   -0.250753   29.371136


  Final cell parameters and derivatives :

--------------------------------------------------------------------------------
       a           11.956347 Angstrom     dE/de1(xx)     0.000202 eV/strain
       b           11.980445 Angstrom     dE/de2(yy)     0.000232 eV/strain
       c           29.372944 Angstrom     dE/de3(zz)     0.000327 eV/strain
       alpha       90.654338 Degrees      dE/de4(yz)    -0.000001 eV/strain
       beta        89.579285 Degrees      dE/de5(xz)     0.000027 eV/strain
       gamma      119.859432 Degrees      dE/de6(xy)     0.000018 eV/strain
--------------------------------------------------------------------------------

  Primitive cell volume =          3648.663922 Angs**3

  Density of cell =      1.753544 g/cm**3

  Non-primitive cell volume =          3648.663922 Angs**3


  Final internal derivatives :

--------------------------------------------------------------------------------
   No.  Atomic          a             b             c           Radius
        Label          (eV)          (eV)          (eV)        (eV/Angs)
--------------------------------------------------------------------------------
      1 Si    c       0.000000      0.000000      0.000000      0.000000
      2 Si    c      -0.000061      0.000087      0.000026      0.000000
      3 Si    c      -0.000005     -0.000019     -0.000003      0.000000
      4 Si    c      -0.000005     -0.000010      0.000044      0.000000
      5 Si    c       0.000032     -0.000065      0.000085      0.000000
      6 Si    c      -0.000012      0.000031     -0.000114      0.000000
      7 Si    c       0.000007     -0.000001      0.000068      0.000000
      8 Si    c       0.000016     -0.000016     -0.000023      0.000000
      9 Si    c       0.000015     -0.000010      0.000006      0.000000
     10 Si    c      -0.000003      0.000043      0.000039      0.000000
     11 Si    c       0.000003     -0.000011      0.000003      0.000000
     12 Si    c       0.000005     -0.000005     -0.000056      0.000000
     13 Si    c       0.000019     -0.000004     -0.000023      0.000000
     14 Si    c      -0.000046     -0.000009      0.000225      0.000000
     15 Si    c       0.000018      0.000006      0.000036      0.000000
     16 Si    c       0.000002      0.000007      0.000045      0.000000
     17 Si    c       0.000042     -0.000051     -0.000036      0.000000
     18 Si    c       0.000009      0.000003     -0.000009      0.000000
     19 Si    c       0.000013      0.000034     -0.000207      0.000000
     20 Si    c      -0.000014      0.000001     -0.000022      0.000000
     21 Si    c      -0.000009      0.000023      0.000042      0.000000
     22 Si    c       0.000014     -0.000034      0.000008      0.000000
     23 Si    c       0.000006      0.000005     -0.000005      0.000000
     24 Si    c      -0.000016     -0.000003     -0.000136      0.000000
     25 Ge    c      -0.000060      0.000013     -0.000054      0.000000
     26 Si    c      -0.000004      0.000006     -0.000156      0.000000
     27 Si    c      -0.000030      0.000018     -0.000076      0.000000
     28 Si    c      -0.000027     -0.000011      0.000010      0.000000
     29 Si    c      -0.000004      0.000002      0.000048      0.000000
     30 Si    c       0.000015     -0.000009     -0.000017      0.000000
     31 Si    c      -0.000008     -0.000009      0.000067      0.000000
     32 Si    c       0.000001      0.000021      0.000031      0.000000
     33 Si    c       0.000021     -0.000004     -0.000054      0.000000
     34 Si    c      -0.000004      0.000004      0.000011      0.000000
     35 Si    c       0.000001      0.000000      0.000015      0.000000
     36 Ge    c       0.000059      0.000033     -0.000012      0.000000
     37 Si    c      -0.000026     -0.000010      0.000031      0.000000
     38 Si    c      -0.000003      0.000004      0.000205      0.000000
     39 Ge    c      -0.000018     -0.000021     -0.000015      0.000000
     40 Si    c       0.000007      0.000013      0.000041      0.000000
     41 Si    c      -0.000013      0.000020     -0.000064      0.000000
     42 Si    c       0.000005     -0.000020     -0.000007      0.000000
     43 Si    c       0.000039     -0.000036     -0.000071      0.000000
     44 Si    c       0.000010      0.000013     -0.000026      0.000000
     45 Si    c       0.000008     -0.000015      0.000017      0.000000
     46 Si    c       0.000001      0.000013      0.000033      0.000000
     47 Si    c       0.000007     -0.000012     -0.000007      0.000000
     48 Si    c      -0.000029      0.000011     -0.000185      0.000000
     49 Si    c      -0.000040      0.000007     -0.000158      0.000000
     50 Si    c      -0.000037     -0.000005      0.000266      0.000000
     51 Si    c       0.000011     -0.000002      0.000037      0.000000
     52 Si    c       0.000033     -0.000060      0.000286      0.000000
     53 Si    c      -0.000066      0.000086     -0.000048      0.000000
     54 Si    c       0.000012      0.000003      0.000091      0.000000
     55 Si    c       0.000027     -0.000053     -0.000016      0.000000
     56 Si    c      -0.000004     -0.000009     -0.000026      0.000000
     57 Si    c       0.000024      0.000004      0.000099      0.000000
     58 Si    c       0.000018      0.000026     -0.000008      0.000000
     59 Si    c      -0.000015      0.000009     -0.000037      0.000000
     60 Si    c       0.000086     -0.000020     -0.000289      0.000000
     61 O2    c       0.000004     -0.000008      0.000014      0.000000
     62 O2    c       0.000042     -0.000008     -0.000012      0.000000
     63 O2    c      -0.000005      0.000013     -0.000004      0.000000
     64 O2    c      -0.000007      0.000022      0.000025      0.000000
     65 O2    c      -0.000028      0.000025      0.000073      0.000000
     66 O2    c      -0.000027      0.000030     -0.000056      0.000000
     67 O2    c       0.000045     -0.000051      0.000147      0.000000
     68 O2    c       0.000005     -0.000011     -0.000033      0.000000
     69 O2    c      -0.000022      0.000020      0.000050      0.000000
     70 O2    c      -0.000001     -0.000007     -0.000031      0.000000
     71 O2    c      -0.000046     -0.000027      0.000137      0.000000
     72 O2    c       0.000023     -0.000032      0.000025      0.000000
     73 O2    c      -0.000009      0.000000      0.000005      0.000000
     74 O2    c      -0.000022      0.000006      0.000026      0.000000
     75 O2    c       0.000040     -0.000066     -0.000244      0.000000
     76 O2    c       0.000036     -0.000011     -0.000081      0.000000
     77 O2    c      -0.000004     -0.000056     -0.000096      0.000000
     78 O2    c      -0.000038      0.000063     -0.000033      0.000000
     79 O2    c       0.000009      0.000014     -0.000044      0.000000
     80 O2    c       0.000021     -0.000003      0.000017      0.000000
     81 O3    c       0.000007     -0.000019      0.000001      0.000000
     82 O2    c      -0.000031     -0.000009      0.000005      0.000000
     83 O2    c       0.000024     -0.000031      0.000013      0.000000
     84 O2    c       0.000002     -0.000006      0.000001      0.000000
     85 O2    c       0.000005      0.000001     -0.000018      0.000000
     86 O2    c       0.000005     -0.000007     -0.000009      0.000000
     87 O2    c      -0.000019      0.000006      0.000007      0.000000
     88 O2    c      -0.000015     -0.000040     -0.000008      0.000000
     89 O2    c      -0.000002     -0.000002      0.000001      0.000000
     90 O2    c       0.000001      0.000002      0.000026      0.000000
     91 O2    c      -0.000065     -0.000021      0.000201      0.000000
     92 O2    c      -0.000002      0.000002      0.000004      0.000000
     93 O2    c       0.000059      0.000021      0.000275      0.000000
     94 O2    c      -0.000022     -0.000021     -0.000087      0.000000
     95 O2    c       0.000006     -0.000017     -0.000077      0.000000
     96 O2    c      -0.000028      0.000096     -0.000608      0.000000
     97 O2    c       0.000003     -0.000002      0.000002      0.000000
     98 O2    c       0.000025      0.000028     -0.000024      0.000000
     99 O2    c       0.000000     -0.000003      0.000008      0.000000
    100 O2    c       0.000012     -0.000019     -0.000003      0.000000
    101 O3    c       0.000029     -0.000146     -0.000090      0.000000
    102 O2    c      -0.000036      0.000002      0.000034      0.000000
    103 O3    c      -0.000089      0.000108      0.000021      0.000000
    104 O2    c       0.000005     -0.000003      0.000003      0.000000
    105 O2    c       0.000004     -0.000009      0.000017      0.000000
    106 O2    c       0.000016     -0.000014     -0.000000      0.000000
    107 O2    c       0.000022      0.000002     -0.000029      0.000000
    108 O2    c       0.000010     -0.000022      0.000006      0.000000
    109 O2    c       0.000005     -0.000053      0.000035      0.000000
    110 O2    c       0.000009      0.000004      0.000013      0.000000
    111 O2    c      -0.000008      0.000001      0.000032      0.000000
    112 O2    c       0.000007      0.000004     -0.000001      0.000000
    113 O2    c      -0.000013     -0.000001      0.000014      0.000000
    114 O2    c       0.000032     -0.000029      0.000103      0.000000
    115 O2    c      -0.000015     -0.000000      0.000008      0.000000
    116 O2    c      -0.000020      0.000034      0.000037      0.000000
    117 O3    c      -0.000006     -0.000008     -0.000003      0.000000
    118 O2    c      -0.000014      0.000006      0.000006      0.000000
    119 O2    c      -0.000044      0.000028      0.000022      0.000000
    120 O2    c       0.000009     -0.000010      0.000013      0.000000
    121 O2    c      -0.000014      0.000030     -0.000030      0.000000
    122 O2    c       0.000015     -0.000010     -0.000012      0.000000
    123 O2    c       0.000001      0.000001     -0.000005      0.000000
    124 O2    c       0.000003      0.000027      0.000008      0.000000
    125 O2    c       0.000003     -0.000009     -0.000001      0.000000
    126 O2    c       0.000004      0.000004     -0.000013      0.000000
    127 O2    c      -0.000019      0.000007     -0.000010      0.000000
    128 O2    c       0.000001     -0.000017      0.000002      0.000000
    129 O2    c       0.000004     -0.000001      0.000005      0.000000
    130 O2    c       0.000025     -0.000007     -0.000019      0.000000
    131 O3    c       0.000004     -0.000022      0.000035      0.000000
    132 O2    c      -0.000008     -0.000020     -0.000017      0.000000
    133 O3    c       0.000071     -0.000131      0.000134      0.000000
    134 O2    c      -0.000005      0.000005      0.000004      0.000000
    135 O2    c       0.000004     -0.000002      0.000002      0.000000
    136 O2    c       0.000016     -0.000019      0.000009      0.000000
    137 O2    c       0.000009     -0.000014      0.000033      0.000000
    138 O2    c      -0.000014      0.000000      0.000038      0.000000
    139 O2    c      -0.000021     -0.000016     -0.000044      0.000000
    140 O2    c       0.000022     -0.000016     -0.000003      0.000000
    141 O2    c      -0.000015      0.000020     -0.000026      0.000000
    142 O2    c       0.000007      0.000003     -0.000011      0.000000
    143 O2    c      -0.000029      0.000010     -0.000029      0.000000
    144 O2    c       0.000018     -0.000039     -0.000035      0.000000
    145 O2    c       0.000006     -0.000003      0.000004      0.000000
    146 O2    c      -0.000001     -0.000004      0.000003      0.000000
    147 O3    c       0.000042     -0.000009      0.000122      0.000000
    148 O2    c      -0.000012      0.000011      0.000048      0.000000
    149 O2    c       0.000014     -0.000005      0.000040      0.000000
    150 O2    c      -0.000010     -0.000003      0.000029      0.000000
    151 O3    c       0.000021     -0.000007     -0.000049      0.000000
    152 O2    c       0.000041     -0.000028     -0.000135      0.000000
    153 O3    c      -0.000004      0.000034     -0.000020      0.000000
    154 O2    c       0.000002     -0.000005     -0.000058      0.000000
    155 O2    c       0.000008     -0.000005     -0.000037      0.000000
    156 O2    c       0.000006     -0.000009      0.000005      0.000000
    157 O2    c      -0.000009     -0.000018      0.000041      0.000000
    158 O2    c      -0.000003      0.000007      0.000062      0.000000
    159 O2    c      -0.000015      0.000005      0.000045      0.000000
    160 O2    c       0.000007      0.000016     -0.000076      0.000000
    161 O2    c       0.000004     -0.000012     -0.000026      0.000000
    162 O3    c      -0.000077      0.000006      0.000103      0.000000
    163 O2    c       0.000010     -0.000024      0.000017      0.000000
    164 O3    c       0.000008      0.000033      0.000013      0.000000
    165 O2    c      -0.000027      0.000017      0.000004      0.000000
    166 O2    c      -0.000008      0.000014      0.000009      0.000000
    167 O2    c       0.000016     -0.000013      0.000064      0.000000
    168 O2    c      -0.000012      0.000017      0.000034      0.000000
    169 O2    c       0.000008     -0.000009      0.000004      0.000000
    170 O2    c       0.000006      0.000011     -0.000001      0.000000
    171 O2    c       0.000010     -0.000012     -0.000006      0.000000
    172 O3    c       0.000047     -0.000037     -0.000070      0.000000
    173 O2    c      -0.000002      0.000001     -0.000013      0.000000
    174 O2    c       0.000011     -0.000008     -0.000016      0.000000
    175 O2    c      -0.000020      0.000047     -0.000084      0.000000
    176 O2    c      -0.000011     -0.000002     -0.000052      0.000000
    177 O2    c      -0.000007     -0.000014      0.000032      0.000000
    178 O2    c       0.000001      0.000002     -0.000030      0.000000
    179 O2    c       0.000011     -0.000003      0.000035      0.000000
    180 O2    c      -0.000018      0.000025      0.000056      0.000000
    181 F     c       0.000004      0.000034      0.000069      0.000000
    182 F     c      -0.000019      0.000014      0.000018      0.000000
    183 F     c       0.000011      0.000002      0.000044      0.000000
    184 F     c      -0.000024     -0.000009      0.000040      0.000000
    185 F     c       0.000008      0.000002     -0.000009      0.000000
    186 F     c      -0.000011     -0.000011     -0.000007      0.000000
    187 O2    s      -0.000015      0.000018     -0.000048      0.000000
    188 O2    s      -0.000005      0.000031      0.000004      0.000000
    189 O2    s       0.000014      0.000003      0.000027      0.000000
    190 O2    s       0.000010     -0.000002      0.000089      0.000000
    191 O2    s       0.000015      0.000012     -0.000044      0.000000
    192 O2    s       0.000011      0.000012     -0.000041      0.000000
    193 O2    s      -0.000035     -0.000017      0.000001      0.000000
    194 O2    s      -0.000001     -0.000000      0.000012      0.000000
    195 O2    s       0.000007      0.000004     -0.000021      0.000000
    196 O2    s      -0.000002      0.000003     -0.000013      0.000000
    197 O2    s       0.000001      0.000029     -0.000038      0.000000
    198 O2    s      -0.000007      0.000008      0.000002      0.000000
    199 O2    s      -0.000003      0.000003     -0.000004      0.000000
    200 O2    s      -0.000003      0.000004      0.000011      0.000000
    201 O2    s       0.000050     -0.000012      0.000062      0.000000
    202 O2    s      -0.000005      0.000004      0.000001      0.000000
    203 O2    s      -0.000001     -0.000004     -0.000002      0.000000
    204 O2    s       0.000016     -0.000020      0.000019      0.000000
    205 O2    s      -0.000023     -0.000001      0.000027      0.000000
    206 O2    s       0.000022     -0.000001      0.000044      0.000000
    207 O3    s      -0.000016      0.000012      0.000014      0.000000
    208 O2    s      -0.000034      0.000007      0.000052      0.000000
    209 O2    s      -0.000030      0.000010     -0.000004      0.000000
    210 O2    s       0.000014      0.000005      0.000038      0.000000
    211 O2    s      -0.000055      0.000005     -0.000076      0.000000
    212 O2    s      -0.000001      0.000015     -0.000033      0.000000
    213 O2    s       0.000012      0.000003      0.000003      0.000000
    214 O2    s       0.000014      0.000006     -0.000016      0.000000
    215 O2    s      -0.000009      0.000007     -0.000027      0.000000
    216 O2    s      -0.000001      0.000034     -0.000034      0.000000
    217 O2    s      -0.000000      0.000008     -0.000054      0.000000
    218 O2    s       0.000002     -0.000005      0.000009      0.000000
    219 O2    s      -0.000009     -0.000013     -0.000051      0.000000
    220 O2    s       0.000016      0.000005      0.000063      0.000000
    221 O2    s       0.000004      0.000002      0.000014      0.000000
    222 O2    s       0.000028     -0.000041      0.000086      0.000000
    223 O2    s       0.000019     -0.000024     -0.000053      0.000000
    224 O2    s       0.000010     -0.000042     -0.000008      0.000000
    225 O2    s      -0.000001      0.000009      0.000001      0.000000
    226 O2    s       0.000046     -0.000014      0.000032      0.000000
    227 O3    s      -0.000003      0.000057      0.000009      0.000000
    228 O2    s       0.000012     -0.000003     -0.000029      0.000000
    229 O3    s      -0.000003     -0.000054      0.000112      0.000000
    230 O2    s      -0.000011      0.000017      0.000014      0.000000
    231 O2    s       0.000002     -0.000010      0.000048      0.000000
    232 O2    s      -0.000016      0.000012     -0.000025      0.000000
    233 O2    s       0.000001     -0.000003      0.000024      0.000000
    234 O2    s      -0.000007     -0.000022     -0.000082      0.000000
    235 O2    s      -0.000004      0.000006      0.000042      0.000000
    236 O2    s       0.000001     -0.000002      0.000023      0.000000
    237 O2    s      -0.000003      0.000004     -0.000061      0.000000
    238 O2    s      -0.000005     -0.000023      0.000106      0.000000
    239 O2    s       0.000008     -0.000002     -0.000030      0.000000
    240 O2    s       0.000026     -0.000003      0.000017      0.000000
    241 O2    s       0.000005     -0.000001     -0.000015      0.000000
    242 O2    s       0.000015      0.000021     -0.000014      0.000000
    243 O3    s      -0.000013      0.000023      0.000034      0.000000
    244 O2    s      -0.000010      0.000006      0.000016      0.000000
    245 O2    s       0.000048     -0.000014     -0.000043      0.000000
    246 O2    s      -0.000001      0.000009      0.000009      0.000000
    247 O2    s      -0.000008      0.000011      0.000028      0.000000
    248 O2    s       0.000012      0.000012     -0.000021      0.000000
    249 O2    s       0.000011     -0.000017     -0.000015      0.000000
    250 O2    s      -0.000008     -0.000002     -0.000022      0.000000
    251 O2    s       0.000001     -0.000002     -0.000013      0.000000
    252 O2    s      -0.000010      0.000013      0.000008      0.000000
    253 O2    s      -0.000003     -0.000003     -0.000026      0.000000
    254 O2    s       0.000038     -0.000001     -0.000049      0.000000
    255 O2    s      -0.000016      0.000021     -0.000040      0.000000
    256 O2    s      -0.000018      0.000011     -0.000017      0.000000
    257 O3    s      -0.000009      0.000010     -0.000050      0.000000
    258 O2    s       0.000013      0.000012     -0.000027      0.000000
    259 O3    s      -0.000086      0.000077     -0.000026      0.000000
    260 O2    s       0.000002      0.000002      0.000009      0.000000
    261 O2    s       0.000008      0.000004      0.000016      0.000000
    262 O2    s      -0.000020      0.000026     -0.000042      0.000000
    263 O2    s      -0.000012      0.000013      0.000012      0.000000
    264 O2    s       0.000012      0.000014     -0.000007      0.000000
    265 O2    s      -0.000008      0.000009     -0.000011      0.000000
    266 O2    s      -0.000038      0.000018     -0.000038      0.000000
    267 O2    s       0.000018     -0.000003      0.000033      0.000000
    268 O2    s      -0.000007     -0.000005     -0.000006      0.000000
    269 O2    s       0.000008     -0.000004      0.000055      0.000000
    270 O2    s      -0.000018      0.000028      0.000000      0.000000
    271 O2    s       0.000015     -0.000023      0.000041      0.000000
    272 O2    s       0.000007     -0.000005     -0.000011      0.000000
    273 O3    s      -0.000018      0.000011     -0.000084      0.000000
    274 O2    s       0.000027     -0.000011     -0.000068      0.000000
    275 O2    s      -0.000008     -0.000007     -0.000024      0.000000
    276 O2    s       0.000024     -0.000003     -0.000015      0.000000
    277 O3    s      -0.000024      0.000007      0.000020      0.000000
    278 O2    s      -0.000016      0.000012     -0.000013      0.000000
    279 O3    s      -0.000003     -0.000022      0.000047      0.000000
    280 O2    s       0.000017      0.000032      0.000063      0.000000
    281 O2    s      -0.000013      0.000004      0.000039      0.000000
    282 O2    s       0.000004     -0.000003      0.000005      0.000000
    283 O2    s       0.000007      0.000017      0.000063      0.000000
    284 O2    s      -0.000001      0.000000      0.000022      0.000000
    285 O2    s       0.000016      0.000005     -0.000015      0.000000
    286 O2    s      -0.000002     -0.000004     -0.000005      0.000000
    287 O2    s       0.000000      0.000002     -0.000004      0.000000
    288 O3    s       0.000039      0.000022     -0.000042      0.000000
    289 O2    s      -0.000003     -0.000001     -0.000007      0.000000
    290 O3    s       0.000011     -0.000007      0.000016      0.000000
    291 O2    s       0.000002     -0.000009      0.000024      0.000000
    292 O2    s      -0.000001      0.000003     -0.000006      0.000000
    293 O2    s      -0.000045      0.000015     -0.000072      0.000000
    294 O2    s       0.000009     -0.000018     -0.000030      0.000000
    295 O2    s      -0.000040      0.000030     -0.000038      0.000000
    296 O2    s       0.000011     -0.000003     -0.000040      0.000000
    297 O2    s      -0.000011     -0.000002     -0.000014      0.000000
    298 O3    s      -0.000009      0.000017     -0.000004      0.000000
    299 O2    s      -0.000002     -0.000001     -0.000002      0.000000
    300 O2    s      -0.000006      0.000006     -0.000009      0.000000
    301 O2    s       0.000015     -0.000012      0.000047      0.000000
    302 O2    s      -0.000005      0.000001      0.000021      0.000000
    303 O2    s       0.000005     -0.000001      0.000007      0.000000
    304 O2    s      -0.000006      0.000020      0.000082      0.000000
    305 O2    s       0.000001      0.000002     -0.000013      0.000000
    306 O2    s       0.000015     -0.000022     -0.000004      0.000000
    307 F     s      -0.000045     -0.000037     -0.000075      0.000000
    308 F     s       0.000019      0.000001     -0.000009      0.000000
    309 F     s      -0.000007      0.000022      0.000059      0.000000
    310 F     s       0.000053      0.000016     -0.000044      0.000000
    311 F     s      -0.000015     -0.000006      0.000031      0.000000
    312 F     s       0.000018      0.000020      0.000044      0.000000
--------------------------------------------------------------------------------
  Maximum abs         0.000089      0.000146      0.000608      0.000000
--------------------------------------------------------------------------------


  Time to end of optimisation =       7.0701 seconds


  Peak dynamic memory used =      19.13 MB 


  Timing analysis for GULP :

--------------------------------------------------------------------------------
  Task / Subroutine                                          Time (Seconds)
--------------------------------------------------------------------------------
  Calculation of reciprocal space energy and derivatives          0.2809
  Calculation of real space energy and derivatives                5.9011
  Calculation of three-body energy and derivatives                0.6589
  Calculation of matrix inversion                                 0.1920
--------------------------------------------------------------------------------
  Total CPU time                                                  7.0702
--------------------------------------------------------------------------------


  Dump file written as out.res                                                 
  CIF file written as out.cif                                                 


  Job Finished at 01:33.15 27th November   2016                               

