********************************************************************************
*                       GENERAL UTILITY LATTICE PROGRAM                        *
*                                 Julian Gale                                  *
*                      Nanochemistry Research Institute                        *
*                           Department of Chemistry                            *
*                    Curtin University, Western Australia                      *
********************************************************************************
* Version = 4.2.0 * Last modified =  20th January 2014                         *
********************************************************************************
*  optimise     - perform optimisation run                                     *
*  conp         - constant pressure calculation                                *
*  qok          - running with non charge neutral cell is OK                   *
********************************************************************************

  Job Started  at 13:05.49 26th November   2016                               

  Number of CPUs =     1


  Total number of configurations input =   1

********************************************************************************
*  Input for Configuration =   1                                               *
********************************************************************************

  Formula = Si57Ge3O120F6                                               

  Number of irreducible atoms/shells =     312


  Total number atoms/shells =     312

  Dimensionality = 3               :  Bulk   


  Charge on solid   =  -6.000000 =>neutralising background added


  Cartesian lattice vectors (Angstroms) :

       12.009495    0.000000    0.000000
       -5.986764   10.337224    0.000000
       -0.200633   -0.401727   29.454039

  Cell parameters (Angstroms/Degrees):

  a =      12.0095    alpha =  90.4806
  b =      11.9457    beta  =  90.3902
  c =      29.4575    gamma = 120.0771

  Initial cell volume =        3656.566918 Angs**3

  Temperature of configuration =  0.000     K 

  Pressure of configuration =         0.000 GPa 

  Fractional coordinates of asymmetric unit :

--------------------------------------------------------------------------------
   No.  Atomic       x           y          z         Charge      Occupancy
        Label      (Frac)      (Frac)     (Frac)        (e)         (Frac)  
--------------------------------------------------------------------------------
      1 Si    c    0.699600    0.375700    0.033890     4.00000    1.000000    
      2 Si    c    0.616801 *  0.326734 *  0.366574 *   4.00000    1.000000    
      3 Si    c    0.685342 *  0.294325 *  0.699951 *   4.00000    1.000000    
      4 Si    c    0.307396 *  0.625605 *  0.532107 *   4.00000    1.000000    
      5 Si    c    0.367502 *  0.676336 *  0.865599 *   4.00000    1.000000    
      6 Si    c    0.320638 *  0.702896 *  0.200569 *   4.00000    1.000000    
      7 Si    c    0.377749 *  0.705884 *  0.301179 *   4.00000    1.000000    
      8 Si    c    0.316194 *  0.616659 *  0.968061 *   4.00000    1.000000    
      9 Si    c    0.303463 *  0.673670 *  0.635316 *   4.00000    1.000000    
     10 Si    c    0.636777 *  0.302758 *  0.800100 *   4.00000    1.000000    
     11 Si    c    0.671769 *  0.384250 *  0.466965 *   4.00000    1.000000    
     12 Si    c    0.699117 *  0.321362 *  0.134476 *   4.00000    1.000000    
     13 Si    c    0.525138 *  0.407329 *  0.966820 *   4.00000    1.000000    
     14 Si    c    0.580745 *  0.115685 *  0.301368 *   4.00000    1.000000    
     15 Si    c    0.890892 *  0.465542 *  0.634504 *   4.00000    1.000000    
     16 Si    c    0.477593 *  0.594943 *  0.467439 *   4.00000    1.000000    
     17 Si    c    0.424615 *  0.894773 *  0.802568 *   4.00000    1.000000    
     18 Si    c    0.109421 *  0.528064 *  0.135522 *   4.00000    1.000000    
     19 Si    c    0.418055 *  0.536152 *  0.366093 *   4.00000    1.000000    
     20 Si    c    0.109057 *  0.579087 *  0.033863 *   4.00000    1.000000    
     21 Si    c    0.475123 *  0.886970 *  0.701601 *   4.00000    1.000000    
     22 Si    c    0.582252 *  0.460171 *  0.864008 *   4.00000    1.000000    
     23 Si    c    0.881781 *  0.410558 *  0.530542 *   4.00000    1.000000    
     24 Si    c    0.526893 *  0.113460 *  0.199550 *   4.00000    1.000000    
     25 Ge    c    0.310432 *  0.405865 *  0.859253 *   4.00000    1.000000    
     26 Si    c    0.597057 *  0.903263 *  0.186308 *   4.00000    1.000000    
     27 Si    c    0.096894 *  0.695773 *  0.517319 *   4.00000    1.000000    
     28 Si    c    0.696185 *  0.605019 *  0.351774 *   4.00000    1.000000    
     29 Si    c    0.404711 *  0.096361 *  0.685725 *   4.00000    1.000000    
     30 Si    c    0.899406 *  0.297989 *  0.018964 *   4.00000    1.000000    
     31 Si    c    0.396416 *  0.310876 *  0.483255 *   4.00000    1.000000    
     32 Si    c    0.901886 *  0.601033 *  0.149986 *   4.00000    1.000000    
     33 Si    c    0.707391 *  0.098921 *  0.816908 *   4.00000    1.000000    
     34 Si    c    0.598361 *  0.695305 *  0.981556 *   4.00000    1.000000    
     35 Si    c    0.101722 *  0.391191 *  0.651899 *   4.00000    1.000000    
     36 Si    c    0.300388 *  0.907454 *  0.315567 *   4.00000    1.000000    
     37 Si    c    0.241307 *  0.327235 *  0.955139 *   4.00000    1.000000    
     38 Si    c    0.658915 *  0.914161 *  0.286865 *   4.00000    1.000000    
     39 Si    c    0.091106 *  0.747663 *  0.619686 *   4.00000    1.000000    
     40 Si    c    0.753263 *  0.667764 *  0.452177 *   4.00000    1.000000    
     41 Si    c    0.352529 *  0.099381 *  0.786441 *   4.00000    1.000000    
     42 Si    c    0.907138 *  0.248162 *  0.119628 *   4.00000    1.000000    
     43 Si    c    0.338016 *  0.256859 *  0.382028 *   4.00000    1.000000    
     44 Si    c    0.908822 *  0.656336 *  0.049369 *   4.00000    1.000000    
     45 Si    c    0.755640 *  0.084473 *  0.716502 *   4.00000    1.000000    
     46 Si    c    0.652976 *  0.743035 *  0.879714 *   4.00000    1.000000    
     47 Ge    c    0.092757 *  0.358265 *  0.551525 *   4.00000    1.000000    
     48 Si    c    0.249059 *  0.912528 *  0.214655 *   4.00000    1.000000    
     49 Si    c    0.968348 *  0.114924 *  0.972319 *   4.00000    1.000000    
     50 Si    c    0.876713 *  0.851839 *  0.302144 *   4.00000    1.000000    
     51 Si    c    0.157112 *  0.031606 *  0.634519 *   4.00000    1.000000    
     52 Si    c    0.034410 *  0.883166 *  0.468626 *   4.00000    1.000000    
     53 Si    c    0.131661 *  0.155991 *  0.803516 *   4.00000    1.000000    
     54 Si    c    0.843212 *  0.967201 *  0.136716 *   4.00000    1.000000    
     55 Si    c    0.121640 *  0.975039 *  0.367399 *   4.00000    1.000000    
     56 Si    c    0.844054 *  0.871483 *  0.036050 *   4.00000    1.000000    
     57 Si    c    0.034393 *  0.147055 *  0.702600 *   4.00000    1.000000    
     58 Ge    c    0.885397 *  0.024897 *  0.867549 *   4.00000    1.000000    
     59 Si    c    0.150814 *  0.130487 *  0.534659 *   4.00000    1.000000    
     60 Si    c    0.969358 *  0.850099 *  0.201451 *   4.00000    1.000000    
     61 O2    c    0.924251 *  0.998196 *  0.007067 *   0.87073    1.000000    
     62 O2    c    0.996634 *  0.931110 *  0.336003 *   0.87073    1.000000    
     63 O2    c    0.078879 *  0.072015 *  0.668277 *   0.87073    1.000000    
     64 O2    c    0.079693 *  0.003343 *  0.502116 *   0.87073    1.000000    
     65 O3    c    0.012854 *  0.058381 *  0.834503 *   1.33043    1.000000    
     66 O2    c    0.924437 *  0.929839 *  0.170294 *   0.87073    1.000000    
     67 O2    c    0.340051 *  0.583706 *  0.333768 *   0.87073    1.000000    
     68 O2    c    0.424224 *  0.760051 *  0.668811 *   0.87073    1.000000    
     69 O2    c    0.234345 *  0.655449 *  0.001716 *   0.87073    1.000000    
     70 O2    c    0.674548 *  0.425154 *  0.833979 *   0.87073    1.000000    
     71 O2    c    0.576716 *  0.238161 *  0.166861 *   0.87073    1.000000    
     72 O2    c    0.752027 *  0.342316 *  0.500043 *   0.87073    1.000000    
     73 O2    c    0.576789 *  0.336698 *  0.000550 *   0.87073    1.000000    
     74 O2    c    0.767002 *  0.415720 *  0.666745 *   0.87073    1.000000    
     75 O2    c    0.656025 *  0.242161 *  0.333926 *   0.87073    1.000000    
     76 O2    c    0.433424 *  0.676177 *  0.500030 *   0.87073    1.000000    
     77 O2    c    0.235191 *  0.577560 *  0.167988 *   0.87073    1.000000    
     78 O2    c    0.342061 *  0.775398 *  0.836411 *   0.87073    1.000000    
     79 O2    c    0.121155 *  0.209517 *  0.981293 *   0.87073    1.000000    
     80 O2    c    0.786290 *  0.915935 *  0.306625 *   0.87073    1.000000    
     81 O2    c    0.094233 *  0.875611 *  0.639284 *   0.87073    1.000000    
     82 O2    c    0.880265 *  0.793242 *  0.472821 *   0.87073    1.000000    
     83 O2    c    0.232746 *  0.103691 *  0.808131 *   0.87073    1.000000    
     84 O2    c    0.907836 *  0.122520 *  0.139673 *   0.87073    1.000000    
     85 O2    c    0.210754 *  0.129536 *  0.361960 *   0.87073    1.000000    
     86 O2    c    0.908269 *  0.782056 *  0.029155 *   0.87073    1.000000    
     87 O2    c    0.879551 *  0.081437 *  0.696394 *   0.87073    1.000000    
     88 O3    c    0.775496 *  0.861837 *  0.858465 *   1.33043    1.000000    
     89 O3    c    0.084442 *  0.212974 *  0.529661 *   1.33043    1.000000    
     90 O2    c    0.122609 *  0.912877 *  0.194811 *   0.87073    1.000000    
     91 O2    c    0.933227 *  0.864455 *  0.252316 *   0.87073    1.000000    
     92 O2    c    0.145252 *  0.072199 *  0.584399 *   0.87073    1.000000    
     93 O3    c    0.934295 *  0.050926 *  0.923374 *   1.33043    1.000000    
     94 O2    c    0.072704 *  0.129452 *  0.752578 *   0.87073    1.000000    
     95 O2    c    0.850838 *  0.915565 *  0.087492 *   0.87073    1.000000    
     96 O2    c    0.075305 *  0.935474 *  0.418260 *   0.87073    1.000000    
     97 O2    c    0.897069 *  0.198283 *  0.980479 *   0.87073    1.000000    
     98 O2    c    0.792774 *  0.699934 *  0.313121 *   0.87073    1.000000    
     99 O2    c    0.308371 *  0.097361 *  0.647092 *   0.87073    1.000000    
    100 O2    c    0.098931 *  0.795391 *  0.480087 *   0.87073    1.000000    
    101 O3    c    0.196488 *  0.301894 *  0.817035 *   1.33043    1.000000    
    102 O2    c    0.692615 *  0.900185 *  0.148229 *   0.87073    1.000000    
    103 O2    c    0.203162 *  0.906158 *  0.353734 *   0.87073    1.000000    
    104 O2    c    0.693796 *  0.789646 *  0.021033 *   0.87073    1.000000    
    105 O2    c    0.099973 *  0.300690 *  0.693347 *   0.87073    1.000000    
    106 O3    c    0.803779 *  0.105887 *  0.856230 *   1.33043    1.000000    
    107 O2    c    0.303079 *  0.217737 *  0.522228 *   0.87073    1.000000    
    108 O2    c    0.899866 *  0.697871 *  0.188576 *   0.87073    1.000000    
    109 O2    c    0.320518 *  0.646498 *  0.250745 *   0.87073    1.000000    
    110 O2    c    0.356251 *  0.674729 *  0.584529 *   0.87073    1.000000    
    111 O2    c    0.315795 *  0.670983 *  0.917745 *   0.87073    1.000000    
    112 O2    c    0.689393 *  0.357656 *  0.749630 *   0.87073    1.000000    
    113 O2    c    0.641920 *  0.319044 *  0.083777 *   0.87073    1.000000    
    114 O2    c    0.674330 *  0.326847 *  0.416773 *   0.87073    1.000000    
    115 O2    c    0.369855 *  0.322545 *  0.970542 *   0.87073    1.000000    
    116 O2    c    0.668767 *  0.047725 *  0.304650 *   0.87073    1.000000    
    117 O2    c    0.961519 *  0.622558 *  0.637249 *   0.87073    1.000000    
    118 O2    c    0.633475 *  0.682072 *  0.469770 *   0.87073    1.000000    
    119 O2    c    0.339735 *  0.965165 *  0.803739 *   0.87073    1.000000    
    120 O2    c    0.040133 *  0.371412 *  0.137925 *   0.87073    1.000000    
    121 O2    c    0.329800 *  0.379419 *  0.362833 *   0.87073    1.000000    
    122 O2    c    0.039943 *  0.666190 *  0.030412 *   0.87073    1.000000    
    123 O2    c    0.630458 *  0.953255 *  0.697580 *   0.87073    1.000000    
    124 O2    c    0.660615 *  0.617046 *  0.864706 *   0.87073    1.000000    
    125 O3    c    0.943538 *  0.320778 *  0.525648 *   1.33043    1.000000    
    126 O2    c    0.370844 *  0.044498 *  0.196101 *   0.87073    1.000000    
    127 O2    c    0.766992 *  0.300393 *  0.010956 *   0.87073    1.000000    
    128 O2    c    0.691930 *  0.468821 *  0.343500 *   0.87073    1.000000    
    129 O2    c    0.542115 *  0.225296 *  0.677262 *   0.87073    1.000000    
    130 O2    c    0.230887 *  0.696074 *  0.512503 *   0.87073    1.000000    
    131 O3    c    0.290395 *  0.538066 *  0.842256 *   1.33043    1.000000    
    132 O2    c    0.462665 *  0.769325 *  0.178054 *   0.87073    1.000000    
    133 O2    c    0.302153 *  0.774156 *  0.322899 *   0.87073    1.000000    
    134 O2    c    0.462753 *  0.690761 *  0.987792 *   0.87073    1.000000    
    135 O2    c    0.234898 *  0.530176 *  0.656754 *   0.87073    1.000000    
    136 O2    c    0.712608 *  0.236174 *  0.822161 *   0.87073    1.000000    
    137 O2    c    0.529968 *  0.309583 *  0.489088 *   0.87073    1.000000    
    138 O2    c    0.768244 *  0.466295 *  0.156470 *   0.87073    1.000000    
    139 O2    c    0.779823 *  0.532106 *  0.029618 *   0.87073    1.000000    
    140 O2    c    0.460720 *  0.251871 *  0.362375 *   0.87073    1.000000    
    141 O2    c    0.760080 *  0.212744 *  0.696815 *   0.87073    1.000000    
    142 O3    c    0.235359 *  0.472606 *  0.524269 *   1.33043    1.000000    
    143 O2    c    0.522930 *  0.736996 *  0.862443 *   0.87073    1.000000    
    144 O2    c    0.246291 *  0.784564 *  0.195027 *   0.87073    1.000000    
    145 O2    c    0.533588 *  0.789006 *  0.306293 *   0.87073    1.000000    
    146 O2    c    0.250377 *  0.461722 *  0.972056 *   0.87073    1.000000    
    147 O2    c    0.213074 *  0.738208 *  0.637130 *   0.87073    1.000000    
    148 O2    c    0.482295 *  0.222160 *  0.805583 *   0.87073    1.000000    
    149 O2    c    0.750684 *  0.541145 *  0.472186 *   0.87073    1.000000    
    150 O2    c    0.782006 *  0.248525 *  0.139014 *   0.87073    1.000000    
    151 O3    c    0.208410 *  0.298141 *  0.902675 *   1.33043    1.000000    
    152 O2    c    0.673648 *  0.909507 *  0.232523 *   0.87073    1.000000    
    153 O2    c    0.089413 *  0.756841 *  0.565439 *   0.87073    1.000000    
    154 O2    c    0.771163 *  0.682022 *  0.397787 *   0.87073    1.000000    
    155 O2    c    0.335322 *  0.100638 *  0.731963 *   0.87073    1.000000    
    156 O2    c    0.903366 *  0.227801 *  0.065269 *   0.87073    1.000000    
    157 O2    c    0.320997 *  0.241680 *  0.436283 *   0.87073    1.000000    
    158 O2    c    0.908540 *  0.676012 *  0.103648 *   0.87073    1.000000    
    159 O2    c    0.775054 *  0.085173 *  0.771093 *   0.87073    1.000000    
    160 O2    c    0.665389 *  0.762049 *  0.934576 *   0.87073    1.000000    
    161 O3    c    0.098194 *  0.310507 *  0.608244 *   1.33043    1.000000    
    162 O2    c    0.230758 *  0.911610 *  0.268898 *   0.87073    1.000000    
    163 O2    c    0.578365 *  0.552779 *  0.986053 *   0.87073    1.000000    
    164 O2    c    0.440413 *  0.032373 *  0.324191 *   0.87073    1.000000    
    165 O2    c    0.979037 *  0.412727 *  0.656652 *   0.87073    1.000000    
    166 O2    c    0.421104 *  0.455243 *  0.491006 *   0.87073    1.000000    
    167 O2    c    0.566348 *  0.976048 *  0.826137 *   0.87073    1.000000    
    168 O2    c    0.025807 *  0.585166 *  0.158816 *   0.87073    1.000000    
    169 O2    c    0.558122 *  0.593715 *  0.342847 *   0.87073    1.000000    
    170 O2    c    0.025784 *  0.437018 *  0.010294 *   0.87073    1.000000    
    171 O2    c    0.413142 *  0.966554 *  0.678404 *   0.87073    1.000000    
    172 O3    c    0.446023 *  0.399182 *  0.839023 *   1.33043    1.000000    
    173 O2    c    0.974535 *  0.553986 *  0.509175 *   0.87073    1.000000    
    174 O2    c    0.584127 *  0.029074 *  0.176690 *   0.87073    1.000000    
    175 O2    c    0.580281 *  0.167914 *  0.250497 *   0.87073    1.000000    
    176 O2    c    0.840474 *  0.415911 *  0.583184 *   0.87073    1.000000    
    177 O2    c    0.573698 *  0.405525 *  0.915773 *   0.87073    1.000000    
    178 O2    c    0.424007 *  0.834973 *  0.752468 *   0.87073    1.000000    
    179 O2    c    0.162323 *  0.580954 *  0.084858 *   0.87073    1.000000    
    180 O2    c    0.420686 *  0.591903 *  0.416839 *   0.87073    1.000000    
    181 F     c    0.449786 *  0.905565 *  0.249676 *   0.56000    1.000000    
    182 F     c    0.096090 *  0.507919 *  0.578338 *   0.56000    1.000000    
    183 F     c    0.417940 *  0.511656 *  0.906940 *   0.56000    1.000000    
    184 F     c    0.559323 *  0.095642 *  0.750504 *   0.56000    1.000000    
    185 F     c    0.901460 *  0.450623 *  0.083189 *   0.56000    1.000000    
    186 F     c    0.550539 *  0.460054 *  0.415742 *   0.56000    1.000000    
    187 O2    s    0.919795 *  0.996438 *  0.006574 *  -2.87073    1.000000    
    188 O2    s    0.997140 *  0.927139 *  0.335708 *  -2.87073    1.000000    
    189 O2    s    0.082730 *  0.075707 *  0.668267 *  -2.87073    1.000000    
    190 O2    s    0.081924 *  0.002699 *  0.501633 *  -2.87073    1.000000    
    191 O3    s    0.012893 *  0.064829 *  0.834481 *  -3.33043    1.000000    
    192 O2    s    0.920350 *  0.925128 *  0.170005 *  -2.87073    1.000000    
    193 O2    s    0.351960 *  0.591527 *  0.333686 *  -2.87073    1.000000    
    194 O2    s    0.416614 *  0.763823 *  0.668593 *  -2.87073    1.000000    
    195 O2    s    0.230175 *  0.643711 *  0.001470 *  -2.87073    1.000000    
    196 O2    s    0.661546 *  0.416283 *  0.833547 *  -2.87073    1.000000    
    197 O2    s    0.584271 *  0.234039 *  0.166836 *  -2.87073    1.000000    
    198 O2    s    0.757436 *  0.354048 *  0.499810 *  -2.87073    1.000000    
    199 O2    s    0.583918 *  0.348093 *  0.000424 *  -2.87073    1.000000    
    200 O2    s    0.771665 *  0.408496 *  0.666780 *  -2.87073    1.000000    
    201 O2    s    0.644106 *  0.237583 *  0.333873 *  -2.87073    1.000000    
    202 O2    s    0.425312 *  0.663065 *  0.499978 *  -2.87073    1.000000    
    203 O2    s    0.230839 *  0.585228 *  0.167949 *  -2.87073    1.000000    
    204 O2    s    0.353246 *  0.777224 *  0.836027 *  -2.87073    1.000000    
    205 O2    s    0.117479 *  0.211639 *  0.977771 *  -2.87073    1.000000    
    206 O2    s    0.782637 *  0.909015 *  0.304132 *  -2.87073    1.000000    
    207 O2    s    0.100251 *  0.877640 *  0.636724 *  -2.87073    1.000000    
    208 O2    s    0.883351 *  0.789657 *  0.470240 *  -2.87073    1.000000    
    209 O2    s    0.235636 *  0.108567 *  0.805290 *  -2.87073    1.000000    
    210 O2    s    0.900876 *  0.119055 *  0.137295 *  -2.87073    1.000000    
    211 O2    s    0.214331 *  0.126169 *  0.364572 *  -2.87073    1.000000    
    212 O2    s    0.901462 *  0.778605 *  0.031947 *  -2.87073    1.000000    
    213 O2    s    0.882659 *  0.088486 *  0.699083 *  -2.87073    1.000000    
    214 O3    s    0.771287 *  0.862225 *  0.861393 *  -3.33043    1.000000    
    215 O3    s    0.092544 *  0.213101 *  0.531630 *  -3.33043    1.000000    
    216 O2    s    0.119389 *  0.906208 *  0.197518 *  -2.87073    1.000000    
    217 O2    s    0.930978 *  0.861420 *  0.252136 *  -2.87073    1.000000    
    218 O2    s    0.147213 *  0.073630 *  0.584970 *  -2.87073    1.000000    
    219 O3    s    0.933813 *  0.055649 *  0.923899 *  -3.33043    1.000000    
    220 O2    s    0.074532 *  0.134324 *  0.752168 *  -2.87073    1.000000    
    221 O2    s    0.849189 *  0.916383 *  0.087157 *  -2.87073    1.000000    
    222 O2    s    0.075979 *  0.934089 *  0.418124 *  -2.87073    1.000000    
    223 O2    s    0.904584 *  0.199821 *  0.983513 *  -2.87073    1.000000    
    224 O2    s    0.791960 *  0.706576 *  0.315861 *  -2.87073    1.000000    
    225 O2    s    0.302381 *  0.090309 *  0.649767 *  -2.87073    1.000000    
    226 O2    s    0.092032 *  0.793950 *  0.482816 *  -2.87073    1.000000    
    227 O3    s    0.196766 *  0.292423 *  0.818322 *  -3.33043    1.000000    
    228 O2    s    0.699012 *  0.907730 *  0.150902 *  -2.87073    1.000000    
    229 O2    s    0.204595 *  0.913602 *  0.351221 *  -2.87073    1.000000    
    230 O2    s    0.699311 *  0.788135 *  0.018391 *  -2.87073    1.000000    
    231 O2    s    0.093391 *  0.293950 *  0.690169 *  -2.87073    1.000000    
    232 O3    s    0.801110 *  0.098609 *  0.853337 *  -3.33043    1.000000    
    233 O2    s    0.297897 *  0.218952 *  0.519340 *  -2.87073    1.000000    
    234 O2    s    0.907407 *  0.703995 *  0.185973 *  -2.87073    1.000000    
    235 O2    s    0.326373 *  0.658357 *  0.250728 *  -2.87073    1.000000    
    236 O2    s    0.346014 *  0.669773 *  0.584634 *  -2.87073    1.000000    
    237 O2    s    0.320757 *  0.665864 *  0.917977 *  -2.87073    1.000000    
    238 O2    s    0.683594 *  0.345590 *  0.749750 *  -2.87073    1.000000    
    239 O2    s    0.653599 *  0.325066 *  0.083800 *  -2.87073    1.000000    
    240 O2    s    0.668141 *  0.332713 *  0.416702 *  -2.87073    1.000000    
    241 O2    s    0.373156 *  0.331866 *  0.968588 *  -2.87073    1.000000    
    242 O2    s    0.658706 *  0.040738 *  0.302440 *  -2.87073    1.000000    
    243 O2    s    0.967958 *  0.619742 *  0.635125 *  -2.87073    1.000000    
    244 O2    s    0.629948 *  0.671546 *  0.467658 *  -2.87073    1.000000    
    245 O2    s    0.350170 *  0.971807 *  0.801763 *  -2.87073    1.000000    
    246 O2    s    0.033327 *  0.374648 *  0.135745 *  -2.87073    1.000000    
    247 O2    s    0.339742 *  0.382732 *  0.365180 *  -2.87073    1.000000    
    248 O2    s    0.033341 *  0.656212 *  0.032753 *  -2.87073    1.000000    
    249 O2    s    0.627451 *  0.960062 *  0.699970 *  -2.87073    1.000000    
    250 O2    s    0.651583 *  0.614217 *  0.866273 *  -2.87073    1.000000    
    251 O3    s    0.947690 *  0.332754 *  0.528002 *  -3.33043    1.000000    
    252 O2    s    0.374180 *  0.037861 *  0.198386 *  -2.87073    1.000000    
    253 O2    s    0.774002 *  0.307871 *  0.014182 *  -2.87073    1.000000    
    254 O2    s    0.684673 *  0.468705 *  0.346770 *  -2.87073    1.000000    
    255 O2    s    0.542438 *  0.218806 *  0.680530 *  -2.87073    1.000000    
    256 O2    s    0.224301 *  0.688919 *  0.515021 *  -2.87073    1.000000    
    257 O3    s    0.299891 *  0.543551 *  0.845930 *  -3.33043    1.000000    
    258 O2    s    0.462236 *  0.776620 *  0.181266 *  -2.87073    1.000000    
    259 O2    s    0.309770 *  0.781159 *  0.319851 *  -2.87073    1.000000    
    260 O2    s    0.462079 *  0.683628 *  0.985085 *  -2.87073    1.000000    
    261 O2    s    0.228638 *  0.531129 *  0.653996 *  -2.87073    1.000000    
    262 O2    s    0.704019 *  0.228629 *  0.819210 *  -2.87073    1.000000    
    263 O2    s    0.530787 *  0.317556 *  0.486114 *  -2.87073    1.000000    
    264 O2    s    0.775174 *  0.465514 *  0.153480 *  -2.87073    1.000000    
    265 O2    s    0.785345 *  0.529089 *  0.032166 *  -2.87073    1.000000    
    266 O2    s    0.463764 *  0.260283 *  0.364898 *  -2.87073    1.000000    
    267 O2    s    0.751726 *  0.207533 *  0.699216 *  -2.87073    1.000000    
    268 O3    s    0.232070 *  0.479741 *  0.527026 *  -3.33043    1.000000    
    269 O2    s    0.521495 *  0.731418 *  0.864639 *  -2.87073    1.000000    
    270 O2    s    0.254364 *  0.790021 *  0.197681 *  -2.87073    1.000000    
    271 O2    s    0.531002 *  0.794069 *  0.303679 *  -2.87073    1.000000    
    272 O2    s    0.256647 *  0.464588 *  0.969883 *  -2.87073    1.000000    
    273 O2    s    0.209178 *  0.732333 *  0.635035 *  -2.87073    1.000000    
    274 O2    s    0.484577 *  0.217151 *  0.802926 *  -2.87073    1.000000    
    275 O2    s    0.742747 *  0.538609 *  0.469511 *  -2.87073    1.000000    
    276 O2    s    0.786948 *  0.256217 *  0.136465 *  -2.87073    1.000000    
    277 O3    s    0.218345 *  0.308067 *  0.905301 *  -3.33043    1.000000    
    278 O2    s    0.664031 *  0.909352 *  0.233427 *  -2.87073    1.000000    
    279 O2    s    0.090372 *  0.749320 *  0.566265 *  -2.87073    1.000000    
    280 O2    s    0.761458 *  0.672495 *  0.398729 *  -2.87073    1.000000    
    281 O2    s    0.344497 *  0.100068 *  0.732794 *  -2.87073    1.000000    
    282 O2    s    0.903347 *  0.237294 *  0.066211 *  -2.87073    1.000000    
    283 O2    s    0.330636 *  0.250494 *  0.435353 *  -2.87073    1.000000    
    284 O2    s    0.907888 *  0.666059 *  0.102723 *  -2.87073    1.000000    
    285 O2    s    0.766212 *  0.086418 *  0.770105 *  -2.87073    1.000000    
    286 O2    s    0.656996 *  0.753051 *  0.934041 *  -2.87073    1.000000    
    287 O3    s    0.098210 *  0.322185 *  0.608786 *  -3.33043    1.000000    
    288 O2    s    0.240038 *  0.911277 *  0.268015 *  -2.87073    1.000000    
    289 O2    s    0.574834 *  0.553159 *  0.983513 *  -2.87073    1.000000    
    290 O2    s    0.439906 *  0.027356 *  0.320852 *  -2.87073    1.000000    
    291 O2    s    0.982541 *  0.416260 *  0.653777 *  -2.87073    1.000000    
    292 O2    s    0.424666 *  0.454425 *  0.487663 *  -2.87073    1.000000    
    293 O2    s    0.566591 *  0.980727 *  0.822715 *  -2.87073    1.000000    
    294 O2    s    0.020953 *  0.580742 *  0.155425 *  -2.87073    1.000000    
    295 O2    s    0.558332 *  0.588762 *  0.346231 *  -2.87073    1.000000    
    296 O2    s    0.020886 *  0.437081 *  0.013676 *  -2.87073    1.000000    
    297 O2    s    0.418790 *  0.972214 *  0.681595 *  -2.87073    1.000000    
    298 O3    s    0.450319 *  0.406131 *  0.843043 *  -3.33043    1.000000    
    299 O2    s    0.978942 *  0.555335 *  0.512177 *  -2.87073    1.000000    
    300 O2    s    0.579360 *  0.024216 *  0.180116 *  -2.87073    1.000000    
    301 O2    s    0.574758 *  0.156863 *  0.250407 *  -2.87073    1.000000    
    302 O2    s    0.849952 *  0.420663 *  0.583447 *  -2.87073    1.000000    
    303 O2    s    0.569367 *  0.410943 *  0.916126 *  -2.87073    1.000000    
    304 O2    s    0.429348 *  0.846364 *  0.752338 *  -2.87073    1.000000    
    305 O2    s    0.151331 *  0.575342 *  0.084724 *  -2.87073    1.000000    
    306 O2    s    0.426274 *  0.586422 *  0.416773 *  -2.87073    1.000000    
    307 F     s    0.449606 *  0.905111 *  0.249549 *  -1.56000    1.000000    
    308 F     s    0.096113 *  0.499295 *  0.576816 *  -1.56000    1.000000    
    309 F     s    0.410487 *  0.504388 *  0.903822 *  -1.56000    1.000000    
    310 F     s    0.559746 *  0.095832 *  0.750452 *  -1.56000    1.000000    
    311 F     s    0.901106 *  0.450567 *  0.083043 *  -1.56000    1.000000    
    312 F     s    0.551077 *  0.460012 *  0.415610 *  -1.56000    1.000000    
--------------------------------------------------------------------------------



********************************************************************************
*  General input information                                                   *
********************************************************************************

  Species output for all configurations : 

--------------------------------------------------------------------------------
  Species    Type    Atomic    Atomic    Charge       Radii (Angs)     Library
                     Number     Mass       (e)     Cova   Ionic  VDW   Symbol
--------------------------------------------------------------------------------
    Si       Core       14      28.09   4.000000   1.200  0.000  2.100          
    O1       Core        8      16.00   1.733957   0.730  0.000  1.360          
    O1       Shell       8       0.00  -3.733957   0.730  0.000  1.360          
    O2       Core        8      16.00   0.870733   0.730  0.000  1.360          
    O2       Shell       8       0.00  -2.870733   0.730  0.000  1.360          
    O3       Core        8      16.00   1.330431   0.730  0.000  1.360          
    O3       Shell       8       0.00  -3.330431   0.730  0.000  1.360          
    F        Core        9      19.00   0.560000   0.710  0.000  1.300          
    F        Shell       9       0.00  -1.560000   0.710  0.000  1.300          
    Ge       Core       32      72.61   4.000000   1.170  0.000  1.750          
--------------------------------------------------------------------------------


  Lattice summation method               =    Ewald          (3-D)
                                         =    Parry          (2-D)
                                         =    Saunders et al (1-D)
  Accuracy factor for lattice sums       =   12.000


  Time limit = Infinity

  Maximum range for interatomic potentials =        16.000000 Angstroms

  Taper potentials to zero over   1.0000 Angstroms using polynomial

  General interatomic potentials :

--------------------------------------------------------------------------------
Atom  Types   Potential         A         B         C         D     Cutoffs(Ang)
  1     2                                                            Min    Max 
--------------------------------------------------------------------------------
Si   c O1   s Buckingham    0.132E+04 0.318      10.1      0.00     0.000 16.000
Si   c O2   s Buckingham    0.132E+04 0.318      10.1      0.00     0.000 16.000
Si   c O3   s Buckingham    0.132E+04 0.318      10.1      0.00     0.000 16.000
Ge   c O1   s Buckingham    0.150E+04 0.326      16.8      0.00     0.000 16.000
Ge   c O2   s Buckingham    0.150E+04 0.326      16.8      0.00     0.000 16.000
Ge   c O3   s Buckingham    0.150E+04 0.326      16.8      0.00     0.000 16.000
O1   s O1   s Buckingham    0.228E+05 0.149      10.9      0.00     0.000 16.000
O1   s O2   s Buckingham    0.228E+05 0.149      10.9      0.00     0.000 16.000
O1   s O3   s Buckingham    0.228E+05 0.149      10.9      0.00     0.000 16.000
O2   s O2   s Buckingham    0.228E+05 0.149      10.9      0.00     0.000 16.000
O2   s O3   s Buckingham    0.228E+05 0.149      10.9      0.00     0.000 16.000
O3   s O3   s Buckingham    0.228E+05 0.149      10.9      0.00     0.000 16.000
Si   c F    s Buckingham     977.     0.282      0.00      0.00     0.000 16.000
Ge   c F    s Buckingham     681.     0.320      0.00      0.00     0.000 16.000
F    s F    s Buckingham     540.     0.262      0.00      0.00     0.000 16.000
O1   s F    s Buckingham    0.168E+04 0.268      0.00      0.00     0.000 16.000
O2   s F    s Buckingham    0.168E+04 0.268      0.00      0.00     0.000 16.000
O3   s F    s Buckingham    0.168E+04 0.268      0.00      0.00     0.000 16.000
O2   c O2   s Spring (c-s)   76.0      0.00      0.00      0.00     0.000  0.800
O3   c O3   s Spring (c-s)   128.      0.00      0.00      0.00     0.000  0.800
O1   c O1   s Spring (c-s)   180.      0.00      0.00      0.00     0.000  0.800
F    c F    s Spring (c-s)   33.5      0.00      0.00      0.00     0.000  0.800
--------------------------------------------------------------------------------

  General Three-body potentials :

  Harmonic form:

--------------------------------------------------------------------------------
Atom    Atom    Atom           Force Constants            Theta     Cutoffs  
  1       2       3     (eVrad**-2/eVrad**-3/eVrad**-4)   (deg)  1-2  1-3  2-3
--------------------------------------------------------------------------------
Si    c O1    s O1    s  1.261        0.0000    0.0000   109.470 0.00 0.00 0.00
                                                                 1.90 1.90 3.50
Si    c O1    s O2    s  1.261        0.0000    0.0000   109.470 0.00 0.00 0.00
                                                                 1.90 1.90 3.50
Si    c O2    s O2    s  1.261        0.0000    0.0000   109.470 0.00 0.00 0.00
                                                                 1.90 1.90 3.50
--------------------------------------------------------------------------------

********************************************************************************
*  Output for configuration   1                                                *
********************************************************************************


  Components of energy : 

--------------------------------------------------------------------------------
  Interatomic potentials     =        2063.58519468 eV
  Three-body potentials      =           0.49480934 eV
  Monopole - monopole (real) =       -6612.56585490 eV
  Monopole - monopole (recip)=       -3171.41582135 eV
  Monopole - monopole (total)=       -9783.98167625 eV
  Neutralising energy        =          -6.46017233 eV
--------------------------------------------------------------------------------
  Total lattice energy       =       -7726.36184456 eV
--------------------------------------------------------------------------------
  Total lattice energy       =         -745475.8097 kJ/(mole unit cells)
--------------------------------------------------------------------------------


  Number of variables =      939

  Maximum number of calculations  =          1000
  Maximum Hessian update interval =            10
  Maximum step size               =   1.000000000
  Maximum parameter tolerance     =   0.000010000
  Maximum function  tolerance     =   0.000010000
  Maximum gradient  tolerance     =   0.001000000
  Maximum gradient  component     =   0.010000000

  Symmetry not applied to optimisation

  Cell parameters to be optimised using strains

  Newton-Raphson optimiser to be used

  BFGS hessian update to be used

  Dumpfile to be written after every cycle

  Start of bulk optimisation :

  Cycle:      0 Energy:     -7726.361845  Gnorm:      0.000489  CPU:    1.232
  ** Hessian calculated **
  Cycle:      1 Energy:     -7726.367488  Gnorm:      0.000391  CPU:    2.882


  **** Optimisation achieved ****


  Final energy =   -7726.36749390 eV
  Final Gnorm  =       0.00001159

  Components of energy : 

--------------------------------------------------------------------------------
  Interatomic potentials     =        2063.68935073 eV
  Three-body potentials      =           0.50056496 eV
  Monopole - monopole (real) =       -6612.24791927 eV
  Monopole - monopole (recip)=       -3171.84843693 eV
  Monopole - monopole (total)=       -9784.09635620 eV
  Neutralising energy        =          -6.46105339 eV
--------------------------------------------------------------------------------
  Total lattice energy       =       -7726.36749390 eV
--------------------------------------------------------------------------------
  Total lattice energy       =         -745476.3548 kJ/(mole unit cells)
--------------------------------------------------------------------------------

  Final fractional coordinates of atoms :

--------------------------------------------------------------------------------
   No.  Atomic        x           y          z          Radius
        Label       (Frac)      (Frac)     (Frac)       (Angs) 
--------------------------------------------------------------------------------
     1  Si    c     0.699600    0.375700    0.033890    0.000000
     2  Si    c     0.619003    0.331281    0.367230    0.000000
     3  Si    c     0.688324    0.297843    0.700921    0.000000
     4  Si    c     0.309855    0.628912    0.533146    0.000000
     5  Si    c     0.368036    0.678851    0.866491    0.000000
     6  Si    c     0.321680    0.705377    0.201375    0.000000
     7  Si    c     0.380384    0.710555    0.302025    0.000000
     8  Si    c     0.316577    0.618292    0.968888    0.000000
     9  Si    c     0.305553    0.676610    0.636419    0.000000
    10  Si    c     0.639939    0.306434    0.801000    0.000000
    11  Si    c     0.674764    0.389013    0.467704    0.000000
    12  Si    c     0.699577    0.322973    0.134652    0.000000
    13  Si    c     0.525298    0.408682    0.967214    0.000000
    14  Si    c     0.583177    0.120321    0.301746    0.000000
    15  Si    c     0.893258    0.468740    0.635355    0.000000
    16  Si    c     0.481145    0.600296    0.468513    0.000000
    17  Si    c     0.427435    0.898617    0.803824    0.000000
    18  Si    c     0.109820    0.529790    0.136335    0.000000
    19  Si    c     0.420729    0.541317    0.367173    0.000000
    20  Si    c     0.109209    0.579936    0.034585    0.000000
    21  Si    c     0.477517    0.890251    0.702776    0.000000
    22  Si    c     0.582555    0.462375    0.864464    0.000000
    23  Si    c     0.884099    0.413602    0.531336    0.000000
    24  Si    c     0.527978    0.116109    0.199923    0.000000
    25  Ge    c     0.310715    0.408214    0.860009    0.000000
    26  Si    c     0.598014    0.905721    0.186857    0.000000
    27  Si    c     0.099250    0.698899    0.518168    0.000000
    28  Si    c     0.698480    0.609830    0.352759    0.000000
    29  Si    c     0.407453    0.100025    0.686885    0.000000
    30  Si    c     0.899770    0.298528    0.019483    0.000000
    31  Si    c     0.399811    0.316225    0.484289    0.000000
    32  Si    c     0.902140    0.602788    0.150502    0.000000
    33  Si    c     0.710509    0.102882    0.817970    0.000000
    34  Si    c     0.598745    0.696809    0.982345    0.000000
    35  Si    c     0.103766    0.394048    0.652916    0.000000
    36  Si    c     0.303030    0.912256    0.316167    0.000000
    37  Si    c     0.241511    0.328698    0.955802    0.000000
    38  Si    c     0.661412    0.918688    0.287417    0.000000
    39  Si    c     0.093493    0.750895    0.620560    0.000000
    40  Si    c     0.756434    0.672765    0.453159    0.000000
    41  Si    c     0.355450    0.103445    0.787619    0.000000
    42  Si    c     0.907490    0.249736    0.120238    0.000000
    43  Si    c     0.340454    0.261841    0.383046    0.000000
    44  Si    c     0.908626    0.656692    0.049768    0.000000
    45  Si    c     0.758227    0.087810    0.717534    0.000000
    46  Si    c     0.653436    0.745361    0.880567    0.000000
    47  Ge    c     0.095011    0.361503    0.552484    0.000000
    48  Si    c     0.250332    0.915382    0.215256    0.000000
    49  Si    c     0.969249    0.115637    0.973073    0.000000
    50  Si    c     0.879089    0.856159    0.302901    0.000000
    51  Si    c     0.160038    0.035203    0.635359    0.000000
    52  Si    c     0.037939    0.887180    0.469430    0.000000
    53  Si    c     0.132963    0.157834    0.804381    0.000000
    54  Si    c     0.843850    0.968902    0.137426    0.000000
    55  Si    c     0.124312    0.979644    0.368195    0.000000
    56  Si    c     0.844669    0.872519    0.036827    0.000000
    57  Si    c     0.036526    0.149752    0.703419    0.000000
    58  Ge    c     0.887153    0.026740    0.868252    0.000000
    59  Si    c     0.154655    0.134889    0.535567    0.000000
    60  Si    c     0.970417    0.852331    0.202152    0.000000
    61  O2    c     0.925249    0.999250    0.007918    0.000000
    62  O2    c     0.999190    0.935762    0.336775    0.000000
    63  O2    c     0.081027    0.075324    0.668814    0.000000
    64  O2    c     0.084857    0.007939    0.502819    0.000000
    65  O3    c     0.013928    0.059013    0.835010    0.000000
    66  O2    c     0.925054    0.932069    0.171224    0.000000
    67  O2    c     0.342768    0.588904    0.334845    0.000000
    68  O2    c     0.426227    0.763048    0.670033    0.000000
    69  O2    c     0.234619    0.656725    0.002598    0.000000
    70  O2    c     0.676453    0.428970    0.834748    0.000000
    71  O2    c     0.577161    0.240149    0.167009    0.000000
    72  O2    c     0.754543    0.346169    0.500663    0.000000
    73  O2    c     0.576855    0.337141    0.000584    0.000000
    74  O2    c     0.769541    0.418979    0.667606    0.000000
    75  O2    c     0.658181    0.247081    0.334333    0.000000
    76  O2    c     0.436260    0.680670    0.501263    0.000000
    77  O2    c     0.235558    0.579562    0.168939    0.000000
    78  O2    c     0.344011    0.779183    0.837509    0.000000
    79  O2    c     0.121936    0.211013    0.982119    0.000000
    80  O2    c     0.789176    0.920924    0.307066    0.000000
    81  O2    c     0.097024    0.879162    0.640096    0.000000
    82  O2    c     0.883757    0.798219    0.473801    0.000000
    83  O2    c     0.235629    0.107585    0.809303    0.000000
    84  O2    c     0.908312    0.124246    0.140354    0.000000
    85  O2    c     0.212916    0.134362    0.363070    0.000000
    86  O2    c     0.908035    0.782458    0.029626    0.000000
    87  O2    c     0.881656    0.084126    0.697339    0.000000
    88  O3    c     0.775712    0.863996    0.859186    0.000000
    89  O3    c     0.087161    0.216337    0.530614    0.000000
    90  O2    c     0.123555    0.915014    0.195360    0.000000
    91  O2    c     0.935327    0.867084    0.253129    0.000000
    92  O2    c     0.149339    0.076225    0.585196    0.000000
    93  O3    c     0.936210    0.051439    0.924102    0.000000
    94  O2    c     0.075099    0.131147    0.753244    0.000000
    95  O2    c     0.852076    0.916790    0.088319    0.000000
    96  O2    c     0.078294    0.938958    0.418999    0.000000
    97  O2    c     0.897461    0.198578    0.981050    0.000000
    98  O2    c     0.794774    0.704481    0.314080    0.000000
    99  O2    c     0.311097    0.101007    0.648253    0.000000
   100  O2    c     0.101357    0.798382    0.480867    0.000000
   101  O3    c     0.196087    0.303689    0.817982    0.000000
   102  O2    c     0.693166    0.901908    0.148778    0.000000
   103  O2    c     0.206256    0.911438    0.354356    0.000000
   104  O2    c     0.694235    0.791111    0.021916    0.000000
   105  O2    c     0.101859    0.303541    0.694391    0.000000
   106  O3    c     0.807132    0.109490    0.857178    0.000000
   107  O2    c     0.306884    0.223398    0.523347    0.000000
   108  O2    c     0.900504    0.700028    0.189089    0.000000
   109  O2    c     0.322515    0.650133    0.251671    0.000000
   110  O2    c     0.358378    0.677509    0.585685    0.000000
   111  O2    c     0.316330    0.673152    0.918654    0.000000
   112  O2    c     0.692886    0.361628    0.750609    0.000000
   113  O2    c     0.642237    0.319713    0.083867    0.000000
   114  O2    c     0.676839    0.331615    0.417421    0.000000
   115  O2    c     0.370158    0.324161    0.971134    0.000000
   116  O2    c     0.671396    0.052561    0.305077    0.000000
   117  O2    c     0.963969    0.625854    0.638142    0.000000
   118  O2    c     0.637055    0.687606    0.470876    0.000000
   119  O2    c     0.342940    0.969359    0.804884    0.000000
   120  O2    c     0.040435    0.373072    0.138695    0.000000
   121  O2    c     0.332302    0.384484    0.363904    0.000000
   122  O2    c     0.039946    0.666832    0.031009    0.000000
   123  O2    c     0.632743    0.956522    0.698697    0.000000
   124  O2    c     0.660821    0.619278    0.865538    0.000000
   125  O3    c     0.945568    0.323547    0.526520    0.000000
   126  O2    c     0.371916    0.047152    0.196569    0.000000
   127  O2    c     0.767160    0.300411    0.011155    0.000000
   128  O2    c     0.693891    0.473492    0.344312    0.000000
   129  O2    c     0.544895    0.228740    0.678329    0.000000
   130  O2    c     0.233284    0.699346    0.513575    0.000000
   131  O3    c     0.290575    0.540560    0.843055    0.000000
   132  O2    c     0.463506    0.771575    0.178802    0.000000
   133  O2    c     0.305033    0.779139    0.323669    0.000000
   134  O2    c     0.463147    0.692108    0.988686    0.000000
   135  O2    c     0.236929    0.533152    0.657859    0.000000
   136  O2    c     0.716089    0.240414    0.823305    0.000000
   137  O2    c     0.533204    0.314627    0.489896    0.000000
   138  O2    c     0.768478    0.467969    0.156770    0.000000
   139  O2    c     0.780060    0.532279    0.029756    0.000000
   140  O2    c     0.462914    0.256671    0.363296    0.000000
   141  O2    c     0.762939    0.216130    0.697750    0.000000
   142  O3    c     0.237602    0.475873    0.525207    0.000000
   143  O2    c     0.523323    0.739195    0.863344    0.000000
   144  O2    c     0.247430    0.787084    0.195831    0.000000
   145  O2    c     0.536279    0.793792    0.307035    0.000000
   146  O2    c     0.250591    0.463279    0.972732    0.000000
   147  O2    c     0.215369    0.741364    0.638066    0.000000
   148  O2    c     0.485468    0.226222    0.806694    0.000000
   149  O2    c     0.753898    0.546007    0.473052    0.000000
   150  O2    c     0.782304    0.250026    0.139512    0.000000
   151  O3    c     0.208549    0.299821    0.903320    0.000000
   152  O2    c     0.675262    0.912978    0.233061    0.000000
   153  O2    c     0.091419    0.759830    0.566305    0.000000
   154  O2    c     0.773970    0.687022    0.398758    0.000000
   155  O2    c     0.338376    0.104670    0.733120    0.000000
   156  O2    c     0.903605    0.228685    0.065879    0.000000
   157  O2    c     0.323905    0.247052    0.437316    0.000000
   158  O2    c     0.908346    0.676927    0.104044    0.000000
   159  O2    c     0.777998    0.088882    0.772141    0.000000
   160  O2    c     0.665749    0.764154    0.935464    0.000000
   161  O3    c     0.100294    0.313446    0.609208    0.000000
   162  O2    c     0.232768    0.915574    0.269514    0.000000
   163  O2    c     0.578956    0.554229    0.986622    0.000000
   164  O2    c     0.443058    0.037426    0.324657    0.000000
   165  O2    c     0.981254    0.415821    0.657549    0.000000
   166  O2    c     0.424979    0.460771    0.492137    0.000000
   167  O2    c     0.569394    0.980087    0.827310    0.000000
   168  O2    c     0.026048    0.586953    0.159424    0.000000
   169  O2    c     0.560568    0.598828    0.343861    0.000000
   170  O2    c     0.026104    0.437693    0.010945    0.000000
   171  O2    c     0.415647    0.970014    0.679683    0.000000
   172  O3    c     0.446282    0.401888    0.839464    0.000000
   173  O2    c     0.977105    0.556911    0.509964    0.000000
   174  O2    c     0.584868    0.031330    0.177098    0.000000
   175  O2    c     0.582209    0.171746    0.250785    0.000000
   176  O2    c     0.842803    0.419081    0.583981    0.000000
   177  O2    c     0.573171    0.406815    0.916114    0.000000
   178  O2    c     0.426944    0.838886    0.753696    0.000000
   179  O2    c     0.162507    0.582180    0.085643    0.000000
   180  O2    c     0.423881    0.597395    0.417951    0.000000
   181  F     c     0.451757    0.909487    0.250335    0.000000
   182  F     c     0.098174    0.510789    0.579295    0.000000
   183  F     c     0.417946    0.513535    0.907693    0.000000
   184  F     c     0.563214    0.100489    0.751745    0.000000
   185  F     c     0.901480    0.451231    0.083652    0.000000
   186  F     c     0.553459    0.465687    0.416740    0.000000
   187  O2    s     0.920751    0.997479    0.007397    0.000000
   188  O2    s     0.999689    0.931759    0.336481    0.000000
   189  O2    s     0.084965    0.078983    0.668868    0.000000
   190  O2    s     0.086755    0.007202    0.502369    0.000000
   191  O3    s     0.014072    0.065675    0.835036    0.000000
   192  O2    s     0.921021    0.927283    0.170887    0.000000
   193  O2    s     0.354667    0.596657    0.334742    0.000000
   194  O2    s     0.418676    0.766868    0.669803    0.000000
   195  O2    s     0.230456    0.644979    0.002328    0.000000
   196  O2    s     0.663411    0.419915    0.834297    0.000000
   197  O2    s     0.584767    0.236031    0.167017    0.000000
   198  O2    s     0.760001    0.357913    0.500465    0.000000
   199  O2    s     0.584054    0.348586    0.000513    0.000000
   200  O2    s     0.774237    0.411780    0.667648    0.000000
   201  O2    s     0.646308    0.242447    0.334308    0.000000
   202  O2    s     0.428190    0.667527    0.501175    0.000000
   203  O2    s     0.231297    0.587249    0.168875    0.000000
   204  O2    s     0.355125    0.780869    0.837119    0.000000
   205  O2    s     0.118214    0.213051    0.978572    0.000000
   206  O2    s     0.785435    0.913894    0.304622    0.000000
   207  O2    s     0.103015    0.881159    0.637543    0.000000
   208  O2    s     0.886808    0.794534    0.471204    0.000000
   209  O2    s     0.238359    0.112261    0.806435    0.000000
   210  O2    s     0.901347    0.120746    0.137969    0.000000
   211  O2    s     0.216578    0.130992    0.365638    0.000000
   212  O2    s     0.901317    0.779080    0.032444    0.000000
   213  O2    s     0.884828    0.091246    0.700023    0.000000
   214  O3    s     0.771662    0.864395    0.862126    0.000000
   215  O3    s     0.095355    0.216579    0.532578    0.000000
   216  O2    s     0.120383    0.908428    0.198087    0.000000
   217  O2    s     0.932988    0.864194    0.252930    0.000000
   218  O2    s     0.151131    0.077644    0.585783    0.000000
   219  O3    s     0.935607    0.056295    0.924628    0.000000
   220  O2    s     0.076782    0.136153    0.752876    0.000000
   221  O2    s     0.850283    0.917638    0.087965    0.000000
   222  O2    s     0.078989    0.937762    0.418876    0.000000
   223  O2    s     0.905031    0.200190    0.984097    0.000000
   224  O2    s     0.794033    0.711147    0.316807    0.000000
   225  O2    s     0.305125    0.093937    0.650902    0.000000
   226  O2    s     0.094574    0.797070    0.483602    0.000000
   227  O3    s     0.196620    0.294290    0.819251    0.000000
   228  O2    s     0.699597    0.909510    0.151464    0.000000
   229  O2    s     0.207596    0.918773    0.351853    0.000000
   230  O2    s     0.699759    0.789557    0.019254    0.000000
   231  O2    s     0.095328    0.296795    0.691193    0.000000
   232  O3    s     0.804304    0.102114    0.854277    0.000000
   233  O2    s     0.301664    0.224454    0.520428    0.000000
   234  O2    s     0.908038    0.706109    0.186511    0.000000
   235  O2    s     0.328324    0.661963    0.251624    0.000000
   236  O2    s     0.348165    0.672626    0.585784    0.000000
   237  O2    s     0.321271    0.668013    0.918876    0.000000
   238  O2    s     0.687001    0.349483    0.750722    0.000000
   239  O2    s     0.653888    0.325748    0.083903    0.000000
   240  O2    s     0.670669    0.337451    0.417357    0.000000
   241  O2    s     0.373465    0.333465    0.969164    0.000000
   242  O2    s     0.661314    0.045537    0.302880    0.000000
   243  O2    s     0.970394    0.623028    0.636011    0.000000
   244  O2    s     0.633464    0.677016    0.468753    0.000000
   245  O2    s     0.353315    0.975954    0.802921    0.000000
   246  O2    s     0.033665    0.376327    0.136504    0.000000
   247  O2    s     0.342248    0.387784    0.366246    0.000000
   248  O2    s     0.033338    0.656835    0.033344    0.000000
   249  O2    s     0.629758    0.963333    0.701086    0.000000
   250  O2    s     0.651813    0.616486    0.867074    0.000000
   251  O3    s     0.949724    0.335573    0.528865    0.000000
   252  O2    s     0.375250    0.040513    0.198861    0.000000
   253  O2    s     0.774116    0.307971    0.014400    0.000000
   254  O2    s     0.686682    0.473362    0.347590    0.000000
   255  O2    s     0.545221    0.222266    0.681599    0.000000
   256  O2    s     0.226684    0.692184    0.516067    0.000000
   257  O3    s     0.300107    0.546092    0.846727    0.000000
   258  O2    s     0.463094    0.778899    0.181998    0.000000
   259  O2    s     0.312602    0.786092    0.320608    0.000000
   260  O2    s     0.462472    0.685021    0.985961    0.000000
   261  O2    s     0.230687    0.534102    0.655092    0.000000
   262  O2    s     0.707444    0.232795    0.820326    0.000000
   263  O2    s     0.534011    0.322608    0.486934    0.000000
   264  O2    s     0.775461    0.467231    0.153793    0.000000
   265  O2    s     0.785551    0.529327    0.032317    0.000000
   266  O2    s     0.466006    0.265081    0.365802    0.000000
   267  O2    s     0.754571    0.210929    0.700164    0.000000
   268  O3    s     0.234387    0.483061    0.527968    0.000000
   269  O2    s     0.521906    0.733660    0.865535    0.000000
   270  O2    s     0.255515    0.792559    0.198465    0.000000
   271  O2    s     0.533670    0.798813    0.304411    0.000000
   272  O2    s     0.256886    0.466164    0.970574    0.000000
   273  O2    s     0.211465    0.735476    0.635981    0.000000
   274  O2    s     0.487642    0.221133    0.804026    0.000000
   275  O2    s     0.745937    0.543461    0.470380    0.000000
   276  O2    s     0.787288    0.257733    0.136941    0.000000
   277  O3    s     0.218454    0.309715    0.905986    0.000000
   278  O2    s     0.665673    0.912829    0.233975    0.000000
   279  O2    s     0.092462    0.752356    0.567129    0.000000
   280  O2    s     0.764248    0.677471    0.399705    0.000000
   281  O2    s     0.347506    0.104060    0.733950    0.000000
   282  O2    s     0.903617    0.238223    0.066801    0.000000
   283  O2    s     0.333542    0.255818    0.436380    0.000000
   284  O2    s     0.907739    0.666986    0.103150    0.000000
   285  O2    s     0.769147    0.090108    0.771145    0.000000
   286  O2    s     0.657381    0.755125    0.934912    0.000000
   287  O3    s     0.100320    0.325137    0.609770    0.000000
   288  O2    s     0.242036    0.915207    0.268625    0.000000
   289  O2    s     0.575365    0.554601    0.984093    0.000000
   290  O2    s     0.442528    0.032335    0.321322    0.000000
   291  O2    s     0.984759    0.419341    0.654681    0.000000
   292  O2    s     0.428450    0.459901    0.488774    0.000000
   293  O2    s     0.569571    0.984691    0.823889    0.000000
   294  O2    s     0.021235    0.582518    0.156044    0.000000
   295  O2    s     0.560786    0.593843    0.347251    0.000000
   296  O2    s     0.021184    0.437743    0.014318    0.000000
   297  O2    s     0.421311    0.975667    0.682852    0.000000
   298  O3    s     0.450624    0.408753    0.843496    0.000000
   299  O2    s     0.981480    0.558312    0.512974    0.000000
   300  O2    s     0.580163    0.026510    0.180536    0.000000
   301  O2    s     0.576666    0.160669    0.250728    0.000000
   302  O2    s     0.852274    0.423822    0.584253    0.000000
   303  O2    s     0.568976    0.412333    0.916505    0.000000
   304  O2    s     0.432222    0.850210    0.753558    0.000000
   305  O2    s     0.151541    0.576580    0.085514    0.000000
   306  O2    s     0.429447    0.591863    0.417877    0.000000
   307  F     s     0.451587    0.909063    0.250216    0.000000
   308  F     s     0.098190    0.502066    0.577754    0.000000
   309  F     s     0.410383    0.506191    0.904528    0.000000
   310  F     s     0.563727    0.100800    0.751709    0.000000
   311  F     s     0.901129    0.451145    0.083506    0.000000
   312  F     s     0.553996    0.465707    0.416614    0.000000
--------------------------------------------------------------------------------

  Final Cartesian lattice vectors (Angstroms) :

       12.012963    0.000295   -0.005572
       -5.988238   10.332356   -0.005738
       -0.214365   -0.425811   29.447389


  Final cell parameters and derivatives :

--------------------------------------------------------------------------------
       a           12.012965 Angstrom     dE/de1(xx)    -0.000584 eV/strain
       b           11.942220 Angstrom     dE/de2(yy)    -0.000588 eV/strain
       c           29.451247 Angstrom     dE/de3(zz)    -0.000179 eV/strain
       alpha       90.535138 Degrees      dE/de4(yz)     0.000328 eV/strain
       beta        90.443631 Degrees      dE/de5(xz)     0.000296 eV/strain
       gamma      120.093510 Degrees      dE/de6(xy)    -0.000011 eV/strain
--------------------------------------------------------------------------------

  Primitive cell volume =          3655.071232 Angs**3

  Density of cell =      1.750470 g/cm**3

  Non-primitive cell volume =          3655.071232 Angs**3


  Final internal derivatives :

--------------------------------------------------------------------------------
   No.  Atomic          a             b             c           Radius
        Label          (eV)          (eV)          (eV)        (eV/Angs)
--------------------------------------------------------------------------------
      1 Si    c       0.000000      0.000000      0.000000      0.000000
      2 Si    c       0.000016      0.000059      0.000117      0.000000
      3 Si    c       0.000024     -0.000193      0.000334      0.000000
      4 Si    c      -0.000269      0.000201      0.000417      0.000000
      5 Si    c      -0.000166      0.000685     -0.000781      0.000000
      6 Si    c      -0.000038     -0.000044      0.000210      0.000000
      7 Si    c      -0.000027      0.000007      0.000072      0.000000
      8 Si    c      -0.000034     -0.000004      0.000109      0.000000
      9 Si    c       0.000003     -0.000017      0.000077      0.000000
     10 Si    c      -0.001068      0.001229      0.001007      0.000000
     11 Si    c      -0.000189      0.000106     -0.000498      0.000000
     12 Si    c      -0.000088      0.000161      0.000143      0.000000
     13 Si    c      -0.000184      0.000026     -0.000474      0.000000
     14 Si    c       0.000004      0.000038     -0.000054      0.000000
     15 Si    c       0.000006      0.000001     -0.000049      0.000000
     16 Si    c      -0.000028     -0.000141     -0.000179      0.000000
     17 Si    c      -0.000227      0.000068      0.000415      0.000000
     18 Si    c       0.000038     -0.000002      0.000146      0.000000
     19 Si    c       0.000042      0.000015      0.000041      0.000000
     20 Si    c      -0.000017     -0.000073     -0.000083      0.000000
     21 Si    c       0.000141     -0.000320     -0.000193      0.000000
     22 Si    c       0.000480      0.000501      0.000586      0.000000
     23 Si    c       0.000117      0.000030      0.000257      0.000000
     24 Si    c       0.000019     -0.000059      0.000360      0.000000
     25 Ge    c      -0.000324     -0.000230     -0.001157      0.000000
     26 Si    c       0.000044      0.000036      0.000234      0.000000
     27 Si    c      -0.000087      0.000042      0.000035      0.000000
     28 Si    c      -0.000069     -0.000050      0.000221      0.000000
     29 Si    c      -0.000004      0.000106      0.000213      0.000000
     30 Si    c       0.000010      0.000003      0.000025      0.000000
     31 Si    c       0.000021      0.000062     -0.000118      0.000000
     32 Si    c      -0.000048     -0.000007     -0.000253      0.000000
     33 Si    c      -0.000193      0.000026     -0.000861      0.000000
     34 Si    c      -0.000027      0.000004      0.000177      0.000000
     35 Si    c      -0.000034      0.000002     -0.000079      0.000000
     36 Si    c       0.000018      0.000016     -0.000076      0.000000
     37 Si    c       0.000048      0.000008     -0.000079      0.000000
     38 Si    c       0.000038     -0.000001     -0.000077      0.000000
     39 Si    c      -0.000033      0.000076      0.000063      0.000000
     40 Si    c       0.000064     -0.000047     -0.000055      0.000000
     41 Si    c       0.000372     -0.000273     -0.000153      0.000000
     42 Si    c       0.000067     -0.000048     -0.000075      0.000000
     43 Si    c      -0.000047      0.000057     -0.000031      0.000000
     44 Si    c      -0.000021     -0.000075      0.000135      0.000000
     45 Si    c      -0.000264      0.000287      0.000387      0.000000
     46 Si    c       0.000135     -0.000164     -0.000310      0.000000
     47 Ge    c       0.000044     -0.000132     -0.000152      0.000000
     48 Si    c      -0.000069      0.000046      0.000209      0.000000
     49 Si    c       0.000161     -0.000374     -0.002182      0.000000
     50 Si    c       0.000010      0.000018      0.000008      0.000000
     51 Si    c       0.000154     -0.000160     -0.000683      0.000000
     52 Si    c       0.000273     -0.000346     -0.000925      0.000000
     53 Si    c      -0.000622      0.000691      0.001755      0.000000
     54 Si    c       0.000041     -0.000026     -0.000007      0.000000
     55 Si    c       0.000024     -0.000137      0.000044      0.000000
     56 Si    c      -0.000191      0.000096      0.000265      0.000000
     57 Si    c       0.000046     -0.000042     -0.000667      0.000000
     58 Ge    c       0.000402     -0.000425     -0.001931      0.000000
     59 Si    c       0.000063      0.000090      0.001202      0.000000
     60 Si    c       0.000053      0.000048      0.000319      0.000000
     61 O2    c       0.000041     -0.000007      0.000211      0.000000
     62 O2    c       0.000044      0.000005      0.000061      0.000000
     63 O2    c      -0.000125      0.000090      0.000775      0.000000
     64 O2    c      -0.000583      0.000283      0.000516      0.000000
     65 O3    c      -0.000268      0.001977     -0.000028      0.000000
     66 O2    c       0.000077     -0.000052      0.000034      0.000000
     67 O2    c       0.000036      0.000001     -0.000103      0.000000
     68 O2    c      -0.000042      0.000064      0.000154      0.000000
     69 O2    c      -0.000022      0.000020     -0.000029      0.000000
     70 O2    c       0.000457     -0.001202     -0.001913      0.000000
     71 O2    c      -0.000032      0.000179     -0.000082      0.000000
     72 O2    c       0.000121     -0.000168      0.000348      0.000000
     73 O2    c      -0.000023     -0.000036      0.000443      0.000000
     74 O2    c       0.000017      0.000035      0.000004      0.000000
     75 O2    c      -0.000041      0.000001      0.000102      0.000000
     76 O2    c       0.000264     -0.000059     -0.000619      0.000000
     77 O2    c       0.000024      0.000123      0.000192      0.000000
     78 O2    c       0.000387     -0.000617      0.000379      0.000000
     79 O2    c       0.000160     -0.000001     -0.000099      0.000000
     80 O2    c       0.000134     -0.000146      0.000079      0.000000
     81 O2    c       0.000004      0.000029      0.000011      0.000000
     82 O2    c      -0.000325     -0.000151     -0.000018      0.000000
     83 O2    c      -0.001162      0.000272     -0.000975      0.000000
     84 O2    c       0.000003      0.000000      0.000047      0.000000
     85 O2    c       0.000004     -0.000005     -0.000153      0.000000
     86 O2    c       0.000190     -0.000159      0.000074      0.000000
     87 O2    c      -0.000041     -0.000012     -0.000078      0.000000
     88 O3    c       0.000739      0.000288      0.000207      0.000000
     89 O3    c      -0.000230      0.000424     -0.000442      0.000000
     90 O2    c      -0.000062      0.000002      0.000121      0.000000
     91 O2    c      -0.000101      0.000289     -0.000593      0.000000
     92 O2    c      -0.000128      0.000057     -0.000216      0.000000
     93 O3    c      -0.000351      0.001138      0.005193      0.000000
     94 O2    c      -0.000045      0.000028      0.001054      0.000000
     95 O2    c      -0.000101      0.000050     -0.000278      0.000000
     96 O2    c      -0.000149      0.000306     -0.000229      0.000000
     97 O2    c      -0.000156      0.000101      0.000035      0.000000
     98 O2    c       0.000036     -0.000097     -0.000104      0.000000
     99 O2    c       0.000078      0.000008      0.000000      0.000000
    100 O2    c       0.000137     -0.000151      0.000190      0.000000
    101 O3    c       0.001409     -0.002496     -0.000644      0.000000
    102 O2    c       0.000040     -0.000006     -0.000054      0.000000
    103 O2    c      -0.000008     -0.000014      0.000107      0.000000
    104 O2    c      -0.000015     -0.000033     -0.000173      0.000000
    105 O2    c      -0.000006     -0.000076     -0.000059      0.000000
    106 O3    c       0.000592     -0.000863      0.000917      0.000000
    107 O2    c       0.000365     -0.000083     -0.000274      0.000000
    108 O2    c       0.000016      0.000007     -0.000064      0.000000
    109 O2    c      -0.000019      0.000067     -0.000239      0.000000
    110 O2    c       0.000003      0.000004      0.000066      0.000000
    111 O2    c      -0.000035      0.000038     -0.000351      0.000000
    112 O2    c       0.000091      0.000028     -0.000612      0.000000
    113 O2    c      -0.000005      0.000013      0.000017      0.000000
    114 O2    c       0.000001      0.000031      0.000063      0.000000
    115 O2    c      -0.000142      0.000038     -0.000106      0.000000
    116 O2    c       0.000018      0.000005      0.000013      0.000000
    117 O2    c      -0.000022     -0.000018      0.000055      0.000000
    118 O2    c      -0.000013      0.000021     -0.000034      0.000000
    119 O2    c       0.000103     -0.000008     -0.000108      0.000000
    120 O2    c      -0.000019     -0.000011      0.000009      0.000000
    121 O2    c      -0.000004      0.000003      0.000019      0.000000
    122 O2    c      -0.000042      0.000026     -0.000020      0.000000
    123 O2    c      -0.000024     -0.000034     -0.000047      0.000000
    124 O2    c      -0.000046     -0.000000     -0.000045      0.000000
    125 O3    c      -0.000027      0.000030      0.000082      0.000000
    126 O2    c      -0.000034      0.000027      0.000043      0.000000
    127 O2    c       0.000005     -0.000065     -0.000097      0.000000
    128 O2    c      -0.000037      0.000064      0.000046      0.000000
    129 O2    c       0.000005      0.000018      0.000095      0.000000
    130 O2    c       0.000006     -0.000038     -0.000038      0.000000
    131 O3    c      -0.000106      0.000132      0.000260      0.000000
    132 O2    c       0.000022      0.000004     -0.000136      0.000000
    133 O2    c       0.000023     -0.000002     -0.000045      0.000000
    134 O2    c      -0.000028      0.000042      0.000031      0.000000
    135 O2    c      -0.000011     -0.000026      0.000016      0.000000
    136 O2    c       0.000222     -0.000125      0.000268      0.000000
    137 O2    c      -0.000078      0.000072      0.000174      0.000000
    138 O2    c       0.000014      0.000012     -0.000062      0.000000
    139 O2    c       0.000068      0.000077      0.000191      0.000000
    140 O2    c       0.000051     -0.000018     -0.000138      0.000000
    141 O2    c       0.000006     -0.000083      0.000273      0.000000
    142 O3    c      -0.000051     -0.000019     -0.000101      0.000000
    143 O2    c       0.000055     -0.000014      0.000053      0.000000
    144 O2    c      -0.000040      0.000054     -0.000025      0.000000
    145 O2    c      -0.000005      0.000014     -0.000068      0.000000
    146 O2    c      -0.000027     -0.000005      0.000001      0.000000
    147 O2    c      -0.000036      0.000008      0.000027      0.000000
    148 O2    c      -0.000415      0.000378      0.000759      0.000000
    149 O2    c       0.000020      0.000003     -0.000014      0.000000
    150 O2    c       0.000061     -0.000080      0.000008      0.000000
    151 O3    c      -0.000178      0.000089     -0.000160      0.000000
    152 O2    c      -0.000032      0.000031      0.000078      0.000000
    153 O2    c      -0.000029     -0.000000     -0.000068      0.000000
    154 O2    c      -0.000019      0.000013     -0.000030      0.000000
    155 O2    c       0.000035     -0.000024     -0.000096      0.000000
    156 O2    c      -0.000030     -0.000010      0.000033      0.000000
    157 O2    c       0.000015      0.000042      0.000099      0.000000
    158 O2    c       0.000010     -0.000058      0.000148      0.000000
    159 O2    c      -0.000106      0.000066     -0.000130      0.000000
    160 O2    c      -0.000002     -0.000017     -0.000309      0.000000
    161 O3    c      -0.000036      0.000055      0.000051      0.000000
    162 O2    c       0.000037     -0.000004     -0.000158      0.000000
    163 O2    c      -0.000032     -0.000010     -0.000061      0.000000
    164 O2    c      -0.000014     -0.000002      0.000044      0.000000
    165 O2    c       0.000024     -0.000016      0.000020      0.000000
    166 O2    c      -0.000017     -0.000025      0.000179      0.000000
    167 O2    c      -0.000017      0.000118     -0.000413      0.000000
    168 O2    c       0.000043     -0.000030      0.000009      0.000000
    169 O2    c      -0.000021      0.000003      0.000097      0.000000
    170 O2    c      -0.000025      0.000028      0.000082      0.000000
    171 O2    c      -0.000126      0.000117     -0.000196      0.000000
    172 O3    c      -0.000499      0.000134      0.000477      0.000000
    173 O2    c      -0.000046      0.000016     -0.000091      0.000000
    174 O2    c       0.000013     -0.000001      0.000044      0.000000
    175 O2    c      -0.000024     -0.000043     -0.000093      0.000000
    176 O2    c       0.000014     -0.000010      0.000065      0.000000
    177 O2    c       0.000054     -0.000039      0.000632      0.000000
    178 O2    c       0.000026     -0.000020     -0.000087      0.000000
    179 O2    c      -0.000013     -0.000003     -0.000059      0.000000
    180 O2    c       0.000028      0.000003     -0.000013      0.000000
    181 F     c       0.000014      0.000019      0.000085      0.000000
    182 F     c      -0.000064      0.000028      0.000089      0.000000
    183 F     c       0.000040     -0.000002      0.000201      0.000000
    184 F     c       0.000056      0.000227      0.000344      0.000000
    185 F     c      -0.000069     -0.000035     -0.000000      0.000000
    186 F     c       0.000001      0.000049      0.000038      0.000000
    187 O2    s       0.000003      0.000020     -0.000559      0.000000
    188 O2    s       0.000037     -0.000068     -0.000122      0.000000
    189 O2    s       0.000028      0.000024      0.000090      0.000000
    190 O2    s      -0.000055      0.000092      0.000319      0.000000
    191 O3    s       0.000025      0.000341      0.000368      0.000000
    192 O2    s       0.000042     -0.000057      0.000032      0.000000
    193 O2    s      -0.000017      0.000012     -0.000050      0.000000
    194 O2    s       0.000039      0.000037     -0.000019      0.000000
    195 O2    s      -0.000021     -0.000025      0.000107      0.000000
    196 O2    s      -0.000330      0.000693      0.001383      0.000000
    197 O2    s       0.000030     -0.000088      0.000027      0.000000
    198 O2    s      -0.000038      0.000088     -0.000088      0.000000
    199 O2    s       0.000035      0.000087     -0.000016      0.000000
    200 O2    s      -0.000004      0.000008     -0.000059      0.000000
    201 O2    s      -0.000020      0.000029     -0.000021      0.000000
    202 O2    s      -0.000108      0.000038      0.000329      0.000000
    203 O2    s      -0.000002     -0.000029     -0.000131      0.000000
    204 O2    s      -0.000223      0.000229     -0.000337      0.000000
    205 O2    s      -0.000163      0.000002     -0.000004      0.000000
    206 O2    s      -0.000085      0.000025      0.000150      0.000000
    207 O2    s       0.000058     -0.000065     -0.000108      0.000000
    208 O2    s      -0.000115     -0.000039     -0.000240      0.000000
    209 O2    s      -0.000606      0.000428      0.000900      0.000000
    210 O2    s      -0.000028      0.000044     -0.000013      0.000000
    211 O2    s       0.000072     -0.000003     -0.000030      0.000000
    212 O2    s      -0.000067      0.000055      0.000124      0.000000
    213 O2    s       0.000044     -0.000020      0.000009      0.000000
    214 O3    s      -0.000263      0.000130      0.000118      0.000000
    215 O3    s      -0.000083      0.000153      0.000579      0.000000
    216 O2    s      -0.000044      0.000029      0.000126      0.000000
    217 O2    s       0.000006     -0.000062      0.000055      0.000000
    218 O2    s       0.000018     -0.000006      0.000385      0.000000
    219 O3    s      -0.000054     -0.000472     -0.002660      0.000000
    220 O2    s      -0.000079      0.000409      0.001600      0.000000
    221 O2    s       0.000057     -0.000044      0.000106      0.000000
    222 O2    s       0.000197     -0.000093     -0.000325      0.000000
    223 O2    s       0.000172     -0.000102     -0.000114      0.000000
    224 O2    s       0.000017     -0.000004     -0.000263      0.000000
    225 O2    s       0.000114     -0.000051     -0.000046      0.000000
    226 O2    s       0.000278     -0.000170     -0.000175      0.000000
    227 O3    s       0.000111     -0.000555     -0.000365      0.000000
    228 O2    s      -0.000021      0.000016      0.000101      0.000000
    229 O2    s      -0.000062      0.000005      0.000005      0.000000
    230 O2    s       0.000021     -0.000037      0.000017      0.000000
    231 O2    s       0.000053     -0.000026      0.000080      0.000000
    232 O3    s      -0.000057     -0.000265     -0.000975      0.000000
    233 O2    s       0.000251     -0.000035     -0.000044      0.000000
    234 O2    s       0.000003      0.000039      0.000123      0.000000
    235 O2    s       0.000004     -0.000019     -0.000034      0.000000
    236 O2    s      -0.000013      0.000018      0.000073      0.000000
    237 O2    s       0.000081      0.000007      0.000003      0.000000
    238 O2    s      -0.000162     -0.000096      0.001013      0.000000
    239 O2    s       0.000001     -0.000019      0.000025      0.000000
    240 O2    s      -0.000024     -0.000031     -0.000108      0.000000
    241 O2    s      -0.000007     -0.000030     -0.000207      0.000000
    242 O2    s      -0.000005      0.000008      0.000040      0.000000
    243 O2    s       0.000026     -0.000010     -0.000055      0.000000
    244 O2    s       0.000023      0.000004      0.000077      0.000000
    245 O2    s      -0.000132     -0.000042      0.000404      0.000000
    246 O2    s      -0.000050      0.000025     -0.000102      0.000000
    247 O2    s       0.000007      0.000008      0.000017      0.000000
    248 O2    s      -0.000042     -0.000010      0.000089      0.000000
    249 O2    s      -0.000230      0.000084      0.000095      0.000000
    250 O2    s       0.000071     -0.000013     -0.000032      0.000000
    251 O3    s      -0.000038     -0.000039     -0.000064      0.000000
    252 O2    s       0.000009     -0.000059     -0.000031      0.000000
    253 O2    s      -0.000047      0.000096      0.000222      0.000000
    254 O2    s       0.000005     -0.000033     -0.000074      0.000000
    255 O2    s      -0.000026     -0.000023     -0.000288      0.000000
    256 O2    s      -0.000023      0.000024      0.000022      0.000000
    257 O3    s       0.000150     -0.000049     -0.000215      0.000000
    258 O2    s      -0.000053      0.000014      0.000061      0.000000
    259 O2    s       0.000012      0.000010     -0.000053      0.000000
    260 O2    s      -0.000007      0.000011      0.000119      0.000000
    261 O2    s       0.000017     -0.000010      0.000004      0.000000
    262 O2    s      -0.000422      0.000148     -0.000713      0.000000
    263 O2    s      -0.000051      0.000017     -0.000145      0.000000
    264 O2    s      -0.000019     -0.000092      0.000087      0.000000
    265 O2    s      -0.000066     -0.000037     -0.000157      0.000000
    266 O2    s      -0.000009      0.000055      0.000138      0.000000
    267 O2    s       0.000132      0.000017     -0.000530      0.000000
    268 O3    s       0.000037      0.000033      0.000157      0.000000
    269 O2    s       0.000063     -0.000104      0.000150      0.000000
    270 O2    s       0.000065     -0.000008     -0.000031      0.000000
    271 O2    s       0.000021      0.000011     -0.000010      0.000000
    272 O2    s       0.000068     -0.000041      0.000134      0.000000
    273 O2    s       0.000050     -0.000013     -0.000006      0.000000
    274 O2    s       0.000556     -0.000811     -0.001531      0.000000
    275 O2    s      -0.000038      0.000072      0.000047      0.000000
    276 O2    s      -0.000064      0.000097     -0.000161      0.000000
    277 O3    s       0.000353     -0.000216      0.000444      0.000000
    278 O2    s       0.000017     -0.000031      0.000022      0.000000
    279 O2    s       0.000039     -0.000054      0.000078      0.000000
    280 O2    s       0.000009      0.000010      0.000032      0.000000
    281 O2    s      -0.000119      0.000118     -0.000312      0.000000
    282 O2    s       0.000005     -0.000027      0.000138      0.000000
    283 O2    s       0.000046     -0.000036      0.000067      0.000000
    284 O2    s      -0.000026      0.000102     -0.000255      0.000000
    285 O2    s       0.000419     -0.000241      0.000352      0.000000
    286 O2    s       0.000051      0.000063      0.000049      0.000000
    287 O3    s       0.000016     -0.000069      0.000092      0.000000
    288 O2    s       0.000019     -0.000004     -0.000063      0.000000
    289 O2    s       0.000094     -0.000032      0.000156      0.000000
    290 O2    s       0.000040      0.000005      0.000011      0.000000
    291 O2    s       0.000020      0.000007     -0.000025      0.000000
    292 O2    s       0.000160     -0.000069     -0.000351      0.000000
    293 O2    s       0.000147     -0.000221      0.000882      0.000000
    294 O2    s       0.000017     -0.000021      0.000044      0.000000
    295 O2    s       0.000009     -0.000001     -0.000134      0.000000
    296 O2    s       0.000009     -0.000042     -0.000046      0.000000
    297 O2    s       0.000301     -0.000090      0.000706      0.000000
    298 O3    s       0.000561     -0.000330     -0.000539      0.000000
    299 O2    s       0.000056     -0.000076      0.000242      0.000000
    300 O2    s       0.000006     -0.000017     -0.000054      0.000000
    301 O2    s       0.000030      0.000047      0.000251      0.000000
    302 O2    s      -0.000012      0.000018      0.000008      0.000000
    303 O2    s       0.000020     -0.000028      0.000011      0.000000
    304 O2    s       0.000062      0.000196     -0.000472      0.000000
    305 O2    s      -0.000055     -0.000019      0.000102      0.000000
    306 O2    s      -0.000002      0.000020      0.000062      0.000000
    307 F     s      -0.000009     -0.000013     -0.000146      0.000000
    308 F     s       0.000006      0.000069      0.000022      0.000000
    309 F     s       0.000017      0.000077      0.000233      0.000000
    310 F     s      -0.000046     -0.000398     -0.000719      0.000000
    311 F     s       0.000053     -0.000027     -0.000064      0.000000
    312 F     s      -0.000013     -0.000049     -0.000080      0.000000
--------------------------------------------------------------------------------
  Maximum abs         0.001409      0.002496      0.005193      0.000000
--------------------------------------------------------------------------------


  Time to end of optimisation =       4.2641 seconds


  Peak dynamic memory used =      19.13 MB 


  Timing analysis for GULP :

--------------------------------------------------------------------------------
  Task / Subroutine                                          Time (Seconds)
--------------------------------------------------------------------------------
  Calculation of reciprocal space energy and derivatives          0.2181
  Calculation of real space energy and derivatives                3.2599
  Calculation of three-body energy and derivatives                0.3595
  Calculation of matrix inversion                                 0.2629
--------------------------------------------------------------------------------
  Total CPU time                                                  4.2642
--------------------------------------------------------------------------------


  Dump file written as out.res                                                 
  CIF file written as out.cif                                                 


  Job Finished at 13:05.53 26th November   2016                               

