********************************************************************************
*                       GENERAL UTILITY LATTICE PROGRAM                        *
*                                 Julian Gale                                  *
*                      Nanochemistry Research Institute                        *
*                           Department of Chemistry                            *
*                    Curtin University, Western Australia                      *
********************************************************************************
* Version = 4.2.0 * Last modified =  20th January 2014                         *
********************************************************************************
*  optimise     - perform optimisation run                                     *
*  conp         - constant pressure calculation                                *
*  qok          - running with non charge neutral cell is OK                   *
********************************************************************************

  Job Started  at 08:16.55 26th November   2016                               

  Number of CPUs =     1


  Total number of configurations input =   1

********************************************************************************
*  Input for Configuration =   1                                               *
********************************************************************************

  Formula = Si57Ge3O120F6                                               

  Number of irreducible atoms/shells =     312


  Total number atoms/shells =     312

  Dimensionality = 3               :  Bulk   


  Charge on solid   =  -6.000000 =>neutralising background added


  Cartesian lattice vectors (Angstroms) :

       11.998471    0.000000    0.000000
       -6.031974   10.381326    0.000000
       -0.075896   -0.203448   29.424000

  Cell parameters (Angstroms/Degrees):

  a =      11.9985    alpha =  90.2683
  b =      12.0065    beta  =  90.1478
  c =      29.4248    gamma = 120.1583

  Initial cell volume =        3665.054615 Angs**3

  Temperature of configuration =  0.000     K 

  Pressure of configuration =         0.000 GPa 

  Fractional coordinates of asymmetric unit :

--------------------------------------------------------------------------------
   No.  Atomic       x           y          z         Charge      Occupancy
        Label      (Frac)      (Frac)     (Frac)        (e)         (Frac)  
--------------------------------------------------------------------------------
      1 Si    c    0.699600    0.375700    0.033890     4.00000    1.000000    
      2 Si    c    0.624623 *  0.326805 *  0.368017 *   4.00000    1.000000    
      3 Si    c    0.681277 *  0.296707 *  0.700520 *   4.00000    1.000000    
      4 Si    c    0.296513 *  0.619772 *  0.535552 *   4.00000    1.000000    
      5 Si    c    0.373624 *  0.680702 *  0.865277 *   4.00000    1.000000    
      6 Si    c    0.324081 *  0.700443 *  0.200824 *   4.00000    1.000000    
      7 Si    c    0.377689 *  0.700382 *  0.301702 *   4.00000    1.000000    
      8 Si    c    0.316357 *  0.615841 *  0.967523 *   4.00000    1.000000    
      9 Si    c    0.296468 *  0.675695 *  0.636333 *   4.00000    1.000000    
     10 Si    c    0.632702 *  0.300809 *  0.801376 *   4.00000    1.000000    
     11 Si    c    0.675352 *  0.377465 *  0.469378 *   4.00000    1.000000    
     12 Si    c    0.699372 *  0.318696 *  0.134195 *   4.00000    1.000000    
     13 Si    c    0.526307 *  0.409381 *  0.966890 *   4.00000    1.000000    
     14 Si    c    0.583637 *  0.115132 *  0.302864 *   4.00000    1.000000    
     15 Si    c    0.889185 *  0.470100 *  0.635677 *   4.00000    1.000000    
     16 Si    c    0.468262 *  0.581552 *  0.470241 *   4.00000    1.000000    
     17 Si    c    0.421703 *  0.897538 *  0.802952 *   4.00000    1.000000    
     18 Si    c    0.113404 *  0.528717 *  0.135068 *   4.00000    1.000000    
     19 Si    c    0.419806 *  0.534504 *  0.368000 *   4.00000    1.000000    
     20 Si    c    0.108903 *  0.579800 *  0.033423 *   4.00000    1.000000    
     21 Si    c    0.470014 *  0.887496 *  0.701630 *   4.00000    1.000000    
     22 Si    c    0.588134 *  0.467703 *  0.863881 *   4.00000    1.000000    
     23 Si    c    0.886997 *  0.415536 *  0.533946 *   4.00000    1.000000    
     24 Si    c    0.532678 *  0.112663 *  0.200912 *   4.00000    1.000000    
     25 Ge    c    0.315327 *  0.411051 *  0.857985 *   4.00000    1.000000    
     26 Si    c    0.602161 *  0.903196 *  0.186862 *   4.00000    1.000000    
     27 Si    c    0.095681 *  0.695406 *  0.520346 *   4.00000    1.000000    
     28 Si    c    0.699522 *  0.603942 *  0.354792 *   4.00000    1.000000    
     29 Si    c    0.401383 *  0.097788 *  0.687517 *   4.00000    1.000000    
     30 Si    c    0.900825 *  0.299393 *  0.018175 *   4.00000    1.000000    
     31 Si    c    0.396239 *  0.299730 *  0.482956 *   4.00000    1.000000    
     32 Si    c    0.902227 *  0.595716 *  0.150134 *   4.00000    1.000000    
     33 Si    c    0.704808 *  0.098233 *  0.816594 *   4.00000    1.000000    
     34 Si    c    0.597663 *  0.693681 *  0.982112 *   4.00000    1.000000    
     35 Si    c    0.096205 *  0.396704 *  0.650906 *   4.00000    1.000000    
     36 Si    c    0.303097 *  0.902716 *  0.316926 *   4.00000    1.000000    
     37 Si    c    0.242618 *  0.328512 *  0.953758 *   4.00000    1.000000    
     38 Si    c    0.657227 *  0.911622 *  0.287885 *   4.00000    1.000000    
     39 Si    c    0.088986 *  0.749096 *  0.620985 *   4.00000    1.000000    
     40 Si    c    0.747091 *  0.658149 *  0.456050 *   4.00000    1.000000    
     41 Si    c    0.346795 *  0.099596 *  0.788331 *   4.00000    1.000000    
     42 Si    c    0.910360 *  0.250846 *  0.118948 *   4.00000    1.000000    
     43 Si    c    0.345452 *  0.257372 *  0.381491 *   4.00000    1.000000    
     44 Si    c    0.908647 *  0.657022 *  0.050008 *   4.00000    1.000000    
     45 Si    c    0.750588 *  0.086710 *  0.715684 *   4.00000    1.000000    
     46 Si    c    0.659147 *  0.748342 *  0.880432 *   4.00000    1.000000    
     47 Si    c    0.088031 *  0.339109 *  0.549763 *   4.00000    1.000000    
     48 Si    c    0.255141 *  0.910580 *  0.216050 *   4.00000    1.000000    
     49 Si    c    0.966828 *  0.116409 *  0.969455 *   4.00000    1.000000    
     50 Si    c    0.873751 *  0.851202 *  0.303795 *   4.00000    1.000000    
     51 Si    c    0.152844 *  0.030152 *  0.637015 *   4.00000    1.000000    
     52 Si    c    0.026220 *  0.875968 *  0.472280 *   4.00000    1.000000    
     53 Si    c    0.127580 *  0.160960 *  0.804067 *   4.00000    1.000000    
     54 Si    c    0.847750 *  0.971937 *  0.134613 *   4.00000    1.000000    
     55 Ge    c    0.124202 *  0.973984 *  0.369352 *   4.00000    1.000000    
     56 Si    c    0.844699 *  0.873060 *  0.033985 *   4.00000    1.000000    
     57 Si    c    0.030554 *  0.150189 *  0.702422 *   4.00000    1.000000    
     58 Si    c    0.882612 *  0.028391 *  0.867169 *   4.00000    1.000000    
     59 Si    c    0.150754 *  0.122203 *  0.536051 *   4.00000    1.000000    
     60 Ge    c    0.971243 *  0.847824 *  0.200673 *   4.00000    1.000000    
     61 O2    c    0.921444 *  0.992604 *  0.000908 *   0.87073    1.000000    
     62 O3    c    0.992683 *  0.934416 *  0.336109 *   1.33043    1.000000    
     63 O2    c    0.073119 *  0.069974 *  0.670194 *   0.87073    1.000000    
     64 O2    c    0.066635 *  0.994367 *  0.506642 *   0.87073    1.000000    
     65 O2    c    0.003948 *  0.068353 *  0.835282 *   0.87073    1.000000    
     66 O3    c    0.934325 *  0.936908 *  0.164836 *   1.33043    1.000000    
     67 O2    c    0.341419 *  0.579931 *  0.335037 *   0.87073    1.000000    
     68 O2    c    0.418991 *  0.760645 *  0.669500 *   0.87073    1.000000    
     69 O2    c    0.233958 *  0.655163 *  0.000747 *   0.87073    1.000000    
     70 O2    c    0.675657 *  0.425364 *  0.834421 *   0.87073    1.000000    
     71 O2    c    0.578660 *  0.235322 *  0.167538 *   0.87073    1.000000    
     72 O2    c    0.760076 *  0.338626 *  0.501724 *   0.87073    1.000000    
     73 O2    c    0.577904 *  0.337965 *  0.000280 *   0.87073    1.000000    
     74 O2    c    0.763548 *  0.419281 *  0.667774 *   0.87073    1.000000    
     75 O2    c    0.661853 *  0.241197 *  0.335200 *   0.87073    1.000000    
     76 O2    c    0.419674 *  0.657191 *  0.503108 *   0.87073    1.000000    
     77 O2    c    0.239788 *  0.578161 *  0.167271 *   0.87073    1.000000    
     78 O2    c    0.343278 *  0.777252 *  0.837042 *   0.87073    1.000000    
     79 O2    c    0.119657 *  0.208400 *  0.978596 *   0.87073    1.000000    
     80 O2    c    0.780211 *  0.910865 *  0.309561 *   0.87073    1.000000    
     81 O2    c    0.088500 *  0.875493 *  0.640493 *   0.87073    1.000000    
     82 O2    c    0.872106 *  0.783331 *  0.477384 *   0.87073    1.000000    
     83 O2    c    0.224505 *  0.103102 *  0.809119 *   0.87073    1.000000    
     84 O2    c    0.910006 *  0.125887 *  0.139105 *   0.87073    1.000000    
     85 O3    c    0.222138 *  0.135844 *  0.359577 *   1.33043    1.000000    
     86 O2    c    0.908806 *  0.783077 *  0.030041 *   0.87073    1.000000    
     87 O2    c    0.876130 *  0.085753 *  0.695775 *   0.87073    1.000000    
     88 O2    c    0.786197 *  0.874090 *  0.861681 *   0.87073    1.000000    
     89 O2    c    0.088153 *  0.212976 *  0.529591 *   0.87073    1.000000    
     90 O3    c    0.134698 *  0.914007 *  0.194323 *   1.33043    1.000000    
     91 O3    c    0.925717 *  0.867345 *  0.253363 *   1.33043    1.000000    
     92 O2    c    0.143830 *  0.077632 *  0.587336 *   0.87073    1.000000    
     93 O2    c    0.931769 *  0.063875 *  0.918610 *   0.87073    1.000000    
     94 O2    c    0.070475 *  0.139167 *  0.752978 *   0.87073    1.000000    
     95 O2    c    0.853669 *  0.927859 *  0.083794 *   0.87073    1.000000    
     96 O3    c    0.067156 *  0.937140 *  0.423412 *   1.33043    1.000000    
     97 O2    c    0.896506 *  0.198664 *  0.980193 *   0.87073    1.000000    
     98 O2    c    0.796870 *  0.699569 *  0.316312 *   0.87073    1.000000    
     99 O2    c    0.304097 *  0.097654 *  0.649090 *   0.87073    1.000000    
    100 O2    c    0.096276 *  0.793217 *  0.482090 *   0.87073    1.000000    
    101 O3    c    0.200880 *  0.307089 *  0.816121 *   1.33043    1.000000    
    102 O2    c    0.697564 *  0.899988 *  0.148580 *   0.87073    1.000000    
    103 O3    c    0.207699 *  0.896357 *  0.356263 *   1.33043    1.000000    
    104 O2    c    0.693132 *  0.787984 *  0.021275 *   0.87073    1.000000    
    105 O2    c    0.098199 *  0.301063 *  0.689207 *   0.87073    1.000000    
    106 O2    c    0.802243 *  0.099212 *  0.855193 *   0.87073    1.000000    
    107 O2    c    0.300196 *  0.201422 *  0.521081 *   0.87073    1.000000    
    108 O3    c    0.896487 *  0.685389 *  0.189519 *   1.33043    1.000000    
    109 O2    c    0.322921 *  0.642392 *  0.250981 *   0.87073    1.000000    
    110 O2    c    0.354156 *  0.677143 *  0.585964 *   0.87073    1.000000    
    111 O2    c    0.319216 *  0.671916 *  0.917306 *   0.87073    1.000000    
    112 O2    c    0.686096 *  0.356222 *  0.750854 *   0.87073    1.000000    
    113 O2    c    0.641214 *  0.316376 *  0.083679 *   0.87073    1.000000    
    114 O2    c    0.678714 *  0.323889 *  0.418599 *   0.87073    1.000000    
    115 O2    c    0.370563 *  0.323678 *  0.970102 *   0.87073    1.000000    
    116 O2    c    0.668812 *  0.044738 *  0.305936 *   0.87073    1.000000    
    117 O2    c    0.956786 *  0.626120 *  0.638991 *   0.87073    1.000000    
    118 O2    c    0.624435 *  0.667656 *  0.473875 *   0.87073    1.000000    
    119 O2    c    0.335402 *  0.966332 *  0.805925 *   0.87073    1.000000    
    120 O2    c    0.043742 *  0.372723 *  0.137359 *   0.87073    1.000000    
    121 O2    c    0.333987 *  0.379164 *  0.364349 *   0.87073    1.000000    
    122 O2    c    0.039749 *  0.666553 *  0.030529 *   0.87073    1.000000    
    123 O2    c    0.626032 *  0.954702 *  0.697688 *   0.87073    1.000000    
    124 O2    c    0.668825 *  0.625109 *  0.863698 *   0.87073    1.000000    
    125 O2    c    0.955732 *  0.328387 *  0.530796 *   0.87073    1.000000    
    126 O2    c    0.377264 *  0.042922 *  0.198014 *   0.87073    1.000000    
    127 O2    c    0.768492 *  0.302490 *  0.010921 *   0.87073    1.000000    
    128 O2    c    0.699963 *  0.470522 *  0.346402 *   0.87073    1.000000    
    129 O2    c    0.537074 *  0.228636 *  0.678761 *   0.87073    1.000000    
    130 O2    c    0.229220 *  0.694875 *  0.512670 *   0.87073    1.000000    
    131 O3    c    0.298589 *  0.544230 *  0.841135 *   1.33043    1.000000    
    132 O2    c    0.467450 *  0.769822 *  0.178825 *   0.87073    1.000000    
    133 O2    c    0.302844 *  0.768700 *  0.323204 *   0.87073    1.000000    
    134 O2    c    0.462019 *  0.689185 *  0.988072 *   0.87073    1.000000    
    135 O2    c    0.229264 *  0.532324 *  0.658098 *   0.87073    1.000000    
    136 O2    c    0.708126 *  0.233550 *  0.823656 *   0.87073    1.000000    
    137 O2    c    0.531169 *  0.301754 *  0.490677 *   0.87073    1.000000    
    138 O2    c    0.767723 *  0.461975 *  0.156102 *   0.87073    1.000000    
    139 O2    c    0.779558 *  0.532244 *  0.030921 *   0.87073    1.000000    
    140 O2    c    0.469474 *  0.254074 *  0.362024 *   0.87073    1.000000    
    141 O2    c    0.753149 *  0.213129 *  0.695788 *   0.87073    1.000000    
    142 O2    c    0.214772 *  0.463877 *  0.530420 *   0.87073    1.000000    
    143 O2    c    0.530526 *  0.743951 *  0.862456 *   0.87073    1.000000    
    144 O2    c    0.250098 *  0.781766 *  0.196748 *   0.87073    1.000000    
    145 O2    c    0.532776 *  0.784597 *  0.306726 *   0.87073    1.000000    
    146 O2    c    0.250016 *  0.461147 *  0.971278 *   0.87073    1.000000    
    147 O2    c    0.214545 *  0.749406 *  0.640852 *   0.87073    1.000000    
    148 O2    c    0.477352 *  0.221867 *  0.807446 *   0.87073    1.000000    
    149 O2    c    0.747766 *  0.532861 *  0.475103 *   0.87073    1.000000    
    150 O2    c    0.783723 *  0.248075 *  0.138474 *   0.87073    1.000000    
    151 O3    c    0.213937 *  0.302259 *  0.901237 *   1.33043    1.000000    
    152 O2    c    0.676238 *  0.908092 *  0.233515 *   0.87073    1.000000    
    153 O2    c    0.090969 *  0.766633 *  0.566543 *   0.87073    1.000000    
    154 O2    c    0.769758 *  0.677395 *  0.401697 *   0.87073    1.000000    
    155 O2    c    0.330061 *  0.099791 *  0.733786 *   0.87073    1.000000    
    156 O2    c    0.906965 *  0.231202 *  0.064603 *   0.87073    1.000000    
    157 O2    c    0.324194 *  0.230364 *  0.435770 *   0.87073    1.000000    
    158 O2    c    0.910498 *  0.676473 *  0.104587 *   0.87073    1.000000    
    159 O2    c    0.771457 *  0.089413 *  0.770059 *   0.87073    1.000000    
    160 O2    c    0.667096 *  0.759602 *  0.935185 *   0.87073    1.000000    
    161 O2    c    0.090246 *  0.322515 *  0.604089 *   0.87073    1.000000    
    162 O2    c    0.230829 *  0.907952 *  0.270612 *   0.87073    1.000000    
    163 O2    c    0.577493 *  0.552024 *  0.987554 *   0.87073    1.000000    
    164 O2    c    0.442049 *  0.030204 *  0.325294 *   0.87073    1.000000    
    165 O2    c    0.972406 *  0.413063 *  0.659129 *   0.87073    1.000000    
    166 O2    c    0.409502 *  0.438700 *  0.491631 *   0.87073    1.000000    
    167 O2    c    0.563869 *  0.976224 *  0.826195 *   0.87073    1.000000    
    168 O2    c    0.028661 *  0.583607 *  0.158761 *   0.87073    1.000000    
    169 O2    c    0.561554 *  0.592581 *  0.345591 *   0.87073    1.000000    
    170 O2    c    0.026253 *  0.438914 *  0.009597 *   0.87073    1.000000    
    171 O2    c    0.411690 *  0.970422 *  0.678967 *   0.87073    1.000000    
    172 O3    c    0.453227 *  0.408350 *  0.838160 *   1.33043    1.000000    
    173 O2    c    0.970452 *  0.556040 *  0.510631 *   0.87073    1.000000    
    174 O2    c    0.590759 *  0.029470 *  0.178008 *   0.87073    1.000000    
    175 O2    c    0.585857 *  0.167916 *  0.251765 *   0.87073    1.000000    
    176 O2    c    0.834992 *  0.416270 *  0.584791 *   0.87073    1.000000    
    177 O2    c    0.578523 *  0.413619 *  0.915882 *   0.87073    1.000000    
    178 O2    c    0.418727 *  0.837567 *  0.752851 *   0.87073    1.000000    
    179 O2    c    0.164540 *  0.581855 *  0.084096 *   0.87073    1.000000    
    180 O2    c    0.418135 *  0.585873 *  0.419108 *   0.87073    1.000000    
    181 F     c    0.451462 *  0.904765 *  0.251183 *   0.56000    1.000000    
    182 F     c    0.095410 *  0.547630 *  0.584517 *   0.56000    1.000000    
    183 F     c    0.422468 *  0.516229 *  0.906559 *   0.56000    1.000000    
    184 F     c    0.553194 *  0.096906 *  0.751917 *   0.56000    1.000000    
    185 F     c    0.903481 *  0.452404 *  0.083775 *   0.56000    1.000000    
    186 F     c    0.548182 *  0.452873 *  0.418024 *   0.56000    1.000000    
    187 O2    s    0.917747 *  0.992791 *  0.001164 *  -2.87073    1.000000    
    188 O3    s    0.991340 *  0.928831 *  0.335524 *  -3.33043    1.000000    
    189 O2    s    0.077385 *  0.074345 *  0.670013 *  -2.87073    1.000000    
    190 O2    s    0.071663 *  0.995687 *  0.506162 *  -2.87073    1.000000    
    191 O2    s    0.002861 *  0.073320 *  0.835698 *  -2.87073    1.000000    
    192 O3    s    0.928028 *  0.933058 *  0.164620 *  -3.33043    1.000000    
    193 O2    s    0.353186 *  0.587777 *  0.334941 *  -2.87073    1.000000    
    194 O2    s    0.411593 *  0.764913 *  0.669370 *  -2.87073    1.000000    
    195 O2    s    0.229793 *  0.643425 *  0.000616 *  -2.87073    1.000000    
    196 O2    s    0.662592 *  0.417244 *  0.834097 *  -2.87073    1.000000    
    197 O2    s    0.586505 *  0.231434 *  0.167474 *  -2.87073    1.000000    
    198 O2    s    0.764288 *  0.350452 *  0.501669 *  -2.87073    1.000000    
    199 O2    s    0.584981 *  0.349262 *  0.000250 *  -2.87073    1.000000    
    200 O2    s    0.768077 *  0.411881 *  0.667842 *  -2.87073    1.000000    
    201 O2    s    0.650024 *  0.236959 *  0.335223 *  -2.87073    1.000000    
    202 O2    s    0.412132 *  0.645536 *  0.503025 *  -2.87073    1.000000    
    203 O2    s    0.235368 *  0.585518 *  0.167384 *  -2.87073    1.000000    
    204 O2    s    0.354603 *  0.779362 *  0.836558 *  -2.87073    1.000000    
    205 O2    s    0.115912 *  0.210753 *  0.975222 *  -2.87073    1.000000    
    206 O2    s    0.776859 *  0.904634 *  0.306644 *  -2.87073    1.000000    
    207 O2    s    0.095326 *  0.878683 *  0.638128 *  -2.87073    1.000000    
    208 O2    s    0.875285 *  0.780013 *  0.474642 *  -2.87073    1.000000    
    209 O2    s    0.227941 *  0.108473 *  0.806416 *  -2.87073    1.000000    
    210 O2    s    0.903390 *  0.122775 *  0.136506 *  -2.87073    1.000000    
    211 O3    s    0.226402 *  0.134628 *  0.362566 *  -3.33043    1.000000    
    212 O2    s    0.901967 *  0.779688 *  0.032487 *  -2.87073    1.000000    
    213 O2    s    0.879223 *  0.092552 *  0.698493 *  -2.87073    1.000000    
    214 O2    s    0.782599 *  0.876608 *  0.864219 *  -2.87073    1.000000    
    215 O2    s    0.094752 *  0.216356 *  0.532316 *  -2.87073    1.000000    
    216 O3    s    0.133146 *  0.908145 *  0.197014 *  -3.33043    1.000000    
    217 O3    s    0.924281 *  0.863852 *  0.254002 *  -3.33043    1.000000    
    218 O2    s    0.145639 *  0.077329 *  0.587101 *  -2.87073    1.000000    
    219 O2    s    0.930253 *  0.065878 *  0.918681 *  -2.87073    1.000000    
    220 O2    s    0.071904 *  0.142722 *  0.752546 *  -2.87073    1.000000    
    221 O2    s    0.851938 *  0.926391 *  0.083669 *  -2.87073    1.000000    
    222 O3    s    0.067815 *  0.933789 *  0.423894 *  -3.33043    1.000000    
    223 O2    s    0.904253 *  0.200416 *  0.982969 *  -2.87073    1.000000    
    224 O2    s    0.794926 *  0.705527 *  0.318939 *  -2.87073    1.000000    
    225 O2    s    0.297914 *  0.090420 *  0.651758 *  -2.87073    1.000000    
    226 O2    s    0.088918 *  0.791959 *  0.484915 *  -2.87073    1.000000    
    227 O3    s    0.200207 *  0.297480 *  0.817531 *  -3.33043    1.000000    
    228 O2    s    0.703620 *  0.907905 *  0.151055 *  -2.87073    1.000000    
    229 O3    s    0.210109 *  0.903351 *  0.353520 *  -3.33043    1.000000    
    230 O2    s    0.698811 *  0.786812 *  0.018424 *  -2.87073    1.000000    
    231 O2    s    0.090947 *  0.295244 *  0.686613 *  -2.87073    1.000000    
    232 O2    s    0.800786 *  0.091592 *  0.852507 *  -2.87073    1.000000    
    233 O2    s    0.294307 *  0.203193 *  0.518726 *  -2.87073    1.000000    
    234 O3    s    0.903215 *  0.690031 *  0.186591 *  -3.33043    1.000000    
    235 O2    s    0.328559 *  0.654108 *  0.251011 *  -2.87073    1.000000    
    236 O2    s    0.342432 *  0.671141 *  0.585907 *  -2.87073    1.000000    
    237 O2    s    0.324138 *  0.666839 *  0.917583 *  -2.87073    1.000000    
    238 O2    s    0.680102 *  0.344407 *  0.750911 *  -2.87073    1.000000    
    239 O2    s    0.653013 *  0.322649 *  0.083685 *  -2.87073    1.000000    
    240 O2    s    0.672836 *  0.329628 *  0.418568 *  -2.87073    1.000000    
    241 O2    s    0.374015 *  0.333061 *  0.968129 *  -2.87073    1.000000    
    242 O2    s    0.658738 *  0.038060 *  0.303703 *  -2.87073    1.000000    
    243 O2    s    0.963613 *  0.622925 *  0.636767 *  -2.87073    1.000000    
    244 O2    s    0.621211 *  0.657773 *  0.471614 *  -2.87073    1.000000    
    245 O2    s    0.345691 *  0.972978 *  0.803762 *  -2.87073    1.000000    
    246 O2    s    0.037019 *  0.376124 *  0.135189 *  -2.87073    1.000000    
    247 O2    s    0.344286 *  0.382742 *  0.366563 *  -2.87073    1.000000    
    248 O2    s    0.033245 *  0.656658 *  0.032856 *  -2.87073    1.000000    
    249 O2    s    0.623103 *  0.961612 *  0.699976 *  -2.87073    1.000000    
    250 O2    s    0.659708 *  0.622420 *  0.865507 *  -2.87073    1.000000    
    251 O2    s    0.962432 *  0.338413 *  0.533093 *  -2.87073    1.000000    
    252 O2    s    0.380953 *  0.036420 *  0.200237 *  -2.87073    1.000000    
    253 O2    s    0.775294 *  0.309738 *  0.014088 *  -2.87073    1.000000    
    254 O2    s    0.692188 *  0.469665 *  0.349531 *  -2.87073    1.000000    
    255 O2    s    0.537653 *  0.221852 *  0.681961 *  -2.87073    1.000000    
    256 O2    s    0.222118 *  0.687270 *  0.515835 *  -2.87073    1.000000    
    257 O3    s    0.307643 *  0.549200 *  0.844890 *  -3.33043    1.000000    
    258 O2    s    0.466814 *  0.776663 *  0.181964 *  -2.87073    1.000000    
    259 O2    s    0.310769 *  0.775596 *  0.320227 *  -2.87073    1.000000    
    260 O2    s    0.461626 *  0.682143 *  0.985314 *  -2.87073    1.000000    
    261 O2    s    0.222251 *  0.532881 *  0.655067 *  -2.87073    1.000000    
    262 O2    s    0.699987 *  0.226173 *  0.820568 *  -2.87073    1.000000    
    263 O2    s    0.531939 *  0.309337 *  0.487645 *  -2.87073    1.000000    
    264 O2    s    0.774768 *  0.461021 *  0.153105 *  -2.87073    1.000000    
    265 O2    s    0.785169 *  0.529440 *  0.033255 *  -2.87073    1.000000    
    266 O2    s    0.472598 *  0.262225 *  0.364725 *  -2.87073    1.000000    
    267 O2    s    0.745276 *  0.208174 *  0.698393 *  -2.87073    1.000000    
    268 O2    s    0.209501 *  0.466647 *  0.533017 *  -2.87073    1.000000    
    269 O2    s    0.529200 *  0.738058 *  0.864696 *  -2.87073    1.000000    
    270 O2    s    0.258524 *  0.786992 *  0.199223 *  -2.87073    1.000000    
    271 O2    s    0.529827 *  0.789626 *  0.304138 *  -2.87073    1.000000    
    272 O2    s    0.256436 *  0.464113 *  0.969094 *  -2.87073    1.000000    
    273 O2    s    0.209370 *  0.741597 *  0.638251 *  -2.87073    1.000000    
    274 O2    s    0.479584 *  0.216824 *  0.804787 *  -2.87073    1.000000    
    275 O2    s    0.739980 *  0.530148 *  0.472456 *  -2.87073    1.000000    
    276 O2    s    0.788672 *  0.255975 *  0.135911 *  -2.87073    1.000000    
    277 O3    s    0.223756 *  0.312273 *  0.903943 *  -3.33043    1.000000    
    278 O2    s    0.666495 *  0.907934 *  0.234288 *  -2.87073    1.000000    
    279 O2    s    0.091241 *  0.757290 *  0.567471 *  -2.87073    1.000000    
    280 O2    s    0.760146 *  0.667779 *  0.402473 *  -2.87073    1.000000    
    281 O2    s    0.339380 *  0.099568 *  0.734653 *  -2.87073    1.000000    
    282 O2    s    0.906684 *  0.240511 *  0.065510 *  -2.87073    1.000000    
    283 O2    s    0.333820 *  0.240242 *  0.435125 *  -2.87073    1.000000    
    284 O2    s    0.909542 *  0.666432 *  0.103485 *  -2.87073    1.000000    
    285 O2    s    0.762208 *  0.090047 *  0.769224 *  -2.87073    1.000000    
    286 O2    s    0.658751 *  0.751287 *  0.934495 *  -2.87073    1.000000    
    287 O2    s    0.090631 *  0.332082 *  0.603203 *  -2.87073    1.000000    
    288 O2    s    0.240415 *  0.907695 *  0.269770 *  -2.87073    1.000000    
    289 O2    s    0.574188 *  0.552599 *  0.984759 *  -2.87073    1.000000    
    290 O2    s    0.442056 *  0.025375 *  0.322056 *  -2.87073    1.000000    
    291 O2    s    0.977238 *  0.417438 *  0.655786 *  -2.87073    1.000000    
    292 O2    s    0.414387 *  0.438696 *  0.488450 *  -2.87073    1.000000    
    293 O2    s    0.564305 *  0.981332 *  0.822746 *  -2.87073    1.000000    
    294 O2    s    0.023873 *  0.578986 *  0.155345 *  -2.87073    1.000000    
    295 O2    s    0.561557 *  0.587565 *  0.348932 *  -2.87073    1.000000    
    296 O2    s    0.021274 *  0.438640 *  0.012986 *  -2.87073    1.000000    
    297 O2    s    0.416868 *  0.975578 *  0.682269 *  -2.87073    1.000000    
    298 O3    s    0.457060 *  0.414861 *  0.842242 *  -3.33043    1.000000    
    299 O2    s    0.975351 *  0.556332 *  0.514096 *  -2.87073    1.000000    
    300 O2    s    0.585769 *  0.024346 *  0.181361 *  -2.87073    1.000000    
    301 O2    s    0.580143 *  0.156809 *  0.251741 *  -2.87073    1.000000    
    302 O2    s    0.846053 *  0.421779 *  0.584751 *  -2.87073    1.000000    
    303 O2    s    0.573879 *  0.418393 *  0.916228 *  -2.87073    1.000000    
    304 O2    s    0.424339 *  0.848846 *  0.752713 *  -2.87073    1.000000    
    305 O2    s    0.153519 *  0.576182 *  0.084097 *  -2.87073    1.000000    
    306 O2    s    0.423447 *  0.580135 *  0.419056 *  -2.87073    1.000000    
    307 F     s    0.451163 *  0.904492 *  0.251117 *  -1.56000    1.000000    
    308 F     s    0.095768 *  0.547904 *  0.584410 *  -1.56000    1.000000    
    309 F     s    0.415597 *  0.509541 *  0.903594 *  -1.56000    1.000000    
    310 F     s    0.553446 *  0.097119 *  0.751950 *  -1.56000    1.000000    
    311 F     s    0.903224 *  0.452512 *  0.083742 *  -1.56000    1.000000    
    312 F     s    0.548308 *  0.452638 *  0.417915 *  -1.56000    1.000000    
--------------------------------------------------------------------------------



********************************************************************************
*  General input information                                                   *
********************************************************************************

  Species output for all configurations : 

--------------------------------------------------------------------------------
  Species    Type    Atomic    Atomic    Charge       Radii (Angs)     Library
                     Number     Mass       (e)     Cova   Ionic  VDW   Symbol
--------------------------------------------------------------------------------
    Si       Core       14      28.09   4.000000   1.200  0.000  2.100          
    O1       Core        8      16.00   1.733957   0.730  0.000  1.360          
    O1       Shell       8       0.00  -3.733957   0.730  0.000  1.360          
    O2       Core        8      16.00   0.870733   0.730  0.000  1.360          
    O2       Shell       8       0.00  -2.870733   0.730  0.000  1.360          
    O3       Core        8      16.00   1.330431   0.730  0.000  1.360          
    O3       Shell       8       0.00  -3.330431   0.730  0.000  1.360          
    F        Core        9      19.00   0.560000   0.710  0.000  1.300          
    F        Shell       9       0.00  -1.560000   0.710  0.000  1.300          
    Ge       Core       32      72.61   4.000000   1.170  0.000  1.750          
--------------------------------------------------------------------------------


  Lattice summation method               =    Ewald          (3-D)
                                         =    Parry          (2-D)
                                         =    Saunders et al (1-D)
  Accuracy factor for lattice sums       =   12.000


  Time limit = Infinity

  Maximum range for interatomic potentials =        16.000000 Angstroms

  Taper potentials to zero over   1.0000 Angstroms using polynomial

  General interatomic potentials :

--------------------------------------------------------------------------------
Atom  Types   Potential         A         B         C         D     Cutoffs(Ang)
  1     2                                                            Min    Max 
--------------------------------------------------------------------------------
Si   c O1   s Buckingham    0.132E+04 0.318      10.1      0.00     0.000 16.000
Si   c O2   s Buckingham    0.132E+04 0.318      10.1      0.00     0.000 16.000
Si   c O3   s Buckingham    0.132E+04 0.318      10.1      0.00     0.000 16.000
Ge   c O1   s Buckingham    0.150E+04 0.326      16.8      0.00     0.000 16.000
Ge   c O2   s Buckingham    0.150E+04 0.326      16.8      0.00     0.000 16.000
Ge   c O3   s Buckingham    0.150E+04 0.326      16.8      0.00     0.000 16.000
O1   s O1   s Buckingham    0.228E+05 0.149      10.9      0.00     0.000 16.000
O1   s O2   s Buckingham    0.228E+05 0.149      10.9      0.00     0.000 16.000
O1   s O3   s Buckingham    0.228E+05 0.149      10.9      0.00     0.000 16.000
O2   s O2   s Buckingham    0.228E+05 0.149      10.9      0.00     0.000 16.000
O2   s O3   s Buckingham    0.228E+05 0.149      10.9      0.00     0.000 16.000
O3   s O3   s Buckingham    0.228E+05 0.149      10.9      0.00     0.000 16.000
Si   c F    s Buckingham     977.     0.282      0.00      0.00     0.000 16.000
Ge   c F    s Buckingham     681.     0.320      0.00      0.00     0.000 16.000
F    s F    s Buckingham     540.     0.262      0.00      0.00     0.000 16.000
O1   s F    s Buckingham    0.168E+04 0.268      0.00      0.00     0.000 16.000
O2   s F    s Buckingham    0.168E+04 0.268      0.00      0.00     0.000 16.000
O3   s F    s Buckingham    0.168E+04 0.268      0.00      0.00     0.000 16.000
O2   c O2   s Spring (c-s)   76.0      0.00      0.00      0.00     0.000  0.800
O3   c O3   s Spring (c-s)   128.      0.00      0.00      0.00     0.000  0.800
O1   c O1   s Spring (c-s)   180.      0.00      0.00      0.00     0.000  0.800
F    c F    s Spring (c-s)   33.5      0.00      0.00      0.00     0.000  0.800
--------------------------------------------------------------------------------

  General Three-body potentials :

  Harmonic form:

--------------------------------------------------------------------------------
Atom    Atom    Atom           Force Constants            Theta     Cutoffs  
  1       2       3     (eVrad**-2/eVrad**-3/eVrad**-4)   (deg)  1-2  1-3  2-3
--------------------------------------------------------------------------------
Si    c O1    s O1    s  1.261        0.0000    0.0000   109.470 0.00 0.00 0.00
                                                                 1.90 1.90 3.50
Si    c O1    s O2    s  1.261        0.0000    0.0000   109.470 0.00 0.00 0.00
                                                                 1.90 1.90 3.50
Si    c O2    s O2    s  1.261        0.0000    0.0000   109.470 0.00 0.00 0.00
                                                                 1.90 1.90 3.50
--------------------------------------------------------------------------------

********************************************************************************
*  Output for configuration   1                                                *
********************************************************************************


  Components of energy : 

--------------------------------------------------------------------------------
  Interatomic potentials     =        2060.88334345 eV
  Three-body potentials      =           0.46890171 eV
  Monopole - monopole (real) =       -6611.70737749 eV
  Monopole - monopole (recip)=       -3168.96564571 eV
  Monopole - monopole (total)=       -9780.67302320 eV
  Neutralising energy        =          -6.45518155 eV
--------------------------------------------------------------------------------
  Total lattice energy       =       -7725.77595959 eV
--------------------------------------------------------------------------------
  Total lattice energy       =         -745419.2808 kJ/(mole unit cells)
--------------------------------------------------------------------------------


  Number of variables =      939

  Maximum number of calculations  =          1000
  Maximum Hessian update interval =            10
  Maximum step size               =   1.000000000
  Maximum parameter tolerance     =   0.000010000
  Maximum function  tolerance     =   0.000010000
  Maximum gradient  tolerance     =   0.001000000
  Maximum gradient  component     =   0.010000000

  Symmetry not applied to optimisation

  Cell parameters to be optimised using strains

  Newton-Raphson optimiser to be used

  BFGS hessian update to be used

  Dumpfile to be written after every cycle

  Start of bulk optimisation :

  Cycle:      0 Energy:     -7725.775960  Gnorm:      0.000581  CPU:    1.088
  ** Hessian calculated **
  Cycle:      1 Energy:     -7725.775984  Gnorm:      0.001732  CPU:    3.011
  Cycle:      2 Energy:     -7725.776062  Gnorm:      0.002551  CPU:    5.390
  Cycle:      3 Energy:     -7725.776178  Gnorm:      0.002797  CPU:    7.439
  Cycle:      4 Energy:     -7725.776341  Gnorm:      0.002875  CPU:    9.487
  Cycle:      5 Energy:     -7725.776570  Gnorm:      0.002995  CPU:   11.534
  Cycle:      6 Energy:     -7725.776866  Gnorm:      0.002888  CPU:   13.583
  Cycle:      7 Energy:     -7725.777211  Gnorm:      0.002922  CPU:   15.630
  Cycle:      8 Energy:     -7725.777507  Gnorm:      0.003468  CPU:   17.347
  Cycle:      9 Energy:     -7725.777781  Gnorm:      0.004096  CPU:   19.064
  Cycle:     10 Energy:     -7725.778106  Gnorm:      0.005536  CPU:   20.449
  ** Hessian calculated **
  Cycle:     11 Energy:     -7725.778271  Gnorm:      0.002851  CPU:   22.686
  Cycle:     12 Energy:     -7725.778467  Gnorm:      0.005345  CPU:   24.204
  Cycle:     13 Energy:     -7725.778868  Gnorm:      0.004638  CPU:   25.920
  Cycle:     14 Energy:     -7725.779017  Gnorm:      0.002238  CPU:   27.306
  Cycle:     15 Energy:     -7725.779098  Gnorm:      0.002479  CPU:   28.691
  Cycle:     16 Energy:     -7725.779162  Gnorm:      0.002018  CPU:   30.076
  Cycle:     17 Energy:     -7725.779238  Gnorm:      0.002686  CPU:   31.461
  Cycle:     18 Energy:     -7725.779346  Gnorm:      0.003035  CPU:   32.846
  Cycle:     19 Energy:     -7725.779420  Gnorm:      0.001830  CPU:   34.231
  Cycle:     20 Energy:     -7725.779458  Gnorm:      0.001770  CPU:   35.617
  ** Hessian calculated **
  Cycle:     21 Energy:     -7725.779478  Gnorm:      0.001186  CPU:   37.854
  Cycle:     22 Energy:     -7725.779509  Gnorm:      0.001894  CPU:   39.239
  Cycle:     23 Energy:     -7725.779542  Gnorm:      0.001546  CPU:   40.715
  Cycle:     24 Energy:     -7725.779568  Gnorm:      0.001200  CPU:   42.100
  Cycle:     25 Energy:     -7725.779589  Gnorm:      0.001364  CPU:   43.485
  Cycle:     26 Energy:     -7725.779615  Gnorm:      0.001386  CPU:   44.871
  Cycle:     27 Energy:     -7725.779651  Gnorm:      0.001902  CPU:   46.397
  Cycle:     28 Energy:     -7725.779700  Gnorm:      0.002008  CPU:   47.782
  Cycle:     29 Energy:     -7725.779734  Gnorm:      0.001428  CPU:   49.167
  Cycle:     30 Energy:     -7725.779762  Gnorm:      0.001762  CPU:   50.552
  ** Hessian calculated **
  Cycle:     31 Energy:     -7725.779781  Gnorm:      0.001074  CPU:   52.935
  Cycle:     32 Energy:     -7725.779803  Gnorm:      0.001621  CPU:   54.320
  Cycle:     33 Energy:     -7725.779832  Gnorm:      0.001476  CPU:   55.705
  Cycle:     34 Energy:     -7725.779856  Gnorm:      0.001173  CPU:   57.260
  Cycle:     35 Energy:     -7725.779873  Gnorm:      0.001101  CPU:   58.645
  Cycle:     36 Energy:     -7725.779888  Gnorm:      0.000996  CPU:   60.030
  Cycle:     37 Energy:     -7725.779903  Gnorm:      0.001122  CPU:   61.415
  Cycle:     38 Energy:     -7725.779922  Gnorm:      0.001402  CPU:   62.801
  Cycle:     39 Energy:     -7725.779940  Gnorm:      0.001007  CPU:   64.186
  Cycle:     40 Energy:     -7725.779954  Gnorm:      0.001354  CPU:   65.571
  ** Hessian calculated **
  Cycle:     41 Energy:     -7725.779966  Gnorm:      0.000836  CPU:   67.808
  Cycle:     42 Energy:     -7725.779981  Gnorm:      0.001275  CPU:   69.193
  Cycle:     43 Energy:     -7725.779997  Gnorm:      0.001062  CPU:   70.578
  Cycle:     44 Energy:     -7725.780011  Gnorm:      0.001007  CPU:   71.963
  Cycle:     45 Energy:     -7725.780024  Gnorm:      0.001061  CPU:   73.349
  Cycle:     46 Energy:     -7725.780040  Gnorm:      0.001100  CPU:   74.734
  Cycle:     47 Energy:     -7725.780059  Gnorm:      0.001349  CPU:   76.119
  Cycle:     48 Energy:     -7725.780083  Gnorm:      0.001452  CPU:   77.504
  Cycle:     49 Energy:     -7725.780103  Gnorm:      0.001108  CPU:   78.890
  Cycle:     50 Energy:     -7725.780121  Gnorm:      0.001601  CPU:   80.407
  ** Hessian calculated **
  Cycle:     51 Energy:     -7725.780137  Gnorm:      0.000974  CPU:   82.659
  Cycle:     52 Energy:     -7725.780154  Gnorm:      0.001394  CPU:   84.044
  Cycle:     53 Energy:     -7725.780175  Gnorm:      0.001275  CPU:   85.429
  Cycle:     54 Energy:     -7725.780194  Gnorm:      0.001090  CPU:   86.814
  Cycle:     55 Energy:     -7725.780209  Gnorm:      0.001041  CPU:   88.199
  Cycle:     56 Energy:     -7725.780222  Gnorm:      0.000958  CPU:   89.585
  Cycle:     57 Energy:     -7725.780235  Gnorm:      0.001012  CPU:   91.056
  Cycle:     58 Energy:     -7725.780249  Gnorm:      0.001194  CPU:   92.442
  Cycle:     59 Energy:     -7725.780262  Gnorm:      0.000885  CPU:   93.827
  Cycle:     60 Energy:     -7725.780274  Gnorm:      0.001287  CPU:   95.213
  ** Hessian calculated **
  Cycle:     61 Energy:     -7725.780284  Gnorm:      0.000788  CPU:   97.451
  Cycle:     62 Energy:     -7725.780296  Gnorm:      0.001146  CPU:   98.837
  Cycle:     63 Energy:     -7725.780309  Gnorm:      0.000961  CPU:  100.222
  Cycle:     64 Energy:     -7725.780321  Gnorm:      0.000981  CPU:  101.753
  Cycle:     65 Energy:     -7725.780334  Gnorm:      0.001022  CPU:  103.138
  Cycle:     66 Energy:     -7725.780348  Gnorm:      0.001043  CPU:  104.523
  Cycle:     67 Energy:     -7725.780364  Gnorm:      0.001221  CPU:  105.908
  Cycle:     68 Energy:     -7725.780384  Gnorm:      0.001309  CPU:  107.293
  Cycle:     69 Energy:     -7725.780400  Gnorm:      0.001028  CPU:  108.678
  Cycle:     70 Energy:     -7725.780416  Gnorm:      0.001542  CPU:  110.063
  ** Hessian calculated **
  Cycle:     71 Energy:     -7725.780430  Gnorm:      0.000933  CPU:  112.300
  Cycle:     72 Energy:     -7725.780445  Gnorm:      0.001277  CPU:  113.686
  Cycle:     73 Energy:     -7725.780463  Gnorm:      0.001170  CPU:  115.071
  Cycle:     74 Energy:     -7725.780479  Gnorm:      0.001041  CPU:  116.456
  Cycle:     75 Energy:     -7725.780493  Gnorm:      0.001010  CPU:  117.841
  Cycle:     76 Energy:     -7725.780505  Gnorm:      0.000937  CPU:  119.368
  Cycle:     77 Energy:     -7725.780516  Gnorm:      0.000935  CPU:  120.753
  Cycle:     78 Energy:     -7725.780528  Gnorm:      0.001085  CPU:  122.139
  Cycle:     79 Energy:     -7725.780540  Gnorm:      0.000831  CPU:  123.524
  Cycle:     80 Energy:     -7725.780550  Gnorm:      0.001247  CPU:  124.909
  ** Hessian calculated **
  Cycle:     81 Energy:     -7725.780559  Gnorm:      0.000759  CPU:  127.148
  Cycle:     82 Energy:     -7725.780570  Gnorm:      0.001061  CPU:  128.533
  Cycle:     83 Energy:     -7725.780581  Gnorm:      0.000896  CPU:  130.084
  Cycle:     84 Energy:     -7725.780592  Gnorm:      0.000959  CPU:  131.469
  Cycle:     85 Energy:     -7725.780604  Gnorm:      0.000991  CPU:  132.854
  Cycle:     86 Energy:     -7725.780617  Gnorm:      0.001004  CPU:  134.239
  Cycle:     87 Energy:     -7725.780632  Gnorm:      0.001137  CPU:  135.625
  Cycle:     88 Energy:     -7725.780648  Gnorm:      0.001212  CPU:  137.010
  Cycle:     89 Energy:     -7725.780663  Gnorm:      0.000973  CPU:  138.395
  Cycle:     90 Energy:     -7725.780677  Gnorm:      0.001495  CPU:  139.780
  ** Hessian calculated **
  Cycle:     91 Energy:     -7725.780690  Gnorm:      0.000900  CPU:  142.116
  Cycle:     92 Energy:     -7725.780703  Gnorm:      0.001193  CPU:  143.501
  Cycle:     93 Energy:     -7725.780719  Gnorm:      0.001089  CPU:  144.887
  Cycle:     94 Energy:     -7725.780734  Gnorm:      0.001000  CPU:  146.415
  Cycle:     95 Energy:     -7725.780747  Gnorm:      0.000976  CPU:  147.800
  Cycle:     96 Energy:     -7725.780758  Gnorm:      0.000916  CPU:  149.185
  Cycle:     97 Energy:     -7725.780768  Gnorm:      0.000878  CPU:  150.570
  Cycle:     98 Energy:     -7725.780778  Gnorm:      0.001007  CPU:  151.956
  Cycle:     99 Energy:     -7725.780788  Gnorm:      0.000793  CPU:  153.341
  Cycle:    100 Energy:     -7725.780798  Gnorm:      0.001206  CPU:  154.727
  ** Hessian calculated **
  Cycle:    101 Energy:     -7725.780806  Gnorm:      0.000733  CPU:  156.964
  Cycle:    102 Energy:     -7725.780816  Gnorm:      0.000996  CPU:  158.350
  Cycle:    103 Energy:     -7725.780826  Gnorm:      0.000844  CPU:  159.735
  Cycle:    104 Energy:     -7725.780836  Gnorm:      0.000933  CPU:  161.120
  Cycle:    105 Energy:     -7725.780847  Gnorm:      0.000955  CPU:  162.506
  Cycle:    106 Energy:     -7725.780859  Gnorm:      0.000970  CPU:  164.037
  Cycle:    107 Energy:     -7725.780872  Gnorm:      0.001070  CPU:  165.422
  Cycle:    108 Energy:     -7725.780887  Gnorm:      0.001138  CPU:  166.807
  Cycle:    109 Energy:     -7725.780900  Gnorm:      0.000928  CPU:  168.192
  Cycle:    110 Energy:     -7725.780913  Gnorm:      0.001445  CPU:  169.577
  ** Hessian calculated **
  Cycle:    111 Energy:     -7725.780925  Gnorm:      0.000871  CPU:  171.815
  Cycle:    112 Energy:     -7725.780937  Gnorm:      0.001127  CPU:  173.200
  Cycle:    113 Energy:     -7725.780951  Gnorm:      0.001023  CPU:  174.664
  Cycle:    114 Energy:     -7725.780965  Gnorm:      0.000964  CPU:  176.049
  Cycle:    115 Energy:     -7725.780977  Gnorm:      0.000938  CPU:  177.434
  Cycle:    116 Energy:     -7725.780987  Gnorm:      0.000893  CPU:  178.820
  Cycle:    117 Energy:     -7725.780996  Gnorm:      0.000832  CPU:  180.376
  Cycle:    118 Energy:     -7725.781006  Gnorm:      0.000947  CPU:  181.761
  Cycle:    119 Energy:     -7725.781015  Gnorm:      0.000762  CPU:  183.146
  Cycle:    120 Energy:     -7725.781023  Gnorm:      0.001162  CPU:  184.531
  ** Hessian calculated **
  Cycle:    121 Energy:     -7725.781031  Gnorm:      0.000710  CPU:  186.768
  Cycle:    122 Energy:     -7725.781040  Gnorm:      0.000944  CPU:  188.153
  Cycle:    123 Energy:     -7725.781049  Gnorm:      0.000799  CPU:  189.538
  Cycle:    124 Energy:     -7725.781058  Gnorm:      0.000907  CPU:  191.004
  Cycle:    125 Energy:     -7725.781068  Gnorm:      0.000915  CPU:  192.389
  Cycle:    126 Energy:     -7725.781080  Gnorm:      0.000939  CPU:  193.774
  Cycle:    127 Energy:     -7725.781092  Gnorm:      0.001012  CPU:  195.159
  Cycle:    128 Energy:     -7725.781105  Gnorm:      0.001078  CPU:  196.544
  Cycle:    129 Energy:     -7725.781117  Gnorm:      0.000892  CPU:  197.929
  Cycle:    130 Energy:     -7725.781129  Gnorm:      0.001391  CPU:  199.315
  ** Hessian calculated **
  Cycle:    131 Energy:     -7725.781140  Gnorm:      0.000844  CPU:  201.552
  Cycle:    132 Energy:     -7725.781152  Gnorm:      0.001072  CPU:  202.937
  Cycle:    133 Energy:     -7725.781164  Gnorm:      0.000966  CPU:  204.322
  Cycle:    134 Energy:     -7725.781177  Gnorm:      0.000932  CPU:  205.707
  Cycle:    135 Energy:     -7725.781188  Gnorm:      0.000897  CPU:  207.093
  Cycle:    136 Energy:     -7725.781198  Gnorm:      0.000869  CPU:  208.478
  Cycle:    137 Energy:     -7725.781206  Gnorm:      0.000793  CPU:  209.863
  Cycle:    138 Energy:     -7725.781215  Gnorm:      0.000900  CPU:  211.248
  Cycle:    139 Energy:     -7725.781223  Gnorm:      0.000735  CPU:  212.633
  Cycle:    140 Energy:     -7725.781231  Gnorm:      0.001119  CPU:  214.166
  ** Hessian calculated **
  Cycle:    141 Energy:     -7725.781238  Gnorm:      0.000688  CPU:  216.403
  Cycle:    142 Energy:     -7725.781247  Gnorm:      0.000901  CPU:  217.788
  Cycle:    143 Energy:     -7725.781255  Gnorm:      0.000760  CPU:  219.432
  Cycle:    144 Energy:     -7725.781263  Gnorm:      0.000882  CPU:  220.817
  Cycle:    145 Energy:     -7725.781273  Gnorm:      0.000874  CPU:  222.202
  Cycle:    146 Energy:     -7725.781283  Gnorm:      0.000911  CPU:  223.588
  Cycle:    147 Energy:     -7725.781295  Gnorm:      0.000962  CPU:  224.973
  Cycle:    148 Energy:     -7725.781307  Gnorm:      0.001027  CPU:  226.358
  Cycle:    149 Energy:     -7725.781318  Gnorm:      0.000860  CPU:  227.743
  Cycle:    150 Energy:     -7725.781329  Gnorm:      0.001339  CPU:  229.128
  ** Hessian calculated **
  Cycle:    151 Energy:     -7725.781339  Gnorm:      0.000819  CPU:  231.365
  Cycle:    152 Energy:     -7725.781350  Gnorm:      0.001023  CPU:  232.750
  Cycle:    153 Energy:     -7725.781361  Gnorm:      0.000917  CPU:  234.135
  Cycle:    154 Energy:     -7725.781373  Gnorm:      0.000903  CPU:  235.672
  Cycle:    155 Energy:     -7725.781383  Gnorm:      0.000856  CPU:  237.057
  Cycle:    156 Energy:     -7725.781392  Gnorm:      0.000846  CPU:  238.442
  Cycle:    157 Energy:     -7725.781400  Gnorm:      0.000756  CPU:  239.827
  Cycle:    158 Energy:     -7725.781408  Gnorm:      0.000859  CPU:  241.377
  Cycle:    159 Energy:     -7725.781416  Gnorm:      0.000711  CPU:  242.768
  Cycle:    160 Energy:     -7725.781423  Gnorm:      0.001076  CPU:  244.153
  ** Hessian calculated **
  Cycle:    161 Energy:     -7725.781430  Gnorm:      0.000667  CPU:  246.390
  Cycle:    162 Energy:     -7725.781438  Gnorm:      0.000861  CPU:  247.775
  Cycle:    163 Energy:     -7725.781445  Gnorm:      0.000724  CPU:  249.160
  Cycle:    164 Energy:     -7725.781453  Gnorm:      0.000857  CPU:  250.546
  Cycle:    165 Energy:     -7725.781462  Gnorm:      0.000834  CPU:  251.931
  Cycle:    166 Energy:     -7725.781472  Gnorm:      0.000884  CPU:  253.440
  Cycle:    167 Energy:     -7725.781483  Gnorm:      0.000916  CPU:  254.825
  Cycle:    168 Energy:     -7725.781494  Gnorm:      0.000982  CPU:  256.210
  Cycle:    169 Energy:     -7725.781504  Gnorm:      0.000831  CPU:  257.595
  Cycle:    170 Energy:     -7725.781514  Gnorm:      0.001288  CPU:  259.135
  ** Hessian calculated **
  Cycle:    171 Energy:     -7725.781524  Gnorm:      0.000795  CPU:  261.387
  Cycle:    172 Energy:     -7725.781534  Gnorm:      0.000979  CPU:  262.772
  Cycle:    173 Energy:     -7725.781545  Gnorm:      0.000873  CPU:  264.272
  Cycle:    174 Energy:     -7725.781555  Gnorm:      0.000877  CPU:  265.657
  Cycle:    175 Energy:     -7725.781565  Gnorm:      0.000818  CPU:  267.042
  Cycle:    176 Energy:     -7725.781574  Gnorm:      0.000826  CPU:  268.428
  Cycle:    177 Energy:     -7725.781581  Gnorm:      0.000722  CPU:  269.813
  Cycle:    178 Energy:     -7725.781588  Gnorm:      0.000824  CPU:  271.198
  Cycle:    179 Energy:     -7725.781596  Gnorm:      0.000688  CPU:  272.583
  Cycle:    180 Energy:     -7725.781603  Gnorm:      0.001037  CPU:  273.968
  ** Hessian calculated **
  Cycle:    181 Energy:     -7725.781609  Gnorm:      0.000648  CPU:  276.205
  Cycle:    182 Energy:     -7725.781616  Gnorm:      0.000823  CPU:  277.590
  Cycle:    183 Energy:     -7725.781623  Gnorm:      0.000693  CPU:  278.975
  Cycle:    184 Energy:     -7725.781630  Gnorm:      0.000835  CPU:  280.517
  Cycle:    185 Energy:     -7725.781639  Gnorm:      0.000797  CPU:  281.902
  Cycle:    186 Energy:     -7725.781648  Gnorm:      0.000862  CPU:  283.287
  Cycle:    187 Energy:     -7725.781658  Gnorm:      0.000872  CPU:  284.672
  Cycle:    188 Energy:     -7725.781669  Gnorm:      0.000944  CPU:  286.172
  Cycle:    189 Energy:     -7725.781678  Gnorm:      0.000805  CPU:  287.557
  Cycle:    190 Energy:     -7725.781688  Gnorm:      0.001241  CPU:  288.942
  ** Hessian calculated **
  Cycle:    191 Energy:     -7725.781697  Gnorm:      0.000774  CPU:  291.179
  Cycle:    192 Energy:     -7725.781706  Gnorm:      0.000941  CPU:  292.564
  Cycle:    193 Energy:     -7725.781716  Gnorm:      0.000834  CPU:  293.949
  Cycle:    194 Energy:     -7725.781726  Gnorm:      0.000854  CPU:  295.334
  Cycle:    195 Energy:     -7725.781735  Gnorm:      0.000784  CPU:  296.719
  Cycle:    196 Energy:     -7725.781743  Gnorm:      0.000806  CPU:  298.256
  Cycle:    197 Energy:     -7725.781750  Gnorm:      0.000692  CPU:  299.641
  Cycle:    198 Energy:     -7725.781757  Gnorm:      0.000794  CPU:  301.026
  Cycle:    199 Energy:     -7725.781764  Gnorm:      0.000667  CPU:  302.412
  Cycle:    200 Energy:     -7725.781770  Gnorm:      0.001001  CPU:  303.797
  ** Hessian calculated **
  Cycle:    201 Energy:     -7725.781776  Gnorm:      0.000631  CPU:  306.034
  Cycle:    202 Energy:     -7725.781783  Gnorm:      0.000792  CPU:  307.419
  Cycle:    203 Energy:     -7725.781790  Gnorm:      0.000666  CPU:  308.948
  Cycle:    204 Energy:     -7725.781796  Gnorm:      0.000813  CPU:  310.333
  Cycle:    205 Energy:     -7725.781804  Gnorm:      0.000764  CPU:  311.718
  Cycle:    206 Energy:     -7725.781813  Gnorm:      0.000841  CPU:  313.103
  Cycle:    207 Energy:     -7725.781822  Gnorm:      0.000834  CPU:  314.488
  Cycle:    208 Energy:     -7725.781832  Gnorm:      0.000910  CPU:  315.873
  Cycle:    209 Energy:     -7725.781841  Gnorm:      0.000780  CPU:  317.258
  Cycle:    210 Energy:     -7725.781850  Gnorm:      0.001199  CPU:  318.644
  ** Hessian calculated **
  Cycle:    211 Energy:     -7725.781859  Gnorm:      0.000754  CPU:  321.061
  Cycle:    212 Energy:     -7725.781867  Gnorm:      0.000906  CPU:  322.446
  Cycle:    213 Energy:     -7725.781877  Gnorm:      0.000800  CPU:  323.831
  Cycle:    214 Energy:     -7725.781886  Gnorm:      0.000832  CPU:  325.375
  Cycle:    215 Energy:     -7725.781895  Gnorm:      0.000753  CPU:  326.760
  Cycle:    216 Energy:     -7725.781902  Gnorm:      0.000787  CPU:  328.146
  Cycle:    217 Energy:     -7725.781909  Gnorm:      0.000665  CPU:  329.531
  Cycle:    218 Energy:     -7725.781915  Gnorm:      0.000767  CPU:  330.916
  Cycle:    219 Energy:     -7725.781922  Gnorm:      0.000647  CPU:  332.301
  Cycle:    220 Energy:     -7725.781928  Gnorm:      0.000968  CPU:  333.686
  ** Hessian calculated **
  Cycle:    221 Energy:     -7725.781934  Gnorm:      0.000615  CPU:  335.923
  Cycle:    222 Energy:     -7725.781940  Gnorm:      0.000762  CPU:  337.308
  Cycle:    223 Energy:     -7725.781946  Gnorm:      0.000640  CPU:  338.693
  Cycle:    224 Energy:     -7725.781952  Gnorm:      0.000791  CPU:  340.079
  Cycle:    225 Energy:     -7725.781960  Gnorm:      0.000734  CPU:  341.464
  Cycle:    226 Energy:     -7725.781968  Gnorm:      0.000821  CPU:  343.063
  Cycle:    227 Energy:     -7725.781977  Gnorm:      0.000799  CPU:  344.448
  Cycle:    228 Energy:     -7725.781986  Gnorm:      0.000880  CPU:  345.833
  Cycle:    229 Energy:     -7725.781995  Gnorm:      0.000756  CPU:  347.218
  Cycle:    230 Energy:     -7725.782003  Gnorm:      0.001161  CPU:  348.603
  ** Hessian calculated **
  Cycle:    231 Energy:     -7725.782011  Gnorm:      0.000735  CPU:  350.840
  Cycle:    232 Energy:     -7725.782020  Gnorm:      0.000875  CPU:  352.225
  Cycle:    233 Energy:     -7725.782028  Gnorm:      0.000770  CPU:  353.837
  Cycle:    234 Energy:     -7725.782037  Gnorm:      0.000811  CPU:  355.222
  Cycle:    235 Energy:     -7725.782045  Gnorm:      0.000726  CPU:  356.608
  Cycle:    236 Energy:     -7725.782053  Gnorm:      0.000768  CPU:  357.993
  Cycle:    237 Energy:     -7725.782059  Gnorm:      0.000640  CPU:  359.378
  Cycle:    238 Energy:     -7725.782065  Gnorm:      0.000744  CPU:  360.763
  Cycle:    239 Energy:     -7725.782071  Gnorm:      0.000628  CPU:  362.148
  Cycle:    240 Energy:     -7725.782076  Gnorm:      0.000938  CPU:  363.533
  ** Hessian calculated **
  Cycle:    241 Energy:     -7725.782082  Gnorm:      0.000601  CPU:  365.984
  Cycle:    242 Energy:     -7725.782088  Gnorm:      0.000739  CPU:  367.369
  Cycle:    243 Energy:     -7725.782094  Gnorm:      0.000620  CPU:  368.754
  Cycle:    244 Energy:     -7725.782100  Gnorm:      0.000772  CPU:  370.337
  Cycle:    245 Energy:     -7725.782107  Gnorm:      0.000710  CPU:  371.723
  Cycle:    246 Energy:     -7725.782115  Gnorm:      0.000802  CPU:  373.108
  Cycle:    247 Energy:     -7725.782123  Gnorm:      0.000770  CPU:  374.493
  Cycle:    248 Energy:     -7725.782132  Gnorm:      0.000854  CPU:  375.878
  Cycle:    249 Energy:     -7725.782140  Gnorm:      0.000735  CPU:  377.263
  Cycle:    250 Energy:     -7725.782148  Gnorm:      0.001127  CPU:  378.648
  ** Hessian calculated **
  Cycle:    251 Energy:     -7725.782155  Gnorm:      0.000718  CPU:  380.885
  Cycle:    252 Energy:     -7725.782163  Gnorm:      0.000846  CPU:  382.270
  Cycle:    253 Energy:     -7725.782171  Gnorm:      0.000745  CPU:  383.655
  Cycle:    254 Energy:     -7725.782180  Gnorm:      0.000793  CPU:  385.040
  Cycle:    255 Energy:     -7725.782188  Gnorm:      0.000703  CPU:  386.425
  Cycle:    256 Energy:     -7725.782194  Gnorm:      0.000752  CPU:  388.018
  Cycle:    257 Energy:     -7725.782200  Gnorm:      0.000619  CPU:  389.403
  Cycle:    258 Energy:     -7725.782206  Gnorm:      0.000723  CPU:  390.788
  Cycle:    259 Energy:     -7725.782212  Gnorm:      0.000610  CPU:  392.173
  Cycle:    260 Energy:     -7725.782217  Gnorm:      0.000912  CPU:  393.559
  ** Hessian calculated **
  Cycle:    261 Energy:     -7725.782222  Gnorm:      0.000587  CPU:  395.795
  Cycle:    262 Energy:     -7725.782228  Gnorm:      0.000716  CPU:  397.180
  Cycle:    263 Energy:     -7725.782233  Gnorm:      0.000601  CPU:  398.793
  Cycle:    264 Energy:     -7725.782239  Gnorm:      0.000753  CPU:  400.178
  Cycle:    265 Energy:     -7725.782246  Gnorm:      0.000689  CPU:  401.563
  Cycle:    266 Energy:     -7725.782253  Gnorm:      0.000785  CPU:  402.948
  Cycle:    267 Energy:     -7725.782261  Gnorm:      0.000743  CPU:  404.409
  Cycle:    268 Energy:     -7725.782269  Gnorm:      0.000829  CPU:  405.795
  Cycle:    269 Energy:     -7725.782277  Gnorm:      0.000715  CPU:  407.180
  Cycle:    270 Energy:     -7725.782284  Gnorm:      0.001097  CPU:  408.565
  ** Hessian calculated **
  Cycle:    271 Energy:     -7725.782355  Gnorm:      0.001098  CPU:  412.129
  Cycle:    272 Energy:     -7725.782471  Gnorm:      0.001098  CPU:  414.509
  Cycle:    273 Energy:     -7725.782667  Gnorm:      0.001095  CPU:  416.889
  Cycle:    274 Energy:     -7725.782962  Gnorm:      0.001087  CPU:  418.937
  Cycle:    275 Energy:     -7725.783580  Gnorm:      0.001050  CPU:  421.317
  Cycle:    276 Energy:     -7725.784431  Gnorm:      0.000918  CPU:  423.365
  Cycle:    277 Energy:     -7725.785408  Gnorm:      0.000852  CPU:  425.413
  Cycle:    278 Energy:     -7725.786125  Gnorm:      0.000752  CPU:  427.461
  Cycle:    279 Energy:     -7725.786632  Gnorm:      0.000787  CPU:  429.177
  Cycle:    280 Energy:     -7725.786706  Gnorm:      0.000096  CPU:  430.563
  ** Hessian calculated **


  **** Optimisation achieved ****


  Final energy =   -7725.78670974 eV
  Final Gnorm  =       0.00000489

  Components of energy : 

--------------------------------------------------------------------------------
  Interatomic potentials     =        2061.13964312 eV
  Three-body potentials      =           0.47775098 eV
  Monopole - monopole (real) =       -6611.13192851 eV
  Monopole - monopole (recip)=       -3169.81526211 eV
  Monopole - monopole (total)=       -9780.94719063 eV
  Neutralising energy        =          -6.45691322 eV
--------------------------------------------------------------------------------
  Total lattice energy       =       -7725.78670974 eV
--------------------------------------------------------------------------------
  Total lattice energy       =         -745420.3180 kJ/(mole unit cells)
--------------------------------------------------------------------------------

  Final fractional coordinates of atoms :

--------------------------------------------------------------------------------
   No.  Atomic        x           y          z          Radius
        Label       (Frac)      (Frac)     (Frac)       (Angs) 
--------------------------------------------------------------------------------
     1  Si    c     0.699600    0.375700    0.033890    0.000000
     2  Si    c     0.625007    0.327507    0.368553    0.000000
     3  Si    c     0.685101    0.298410    0.701840    0.000000
     4  Si    c     0.299763    0.620395    0.537349    0.000000
     5  Si    c     0.373505    0.681700    0.866950    0.000000
     6  Si    c     0.321473    0.698038    0.202138    0.000000
     7  Si    c     0.378023    0.701661    0.303015    0.000000
     8  Si    c     0.316193    0.615191    0.969135    0.000000
     9  Si    c     0.299208    0.676389    0.638206    0.000000
    10  Si    c     0.637020    0.303486    0.802608    0.000000
    11  Si    c     0.677967    0.378123    0.470025    0.000000
    12  Si    c     0.696625    0.317627    0.134309    0.000000
    13  Si    c     0.525483    0.408738    0.967307    0.000000
    14  Si    c     0.582962    0.115829    0.302866    0.000000
    15  Si    c     0.892262    0.470971    0.636757    0.000000
    16  Si    c     0.471406    0.582615    0.471871    0.000000
    17  Si    c     0.425317    0.900533    0.805085    0.000000
    18  Si    c     0.109738    0.526062    0.136726    0.000000
    19  Si    c     0.420474    0.536174    0.369591    0.000000
    20  Si    c     0.108433    0.578271    0.034990    0.000000
    21  Si    c     0.472929    0.888781    0.703616    0.000000
    22  Si    c     0.588041    0.468411    0.864400    0.000000
    23  Si    c     0.889610    0.415779    0.534915    0.000000
    24  Si    c     0.530173    0.111484    0.200841    0.000000
    25  Ge    c     0.315167    0.412165    0.859253    0.000000
    26  Si    c     0.598376    0.900929    0.187092    0.000000
    27  Si    c     0.098869    0.695715    0.521786    0.000000
    28  Si    c     0.699501    0.604638    0.355767    0.000000
    29  Si    c     0.404907    0.099670    0.689347    0.000000
    30  Si    c     0.899960    0.298188    0.019001    0.000000
    31  Si    c     0.398907    0.300496    0.484036    0.000000
    32  Si    c     0.899129    0.594456    0.151234    0.000000
    33  Si    c     0.708862    0.101278    0.818280    0.000000
    34  Si    c     0.597745    0.693228    0.983422    0.000000
    35  Si    c     0.098829    0.397244    0.652460    0.000000
    36  Si    c     0.302434    0.903878    0.317256    0.000000
    37  Si    c     0.241737    0.327645    0.954864    0.000000
    38  Si    c     0.656962    0.912333    0.287963    0.000000
    39  Si    c     0.092129    0.750063    0.622427    0.000000
    40  Si    c     0.749967    0.659109    0.456981    0.000000
    41  Si    c     0.350748    0.102991    0.790195    0.000000
    42  Si    c     0.906719    0.248364    0.119859    0.000000
    43  Si    c     0.346170    0.258783    0.382511    0.000000
    44  Si    c     0.908540    0.656129    0.050912    0.000000
    45  Si    c     0.753773    0.088204    0.717319    0.000000
    46  Si    c     0.659181    0.748999    0.881790    0.000000
    47  Si    c     0.090866    0.339668    0.551207    0.000000
    48  Si    c     0.253012    0.909004    0.216248    0.000000
    49  Si    c     0.966730    0.115100    0.970978    0.000000
    50  Si    c     0.874592    0.852561    0.305544    0.000000
    51  Si    c     0.156333    0.031480    0.638564    0.000000
    52  Si    c     0.029964    0.876869    0.473871    0.000000
    53  Si    c     0.129149    0.161340    0.805696    0.000000
    54  Si    c     0.844349    0.969404    0.136166    0.000000
    55  Ge    c     0.124636    0.975746    0.370786    0.000000
    56  Si    c     0.844863    0.871743    0.035605    0.000000
    57  Si    c     0.033082    0.150612    0.703912    0.000000
    58  Si    c     0.884316    0.028236    0.868564    0.000000
    59  Si    c     0.154140    0.123092    0.537548    0.000000
    60  Ge    c     0.969770    0.846642    0.202372    0.000000
    61  O2    c     0.921068    0.992871    0.003230    0.000000
    62  O3    c     0.987080    0.933809    0.340735    0.000000
    63  O2    c     0.075799    0.070638    0.671605    0.000000
    64  O2    c     0.068701    0.993609    0.509015    0.000000
    65  O2    c     0.005824    0.067252    0.836828    0.000000
    66  O3    c     0.927787    0.936108    0.168904    0.000000
    67  O2    c     0.342190    0.582500    0.336942    0.000000
    68  O2    c     0.421400    0.761422    0.671627    0.000000
    69  O2    c     0.234118    0.654064    0.002704    0.000000
    70  O2    c     0.678055    0.428498    0.835335    0.000000
    71  O2    c     0.575231    0.233617    0.167319    0.000000
    72  O2    c     0.763045    0.339364    0.502335    0.000000
    73  O2    c     0.577879    0.337291    0.000269    0.000000
    74  O2    c     0.766652    0.420299    0.668800    0.000000
    75  O2    c     0.661444    0.242042    0.335265    0.000000
    76  O2    c     0.423330    0.658004    0.505136    0.000000
    77  O2    c     0.235425    0.574291    0.169280    0.000000
    78  O2    c     0.345494    0.780462    0.839106    0.000000
    79  O2    c     0.119573    0.207558    0.979988    0.000000
    80  O2    c     0.781626    0.913296    0.308809    0.000000
    81  O2    c     0.091846    0.876746    0.641806    0.000000
    82  O2    c     0.875613    0.784407    0.478015    0.000000
    83  O2    c     0.228538    0.106465    0.811042    0.000000
    84  O2    c     0.906175    0.123374    0.139984    0.000000
    85  O3    c     0.222540    0.137399    0.360426    0.000000
    86  O2    c     0.909458    0.782395    0.030780    0.000000
    87  O2    c     0.878671    0.086306    0.697277    0.000000
    88  O2    c     0.785767    0.874420    0.862676    0.000000
    89  O2    c     0.091350    0.213698    0.530960    0.000000
    90  O3    c     0.132292    0.910740    0.193883    0.000000
    91  O3    c     0.936920    0.869307    0.256795    0.000000
    92  O2    c     0.148977    0.080588    0.589021    0.000000
    93  O2    c     0.932361    0.060577    0.920283    0.000000
    94  O2    c     0.072559    0.138479    0.754461    0.000000
    95  O2    c     0.855235    0.923602    0.086092    0.000000
    96  O3    c     0.075687    0.941757    0.425825    0.000000
    97  O2    c     0.896333    0.197653    0.980995    0.000000
    98  O2    c     0.795017    0.700279    0.316982    0.000000
    99  O2    c     0.307384    0.098923    0.650907    0.000000
   100  O2    c     0.099055    0.793142    0.483529    0.000000
   101  O3    c     0.200194    0.307675    0.817566    0.000000
   102  O2    c     0.692983    0.897579    0.148456    0.000000
   103  O3    c     0.206422    0.897369    0.356321    0.000000
   104  O2    c     0.693208    0.786805    0.022881    0.000000
   105  O2    c     0.100653    0.301606    0.690822    0.000000
   106  O2    c     0.806534    0.101902    0.856791    0.000000
   107  O2    c     0.303178    0.201838    0.522104    0.000000
   108  O3    c     0.892364    0.684263    0.190515    0.000000
   109  O2    c     0.322188    0.641812    0.252476    0.000000
   110  O2    c     0.357141    0.677809    0.587873    0.000000
   111  O2    c     0.318711    0.671803    0.919013    0.000000
   112  O2    c     0.690830    0.359013    0.752131    0.000000
   113  O2    c     0.639983    0.316031    0.083594    0.000000
   114  O2    c     0.680235    0.324583    0.419033    0.000000
   115  O2    c     0.369931    0.322791    0.970860    0.000000
   116  O2    c     0.668452    0.045700    0.305828    0.000000
   117  O2    c     0.959749    0.627025    0.640218    0.000000
   118  O2    c     0.627681    0.668704    0.475222    0.000000
   119  O2    c     0.339666    0.969951    0.807820    0.000000
   120  O2    c     0.039746    0.370041    0.138685    0.000000
   121  O2    c     0.334556    0.380779    0.365712    0.000000
   122  O2    c     0.039750    0.665397    0.031871    0.000000
   123  O2    c     0.628824    0.956002    0.699565    0.000000
   124  O2    c     0.668532    0.625824    0.864884    0.000000
   125  O2    c     0.958580    0.328761    0.532008    0.000000
   126  O2    c     0.374743    0.041227    0.198082    0.000000
   127  O2    c     0.768397    0.302205    0.011055    0.000000
   128  O2    c     0.699879    0.471271    0.347003    0.000000
   129  O2    c     0.540573    0.230118    0.680270    0.000000
   130  O2    c     0.232520    0.695330    0.514292    0.000000
   131  O3    c     0.298096    0.545515    0.842540    0.000000
   132  O2    c     0.463984    0.766859    0.179508    0.000000
   133  O2    c     0.303280    0.770554    0.324114    0.000000
   134  O2    c     0.462106    0.688602    0.989543    0.000000
   135  O2    c     0.231887    0.532922    0.659858    0.000000
   136  O2    c     0.712989    0.237168    0.825303    0.000000
   137  O2    c     0.533929    0.302340    0.491380    0.000000
   138  O2    c     0.764428    0.460643    0.156631    0.000000
   139  O2    c     0.779716    0.532138    0.031142    0.000000
   140  O2    c     0.469799    0.255153    0.362859    0.000000
   141  O2    c     0.756719    0.214541    0.697153    0.000000
   142  O2    c     0.217852    0.464476    0.532078    0.000000
   143  O2    c     0.530243    0.744453    0.864157    0.000000
   144  O2    c     0.247698    0.779393    0.197675    0.000000
   145  O2    c     0.533342    0.785933    0.307586    0.000000
   146  O2    c     0.249703    0.460454    0.972649    0.000000
   147  O2    c     0.217449    0.750290    0.642572    0.000000
   148  O2    c     0.481728    0.225267    0.809100    0.000000
   149  O2    c     0.750725    0.533605    0.475802    0.000000
   150  O2    c     0.780148    0.246186    0.139056    0.000000
   151  O3    c     0.212985    0.302266    0.902300    0.000000
   152  O2    c     0.674180    0.906830    0.233527    0.000000
   153  O2    c     0.094266    0.767298    0.567961    0.000000
   154  O2    c     0.771310    0.678231    0.402565    0.000000
   155  O2    c     0.334135    0.102772    0.735602    0.000000
   156  O2    c     0.904023    0.228900    0.065466    0.000000
   157  O2    c     0.325946    0.231835    0.436810    0.000000
   158  O2    c     0.908794    0.675151    0.105531    0.000000
   159  O2    c     0.775210    0.091759    0.771739    0.000000
   160  O2    c     0.667452    0.760155    0.936631    0.000000
   161  O2    c     0.092819    0.323017    0.605575    0.000000
   162  O2    c     0.229867    0.908065    0.270841    0.000000
   163  O2    c     0.577081    0.551269    0.988308    0.000000
   164  O2    c     0.441508    0.031531    0.325409    0.000000
   165  O2    c     0.975108    0.413803    0.660447    0.000000
   166  O2    c     0.412957    0.439694    0.493127    0.000000
   167  O2    c     0.567798    0.979604    0.828156    0.000000
   168  O2    c     0.024771    0.581146    0.160202    0.000000
   169  O2    c     0.561715    0.593981    0.346958    0.000000
   170  O2    c     0.026172    0.437465    0.010959    0.000000
   171  O2    c     0.414790    0.971932    0.681081    0.000000
   172  O3    c     0.453052    0.410129    0.838758    0.000000
   173  O2    c     0.973664    0.556378    0.511855    0.000000
   174  O2    c     0.587194    0.027231    0.178034    0.000000
   175  O2    c     0.584182    0.167608    0.251658    0.000000
   176  O2    c     0.837837    0.416826    0.585805    0.000000
   177  O2    c     0.576913    0.412843    0.916240    0.000000
   178  O2    c     0.422557    0.840300    0.754999    0.000000
   179  O2    c     0.162364    0.579733    0.085934    0.000000
   180  O2    c     0.419977    0.587170    0.420916    0.000000
   181  F     c     0.450553    0.903981    0.251592    0.000000
   182  F     c     0.098409    0.548355    0.586064    0.000000
   183  F     c     0.421591    0.516036    0.907795    0.000000
   184  F     c     0.558439    0.101116    0.753838    0.000000
   185  F     c     0.901172    0.450615    0.084522    0.000000
   186  F     c     0.550107    0.454238    0.419035    0.000000
   187  O2    s     0.917446    0.992682    0.003323    0.000000
   188  O3    s     0.987080    0.928755    0.339582    0.000000
   189  O2    s     0.080128    0.075067    0.671452    0.000000
   190  O2    s     0.074075    0.995355    0.508364    0.000000
   191  O2    s     0.004689    0.072451    0.837234    0.000000
   192  O3    s     0.922334    0.931957    0.168238    0.000000
   193  O2    s     0.353899    0.590098    0.336759    0.000000
   194  O2    s     0.414113    0.765760    0.671466    0.000000
   195  O2    s     0.229845    0.642319    0.002502    0.000000
   196  O2    s     0.664919    0.420089    0.835007    0.000000
   197  O2    s     0.583198    0.229819    0.167320    0.000000
   198  O2    s     0.767180    0.351082    0.502323    0.000000
   199  O2    s     0.584945    0.348728    0.000293    0.000000
   200  O2    s     0.771247    0.412941    0.668905    0.000000
   201  O2    s     0.649685    0.237781    0.335331    0.000000
   202  O2    s     0.415699    0.646364    0.504989    0.000000
   203  O2    s     0.231277    0.581942    0.169291    0.000000
   204  O2    s     0.356700    0.782289    0.838590    0.000000
   205  O2    s     0.115731    0.209848    0.976599    0.000000
   206  O2    s     0.778051    0.906714    0.306223    0.000000
   207  O2    s     0.098663    0.879907    0.639478    0.000000
   208  O2    s     0.878736    0.781036    0.475397    0.000000
   209  O2    s     0.231725    0.111528    0.808305    0.000000
   210  O2    s     0.899603    0.120245    0.137446    0.000000
   211  O3    s     0.226790    0.136168    0.363457    0.000000
   212  O2    s     0.902492    0.778935    0.033335    0.000000
   213  O2    s     0.881839    0.093191    0.700007    0.000000
   214  O2    s     0.782456    0.876950    0.865294    0.000000
   215  O2    s     0.097922    0.217093    0.533703    0.000000
   216  O3    s     0.130887    0.905260    0.196797    0.000000
   217  O3    s     0.933202    0.865492    0.257140    0.000000
   218  O2    s     0.150392    0.079844    0.588760    0.000000
   219  O2    s     0.930908    0.063179    0.920312    0.000000
   220  O2    s     0.073995    0.142281    0.754056    0.000000
   221  O2    s     0.852795    0.922722    0.085838    0.000000
   222  O3    s     0.075061    0.937689    0.426168    0.000000
   223  O2    s     0.904028    0.199352    0.983845    0.000000
   224  O2    s     0.793504    0.706276    0.319757    0.000000
   225  O2    s     0.301249    0.091733    0.653564    0.000000
   226  O2    s     0.091831    0.791971    0.486389    0.000000
   227  O3    s     0.199843    0.298124    0.818994    0.000000
   228  O2    s     0.699251    0.905483    0.151125    0.000000
   229  O3    s     0.209043    0.904456    0.353700    0.000000
   230  O2    s     0.698927    0.785738    0.020014    0.000000
   231  O2    s     0.093437    0.295782    0.688214    0.000000
   232  O2    s     0.804781    0.094033    0.854099    0.000000
   233  O2    s     0.297326    0.203708    0.519800    0.000000
   234  O3    s     0.899372    0.688911    0.187684    0.000000
   235  O2    s     0.327743    0.653528    0.252461    0.000000
   236  O2    s     0.345426    0.671815    0.587809    0.000000
   237  O2    s     0.323697    0.666791    0.919276    0.000000
   238  O2    s     0.684696    0.347070    0.752194    0.000000
   239  O2    s     0.651758    0.322234    0.083695    0.000000
   240  O2    s     0.674385    0.330295    0.419041    0.000000
   241  O2    s     0.373377    0.332234    0.968884    0.000000
   242  O2    s     0.658368    0.038973    0.303630    0.000000
   243  O2    s     0.966609    0.623841    0.638000    0.000000
   244  O2    s     0.624397    0.658830    0.472953    0.000000
   245  O2    s     0.349877    0.976504    0.805675    0.000000
   246  O2    s     0.033098    0.373494    0.136503    0.000000
   247  O2    s     0.344862    0.384327    0.367911    0.000000
   248  O2    s     0.033133    0.655479    0.034186    0.000000
   249  O2    s     0.625917    0.962920    0.701840    0.000000
   250  O2    s     0.659453    0.623195    0.866656    0.000000
   251  O2    s     0.965220    0.338774    0.534296    0.000000
   252  O2    s     0.378460    0.034773    0.200309    0.000000
   253  O2    s     0.775166    0.309397    0.014283    0.000000
   254  O2    s     0.692161    0.470403    0.350165    0.000000
   255  O2    s     0.541161    0.223371    0.683486    0.000000
   256  O2    s     0.225406    0.687729    0.517456    0.000000
   257  O3    s     0.307203    0.550542    0.846303    0.000000
   258  O2    s     0.463433    0.773849    0.182663    0.000000
   259  O2    s     0.311091    0.777291    0.321117    0.000000
   260  O2    s     0.461691    0.681577    0.986783    0.000000
   261  O2    s     0.224909    0.533508    0.656819    0.000000
   262  O2    s     0.704732    0.229664    0.822187    0.000000
   263  O2    s     0.534695    0.309941    0.488385    0.000000
   264  O2    s     0.771583    0.459786    0.153661    0.000000
   265  O2    s     0.785239    0.529171    0.033528    0.000000
   266  O2    s     0.472980    0.263305    0.365552    0.000000
   267  O2    s     0.748830    0.209612    0.699783    0.000000
   268  O2    s     0.212578    0.467252    0.534666    0.000000
   269  O2    s     0.528973    0.738622    0.866362    0.000000
   270  O2    s     0.256156    0.784705    0.200118    0.000000
   271  O2    s     0.530309    0.790886    0.304968    0.000000
   272  O2    s     0.256101    0.463457    0.970465    0.000000
   273  O2    s     0.212301    0.742468    0.639960    0.000000
   274  O2    s     0.483801    0.220097    0.806427    0.000000
   275  O2    s     0.742901    0.530891    0.473179    0.000000
   276  O2    s     0.785220    0.254091    0.136482    0.000000
   277  O3    s     0.222774    0.312161    0.905084    0.000000
   278  O2    s     0.664487    0.906771    0.234348    0.000000
   279  O2    s     0.094510    0.757940    0.568905    0.000000
   280  O2    s     0.761671    0.668610    0.403370    0.000000
   281  O2    s     0.343381    0.102469    0.736477    0.000000
   282  O2    s     0.903891    0.238294    0.066377    0.000000
   283  O2    s     0.335573    0.241652    0.436152    0.000000
   284  O2    s     0.907867    0.665153    0.104455    0.000000
   285  O2    s     0.765942    0.092373    0.770897    0.000000
   286  O2    s     0.659080    0.751779    0.935927    0.000000
   287  O2    s     0.093234    0.332593    0.604693    0.000000
   288  O2    s     0.239399    0.907747    0.269991    0.000000
   289  O2    s     0.573807    0.551946    0.985541    0.000000
   290  O2    s     0.441474    0.026615    0.322187    0.000000
   291  O2    s     0.979988    0.418164    0.657105    0.000000
   292  O2    s     0.417726    0.439674    0.489915    0.000000
   293  O2    s     0.568138    0.984571    0.824698    0.000000
   294  O2    s     0.020082    0.576663    0.156786    0.000000
   295  O2    s     0.561708    0.588893    0.350292    0.000000
   296  O2    s     0.021077    0.437220    0.014314    0.000000
   297  O2    s     0.420004    0.977074    0.684345    0.000000
   298  O3    s     0.457004    0.416484    0.842867    0.000000
   299  O2    s     0.978466    0.556604    0.515326    0.000000
   300  O2    s     0.582281    0.022218    0.181407    0.000000
   301  O2    s     0.578507    0.156538    0.251665    0.000000
   302  O2    s     0.848867    0.422314    0.585754    0.000000
   303  O2    s     0.572465    0.417785    0.916635    0.000000
   304  O2    s     0.428055    0.851452    0.754833    0.000000
   305  O2    s     0.151359    0.574074    0.085876    0.000000
   306  O2    s     0.425288    0.581441    0.420810    0.000000
   307  F     s     0.450317    0.903669    0.251519    0.000000
   308  F     s     0.098777    0.548649    0.585967    0.000000
   309  F     s     0.414515    0.509211    0.904736    0.000000
   310  F     s     0.558827    0.101527    0.753895    0.000000
   311  F     s     0.900877    0.450695    0.084467    0.000000
   312  F     s     0.550261    0.454048    0.418916    0.000000
--------------------------------------------------------------------------------

  Final Cartesian lattice vectors (Angstroms) :

       12.000191    0.000642   -0.004958
       -6.032283   10.378413   -0.006047
       -0.088077   -0.227604   29.403680


  Final cell parameters and derivatives :

--------------------------------------------------------------------------------
       a           12.000192 Angstrom     dE/de1(xx)     0.000646 eV/strain
       b           12.004163 Angstrom     dE/de2(yy)     0.000264 eV/strain
       c           29.404693 Angstrom     dE/de3(zz)     0.000955 eV/strain
       alpha       90.326051 Degrees      dE/de4(yz)    -0.000071 eV/strain
       beta        90.195315 Degrees      dE/de5(xz)    -0.000018 eV/strain
       gamma      120.163512 Degrees      dE/de6(xy)    -0.000031 eV/strain
--------------------------------------------------------------------------------

  Primitive cell volume =          3662.106629 Angs**3

  Density of cell =      1.747107 g/cm**3

  Non-primitive cell volume =          3662.106629 Angs**3


  Final internal derivatives :

--------------------------------------------------------------------------------
   No.  Atomic          a             b             c           Radius
        Label          (eV)          (eV)          (eV)        (eV/Angs)
[...]
     59 Si    c      -0.000008      0.000023      0.000010      0.000000
     60 Ge    c       0.000656     -0.000985     -0.001816      0.000000
     61 O2    c       0.000026     -0.000017      0.000031      0.000000
     62 O3    c      -0.000400      0.000558      0.000705      0.000000
     63 O2    c      -0.000008      0.000009      0.000012      0.000000
     64 O2    c      -0.000021     -0.000008     -0.000018      0.000000
     65 O2    c      -0.000001     -0.000000      0.000010      0.000000
     66 O3    c       0.000691     -0.000043      0.000836      0.000000
     67 O2    c      -0.000006     -0.000012      0.000009      0.000000
     68 O2    c      -0.000013      0.000011     -0.000003      0.000000
     69 O2    c       0.000011      0.000001     -0.000024      0.000000
     70 O2    c       0.000014     -0.000002     -0.000007      0.000000
     71 O2    c      -0.000006      0.000006     -0.000004      0.000000
     72 O2    c       0.000007      0.000004      0.000006      0.000000
     73 O2    c       0.000029     -0.000020      0.000071      0.000000
     74 O2    c       0.000001      0.000004     -0.000008      0.000000
     75 O2    c      -0.000002     -0.000011     -0.000035      0.000000
     76 O2    c       0.000005     -0.000003     -0.000007      0.000000
     77 O2    c      -0.000008     -0.000017     -0.000063      0.000000
     78 O2    c      -0.000013      0.000011     -0.000012      0.000000
     79 O2    c      -0.000008     -0.000005      0.000013      0.000000
     80 O2    c      -0.000231      0.000283      0.000313      0.000000
     81 O2    c       0.000003     -0.000001     -0.000006      0.000000
     82 O2    c      -0.000032     -0.000005      0.000020      0.000000
     83 O2    c       0.000019     -0.000014      0.000011      0.000000
     84 O2    c       0.000037     -0.000044      0.000037      0.000000
     85 O3    c      -0.000034      0.000016      0.000022      0.000000
     86 O2    c       0.000052     -0.000054     -0.000025      0.000000
     87 O2    c       0.000003     -0.000001     -0.000005      0.000000
     88 O2    c      -0.000001     -0.000005     -0.000004      0.000000
     89 O2    c      -0.000006      0.000007     -0.000001      0.000000
     90 O3    c       0.000227      0.000029     -0.000223      0.000000
     91 O3    c       0.000427      0.000444     -0.000743      0.000000
     92 O2    c      -0.000007      0.000008     -0.000038      0.000000
     93 O2    c       0.000015      0.000002      0.000127      0.000000
     94 O2    c       0.000001      0.000004     -0.000004      0.000000
     95 O2    c       0.000167     -0.000181     -0.000573      0.000000
     96 O3    c      -0.000116      0.000138      0.000306      0.000000
     97 O2    c      -0.000033      0.000038      0.000038      0.000000
     98 O2    c       0.000030     -0.000050     -0.000231      0.000000
     99 O2    c       0.000002     -0.000004      0.000016      0.000000
    100 O2    c      -0.000001     -0.000002     -0.000028      0.000000
    101 O3    c       0.000016      0.000022      0.000054      0.000000
    102 O2    c      -0.000196     -0.000044      0.000010      0.000000
    103 O3    c       0.000045     -0.000074      0.000099      0.000000
    104 O2    c       0.000007     -0.000012     -0.000001      0.000000
    105 O2    c      -0.000001     -0.000000      0.000001      0.000000
    106 O2    c      -0.000028      0.000023     -0.000025      0.000000
    107 O2    c       0.000009      0.000002     -0.000005      0.000000
    108 O3    c      -0.000011      0.000027      0.000153      0.000000
    109 O2    c       0.000003     -0.000004      0.000034      0.000000
    110 O2    c      -0.000008     -0.000003     -0.000034      0.000000
    111 O2    c       0.000006     -0.000003     -0.000006      0.000000
    112 O2    c       0.000002     -0.000012     -0.000029      0.000000
    113 O2    c      -0.000001      0.000002      0.000020      0.000000
    114 O2    c      -0.000007      0.000010      0.000001      0.000000
    115 O2    c       0.000006     -0.000003      0.000003      0.000000
    116 O2    c       0.000016     -0.000011      0.000005      0.000000
    117 O2    c       0.000002     -0.000008     -0.000002      0.000000
    118 O2    c      -0.000007      0.000003      0.000018      0.000000
    119 O2    c      -0.000002     -0.000000      0.000002      0.000000
    120 O2    c      -0.000004     -0.000006     -0.000005      0.000000
    121 O2    c      -0.000005      0.000012     -0.000011      0.000000
    122 O2    c       0.000006     -0.000003     -0.000018      0.000000
    123 O2    c       0.000003      0.000006      0.000004      0.000000
    124 O2    c      -0.000002      0.000007      0.000007      0.000000
    125 O2    c       0.000008     -0.000007     -0.000005      0.000000
    126 O2    c      -0.000000      0.000004     -0.000010      0.000000
    127 O2    c      -0.000021      0.000010     -0.000010      0.000000
    128 O2    c      -0.000002      0.000008     -0.000023      0.000000
    129 O2    c       0.000006      0.000001      0.000006      0.000000
    130 O2    c       0.000001     -0.000001     -0.000005      0.000000
    131 O3    c      -0.000003      0.000028      0.000025      0.000000
    132 O2    c       0.000017     -0.000012     -0.000070      0.000000
    133 O2    c       0.000011     -0.000032      0.000028      0.000000
    134 O2    c      -0.000008     -0.000000     -0.000004      0.000000
    135 O2    c      -0.000006     -0.000006     -0.000002      0.000000
    136 O2    c       0.000008     -0.000007      0.000010      0.000000
    137 O2    c       0.000007     -0.000002     -0.000001      0.000000
    138 O2    c      -0.000003     -0.000006      0.000004      0.000000
    139 O2    c       0.000000      0.000002      0.000011      0.000000
    140 O2    c       0.000000     -0.000000     -0.000015      0.000000
    141 O2    c       0.000000      0.000002     -0.000006      0.000000
    142 O2    c      -0.000000      0.000008     -0.000001      0.000000
    143 O2    c      -0.000004      0.000002     -0.000007      0.000000
    144 O2    c      -0.000006     -0.000013     -0.000046      0.000000
    145 O2    c       0.000002     -0.000029      0.000056      0.000000
    146 O2    c      -0.000000      0.000005     -0.000001      0.000000
    147 O2    c      -0.000004      0.000003      0.000002      0.000000
    148 O2    c      -0.000023      0.000006      0.000007      0.000000
    149 O2    c       0.000004     -0.000014     -0.000001      0.000000
    150 O2    c       0.000010     -0.000012      0.000024      0.000000
    151 O3    c       0.000005     -0.000007      0.000062      0.000000
    152 O2    c      -0.000076      0.000054      0.000068      0.000000
    153 O2    c       0.000007     -0.000014     -0.000007      0.000000
    154 O2    c      -0.000002     -0.000026     -0.000014      0.000000
    155 O2    c       0.000005     -0.000003      0.000028      0.000000
    156 O2    c       0.000012     -0.000008      0.000104      0.000000
    157 O2    c      -0.000003      0.000011     -0.000021      0.000000
    158 O2    c      -0.000008     -0.000007     -0.000005      0.000000
    159 O2    c      -0.000007      0.000003     -0.000024      0.000000
    160 O2    c       0.000000     -0.000001     -0.000036      0.000000
    161 O2    c      -0.000006      0.000013      0.000008      0.000000
    162 O2    c       0.000060     -0.000026     -0.000049      0.000000
    163 O2    c       0.000006     -0.000013      0.000008      0.000000
    164 O2    c      -0.000003      0.000001      0.000003      0.000000
    165 O2    c      -0.000003      0.000002      0.000005      0.000000
    166 O2    c      -0.000001      0.000003     -0.000002      0.000000
    167 O2    c      -0.000009     -0.000001     -0.000010      0.000000
    168 O2    c       0.000008     -0.000004      0.000027      0.000000
    169 O2    c      -0.000004     -0.000000     -0.000029      0.000000
    170 O2    c       0.000004      0.000016      0.000023      0.000000
    171 O2    c      -0.000002      0.000001     -0.000008      0.000000
    172 O3    c       0.000030     -0.000019     -0.000045      0.000000
    173 O2    c       0.000004      0.000011     -0.000013      0.000000
    174 O2    c       0.000001      0.000004     -0.000012      0.000000
    175 O2    c      -0.000002     -0.000002     -0.000037      0.000000
    176 O2    c       0.000009      0.000003      0.000021      0.000000
    177 O2    c      -0.000004      0.000002      0.000035      0.000000
    178 O2    c      -0.000004      0.000007      0.000029      0.000000
    179 O2    c       0.000009     -0.000000     -0.000032      0.000000
    180 O2    c      -0.000000     -0.000005     -0.000026      0.000000
    181 F     c      -0.000006      0.000003     -0.000002      0.000000
    182 F     c      -0.000001     -0.000000     -0.000001      0.000000
    183 F     c      -0.000003     -0.000004     -0.000013      0.000000
    184 F     c      -0.000000      0.000003      0.000003      0.000000
    185 F     c      -0.000001      0.000001      0.000009      0.000000
    186 F     c       0.000000     -0.000001     -0.000007      0.000000
    187 O2    s      -0.000014      0.000035     -0.000135      0.000000
    188 O3    s       0.000322     -0.000187      0.000755      0.000000
    189 O2    s       0.000001     -0.000001      0.000014      0.000000
    190 O2    s       0.000009      0.000019      0.000127      0.000000
    191 O2    s       0.000000      0.000001     -0.000021      0.000000
    192 O3    s      -0.000217      0.000090     -0.000582      0.000000
    193 O2    s      -0.000003      0.000009      0.000018      0.000000
    194 O2    s       0.000006     -0.000005      0.000004      0.000000
    195 O2    s      -0.000003      0.000001     -0.000009      0.000000
    196 O2    s      -0.000016      0.000002      0.000013      0.000000
    197 O2    s       0.000001     -0.000011      0.000011      0.000000
    198 O2    s      -0.000005      0.000000      0.000009      0.000000
    199 O2    s      -0.000004      0.000005     -0.000013      0.000000
    200 O2    s       0.000001     -0.000002     -0.000005      0.000000
    201 O2    s      -0.000002     -0.000006      0.000010      0.000000
    202 O2    s      -0.000006      0.000003      0.000008      0.000000
    203 O2    s       0.000008      0.000000     -0.000008      0.000000
    204 O2    s       0.000007     -0.000002     -0.000006      0.000000
    205 O2    s       0.000008      0.000006     -0.000021      0.000000
    206 O2    s      -0.000471      0.000243      0.000056      0.000000
    207 O2    s      -0.000004     -0.000003     -0.000007      0.000000
    208 O2    s      -0.000046     -0.000003     -0.000022      0.000000
    209 O2    s       0.000002     -0.000009     -0.000022      0.000000
    210 O2    s      -0.000139      0.000280     -0.000048      0.000000
    211 O3    s       0.000117      0.000038     -0.000052      0.000000
    212 O2    s       0.000049     -0.000044     -0.000008      0.000000
    213 O2    s       0.000001      0.000001      0.000014      0.000000
    214 O2    s       0.000005     -0.000020      0.000009      0.000000
    215 O2    s      -0.000002      0.000010      0.000024      0.000000
    216 O3    s       0.000247     -0.000159     -0.000030      0.000000
    217 O3    s       0.000022     -0.000317     -0.000122      0.000000
    218 O2    s       0.000004     -0.000010      0.000045      0.000000
    219 O2    s       0.000003     -0.000014     -0.000077      0.000000
    220 O2    s      -0.000007      0.000001     -0.000019      0.000000
    221 O2    s       0.000036     -0.000002     -0.000632      0.000000
    222 O3    s       0.000019     -0.000041      0.000148      0.000000
    223 O2    s       0.000001      0.000002     -0.000002      0.000000
    224 O2    s      -0.000083     -0.000240      0.000783      0.000000
    225 O2    s       0.000001      0.000002      0.000001      0.000000
    226 O2    s       0.000033     -0.000031      0.000132      0.000000
    227 O3    s      -0.000017     -0.000002     -0.000023      0.000000
    228 O2    s      -0.000301      0.000170      0.000421      0.000000
    229 O3    s       0.000119     -0.000055     -0.000324      0.000000
    230 O2    s      -0.000051      0.000016     -0.000143      0.000000
    231 O2    s      -0.000001     -0.000002     -0.000017      0.000000
    232 O2    s      -0.000007      0.000010     -0.000038      0.000000
    233 O2    s       0.000008     -0.000005     -0.000028      0.000000
    234 O3    s       0.000039     -0.000225     -0.000468      0.000000
    235 O2    s       0.000002      0.000014      0.000005      0.000000
    236 O2    s      -0.000000      0.000001      0.000012      0.000000
    237 O2    s      -0.000003     -0.000000      0.000002      0.000000
    238 O2    s      -0.000003      0.000003      0.000011      0.000000
    239 O2    s       0.000006     -0.000006     -0.000046      0.000000
    240 O2    s       0.000002     -0.000008      0.000030      0.000000
    241 O2    s      -0.000000      0.000003     -0.000008      0.000000
    242 O2    s      -0.000028      0.000005     -0.000037      0.000000
    243 O2    s       0.000000      0.000001     -0.000006      0.000000
    244 O2    s       0.000008     -0.000000     -0.000040      0.000000
    245 O2    s       0.000004     -0.000000     -0.000006      0.000000
    246 O2    s      -0.000005      0.000020     -0.000024      0.000000
    247 O2    s       0.000011      0.000002      0.000033      0.000000
    248 O2    s      -0.000005      0.000013      0.000013      0.000000
    249 O2    s      -0.000006     -0.000001      0.000011      0.000000
    250 O2    s       0.000002     -0.000000     -0.000015      0.000000
    251 O2    s      -0.000005      0.000011      0.000029      0.000000
    252 O2    s       0.000012     -0.000020      0.000042      0.000000
    253 O2    s       0.000001     -0.000001      0.000009      0.000000
    254 O2    s       0.000002     -0.000020      0.000073      0.000000
    255 O2    s      -0.000003     -0.000002     -0.000005      0.000000
    256 O2    s       0.000001     -0.000001      0.000018      0.000000
    257 O3    s       0.000003     -0.000014     -0.000001      0.000000
    258 O2    s       0.000011      0.000021      0.000090      0.000000
    259 O2    s      -0.000012      0.000030     -0.000033      0.000000
    260 O2    s      -0.000002      0.000004     -0.000012      0.000000
    261 O2    s      -0.000001      0.000003     -0.000014      0.000000
    262 O2    s      -0.000006     -0.000006     -0.000018      0.000000
    263 O2    s      -0.000001     -0.000005      0.000003      0.000000
    264 O2    s       0.000003     -0.000011     -0.000044      0.000000
    265 O2    s       0.000004     -0.000006     -0.000023      0.000000
    266 O2    s      -0.000001     -0.000000      0.000044      0.000000
    267 O2    s       0.000000     -0.000001      0.000001      0.000000
    268 O2    s      -0.000003      0.000001      0.000018      0.000000
    269 O2    s       0.000001     -0.000000      0.000006      0.000000
    270 O2    s       0.000010      0.000027      0.000078      0.000000
    271 O2    s      -0.000023      0.000028     -0.000060      0.000000
    272 O2    s      -0.000000      0.000000     -0.000018      0.000000
    273 O2    s      -0.000001     -0.000007     -0.000020      0.000000
    274 O2    s       0.000029     -0.000026     -0.000032      0.000000
    275 O2    s      -0.000008      0.000010     -0.000003      0.000000
    276 O2    s      -0.000012      0.000008     -0.000042      0.000000
    277 O3    s       0.000002      0.000023     -0.000045      0.000000
    278 O2    s       0.000216     -0.000145     -0.000176      0.000000
    279 O2    s      -0.000006      0.000006      0.000003      0.000000
    280 O2    s       0.000002      0.000068      0.000076      0.000000
    281 O2    s      -0.000000      0.000000     -0.000001      0.000000
    282 O2    s      -0.000022     -0.000000     -0.000087      0.000000
    283 O2    s       0.000018     -0.000025      0.000048      0.000000
    284 O2    s       0.000016      0.000034     -0.000063      0.000000
    285 O2    s       0.000000      0.000000      0.000016      0.000000
    286 O2    s       0.000002      0.000001     -0.000009      0.000000
    287 O2    s       0.000002     -0.000002      0.000003      0.000000
    288 O2    s      -0.000153      0.000064      0.000121      0.000000
    289 O2    s      -0.000005      0.000006     -0.000026      0.000000
    290 O2    s      -0.000005     -0.000011     -0.000023      0.000000
    291 O2    s       0.000001     -0.000001     -0.000013      0.000000
    292 O2    s       0.000000     -0.000000      0.000007      0.000000
    293 O2    s       0.000002      0.000003     -0.000012      0.000000
    294 O2    s       0.000011     -0.000007     -0.000075      0.000000
    295 O2    s      -0.000020      0.000015      0.000075      0.000000
    296 O2    s      -0.000000     -0.000002     -0.000032      0.000000
    297 O2    s       0.000005     -0.000000      0.000027      0.000000
    298 O3    s      -0.000017      0.000020      0.000074      0.000000
    299 O2    s       0.000002     -0.000006      0.000041      0.000000
    300 O2    s       0.000007     -0.000017      0.000024      0.000000
    301 O2    s      -0.000001     -0.000012      0.000018      0.000000
    302 O2    s      -0.000001     -0.000002     -0.000003      0.000000
    303 O2    s       0.000002     -0.000001     -0.000016      0.000000
    304 O2    s       0.000003      0.000003     -0.000014      0.000000
    305 O2    s      -0.000005      0.000006     -0.000002      0.000000
    306 O2    s       0.000003      0.000007      0.000015      0.000000
    307 F     s       0.000011     -0.000004     -0.000003      0.000000
    308 F     s       0.000003      0.000001      0.000003      0.000000
    309 F     s      -0.000004     -0.000002     -0.000009      0.000000
    310 F     s      -0.000000     -0.000007     -0.000002      0.000000
    311 F     s      -0.000000     -0.000002     -0.000019      0.000000
    312 F     s      -0.000001      0.000003      0.000015      0.000000
--------------------------------------------------------------------------------
  Maximum abs         0.000780      0.000985      0.001836      0.000000
--------------------------------------------------------------------------------


  Time to end of optimisation =     432.8790 seconds


  Peak dynamic memory used =      19.13 MB 


  Timing analysis for GULP :

--------------------------------------------------------------------------------
  Task / Subroutine                                          Time (Seconds)
--------------------------------------------------------------------------------
  Calculation of reciprocal space energy and derivatives         13.2873
  Calculation of real space energy and derivatives              367.4172
  Calculation of three-body energy and derivatives               43.1330
  Calculation of matrix inversion                                 5.6366
  Global summation overhead                                       0.0003
--------------------------------------------------------------------------------
  Total CPU time                                                432.8791
--------------------------------------------------------------------------------


  Dump file written as out.res                                                 
  CIF file written as out.cif                                                 


  Job Finished at 08:24.07 26th November   2016                               

