********************************************************************************
*                       GENERAL UTILITY LATTICE PROGRAM                        *
*                                 Julian Gale                                  *
*                      Nanochemistry Research Institute                        *
*                           Department of Chemistry                            *
*                    Curtin University, Western Australia                      *
********************************************************************************
* Version = 4.2.0 * Last modified =  20th January 2014                         *
********************************************************************************
*  optimise     - perform optimisation run                                     *
*  conp         - constant pressure calculation                                *
*  qok          - running with non charge neutral cell is OK                   *
********************************************************************************

  Job Started  at 02:15.31 26th November   2016                               

  Number of CPUs =     1


  Total number of configurations input =   1

********************************************************************************
*  Input for Configuration =   1                                               *
********************************************************************************

  Formula = Si57Ge3O120F6                                               

  Number of irreducible atoms/shells =     312


  Total number atoms/shells =     312

  Dimensionality = 3               :  Bulk   


  Charge on solid   =  -6.000000 =>neutralising background added


  Cartesian lattice vectors (Angstroms) :

       11.958739    0.000000    0.000000
       -5.988722   10.365782    0.000000
        0.061458    0.117677   29.502610

  Cell parameters (Angstroms/Degrees):

  a =      11.9587    alpha =  89.8618
  b =      11.9714    beta  =  89.8806
  c =      29.5029    gamma = 120.0167

  Initial cell volume =        3657.193251 Angs**3

  Temperature of configuration =  0.000     K 

  Pressure of configuration =         0.000 GPa 

  Fractional coordinates of asymmetric unit :

--------------------------------------------------------------------------------
   No.  Atomic       x           y          z         Charge      Occupancy
        Label      (Frac)      (Frac)     (Frac)        (e)         (Frac)  
--------------------------------------------------------------------------------
      1 Si    c    0.699600    0.375700    0.033890     4.00000    1.000000    
      2 Si    c    0.623631 *  0.324818 *  0.365747 *   4.00000    1.000000    
      3 Si    c    0.676371 *  0.297744 *  0.698944 *   4.00000    1.000000    
      4 Si    c    0.298466 *  0.620525 *  0.533390 *   4.00000    1.000000    
      5 Si    c    0.373961 *  0.677210 *  0.865525 *   4.00000    1.000000    
      6 Si    c    0.323303 *  0.703130 *  0.199510 *   4.00000    1.000000    
      7 Si    c    0.378766 *  0.703110 *  0.299917 *   4.00000    1.000000    
      8 Si    c    0.321261 *  0.625607 *  0.967087 *   4.00000    1.000000    
      9 Si    c    0.295790 *  0.677117 *  0.633316 *   4.00000    1.000000    
     10 Si    c    0.620112 *  0.294251 *  0.799352 *   4.00000    1.000000    
     11 Si    c    0.674110 *  0.374000 *  0.466629 *   4.00000    1.000000    
     12 Si    c    0.702074 *  0.323039 *  0.134268 *   4.00000    1.000000    
     13 Si    c    0.530845 *  0.414529 *  0.967821 *   4.00000    1.000000    
     14 Si    c    0.584037 *  0.114565 *  0.300850 *   4.00000    1.000000    
     15 Si    c    0.885348 *  0.470757 *  0.633347 *   4.00000    1.000000    
     16 Si    c    0.465024 *  0.578834 *  0.466928 *   4.00000    1.000000    
     17 Si    c    0.412872 *  0.885331 *  0.800166 *   4.00000    1.000000    
     18 Si    c    0.113690 *  0.532115 *  0.134153 *   4.00000    1.000000    
     19 Si    c    0.418273 *  0.531964 *  0.365224 *   4.00000    1.000000    
     20 Si    c    0.112076 *  0.585033 *  0.032597 *   4.00000    1.000000    
     21 Si    c    0.467151 *  0.886015 *  0.698713 *   4.00000    1.000000    
     22 Si    c    0.584504 *  0.466599 *  0.864961 *   4.00000    1.000000    
     23 Si    c    0.884038 *  0.415036 *  0.532055 *   4.00000    1.000000    
     24 Si    c    0.529996 *  0.113325 *  0.199471 *   4.00000    1.000000    
     25 Si    c    0.301972 *  0.399142 *  0.848914 *   4.00000    1.000000    
     26 Si    c    0.602234 *  0.905035 *  0.184880 *   4.00000    1.000000    
     27 Si    c    0.096217 *  0.694647 *  0.517027 *   4.00000    1.000000    
     28 Si    c    0.700693 *  0.603824 *  0.352353 *   4.00000    1.000000    
     29 Si    c    0.397774 *  0.096575 *  0.684653 *   4.00000    1.000000    
     30 Si    c    0.904337 *  0.302822 *  0.018828 *   4.00000    1.000000    
     31 Si    c    0.395283 *  0.298163 *  0.479871 *   4.00000    1.000000    
     32 Si    c    0.902907 *  0.601478 *  0.148357 *   4.00000    1.000000    
     33 Si    c    0.695421 *  0.092240 *  0.814276 *   4.00000    1.000000    
     34 Si    c    0.599110 *  0.696781 *  0.983939 *   4.00000    1.000000    
     35 Si    c    0.093582 *  0.398473 *  0.648845 *   4.00000    1.000000    
     36 Si    c    0.302747 *  0.904684 *  0.314995 *   4.00000    1.000000    
     37 Ge    c    0.250395 *  0.341164 *  0.950907 *   4.00000    1.000000    
     38 Si    c    0.660338 *  0.912430 *  0.285297 *   4.00000    1.000000    
     39 Si    c    0.086955 *  0.749672 *  0.616915 *   4.00000    1.000000    
     40 Si    c    0.743888 *  0.654493 *  0.453197 *   4.00000    1.000000    
     41 Si    c    0.337929 *  0.088674 *  0.784942 *   4.00000    1.000000    
     42 Si    c    0.912465 *  0.252714 *  0.119321 *   4.00000    1.000000    
     43 Si    c    0.341873 *  0.252610 *  0.379096 *   4.00000    1.000000    
     44 Si    c    0.907623 *  0.658570 *  0.047973 *   4.00000    1.000000    
     45 Si    c    0.746582 *  0.087123 *  0.713664 *   4.00000    1.000000    
     46 Ge    c    0.655317 *  0.744714 *  0.882369 *   4.00000    1.000000    
     47 Si    c    0.087302 *  0.340841 *  0.548500 *   4.00000    1.000000    
     48 Si    c    0.250819 *  0.911735 *  0.214625 *   4.00000    1.000000    
     49 Si    c    0.966753 *  0.118722 *  0.967560 *   4.00000    1.000000    
     50 Si    c    0.878438 *  0.850677 *  0.299784 *   4.00000    1.000000    
     51 Si    c    0.150736 *  0.030189 *  0.633825 *   4.00000    1.000000    
     52 Ge    c    0.026760 *  0.876888 *  0.466845 *   4.00000    1.000000    
     53 Si    c    0.121968 *  0.153351 *  0.799399 *   4.00000    1.000000    
     54 Si    c    0.850531 *  0.972924 *  0.134075 *   4.00000    1.000000    
     55 Si    c    0.122919 *  0.975176 *  0.363762 *   4.00000    1.000000    
     56 Si    c    0.844243 *  0.875554 *  0.033737 *   4.00000    1.000000    
     57 Si    c    0.026534 *  0.149557 *  0.698903 *   4.00000    1.000000    
     58 Si    c    0.878707 *  0.029022 *  0.865740 *   4.00000    1.000000    
     59 Si    c    0.149454 *  0.123826 *  0.533057 *   4.00000    1.000000    
     60 Si    c    0.970304 *  0.848982 *  0.198825 *   4.00000    1.000000    
     61 O2    c    0.915775 *  0.993155 *  0.999024 *   0.87073    1.000000    
     62 O2    c    0.003787 *  0.934109 *  0.329983 *   0.87073    1.000000    
     63 O2    c    0.069983 *  0.070358 *  0.666742 *   0.87073    1.000000    
     64 O3    c    0.063299 *  0.002636 *  0.502601 *   1.33043    1.000000    
     65 O2    c    0.004644 *  0.081514 *  0.834157 *   0.87073    1.000000    
     66 O2    c    0.930755 *  0.930252 *  0.166032 *   0.87073    1.000000    
     67 O2    c    0.341521 *  0.580023 *  0.332571 *   0.87073    1.000000    
     68 O2    c    0.417828 *  0.760892 *  0.666322 *   0.87073    1.000000    
     69 O2    c    0.236954 *  0.664912 *  0.999945 *   0.87073    1.000000    
     70 O2    c    0.659032 *  0.414842 *  0.832977 *   0.87073    1.000000    
     71 O2    c    0.578871 *  0.238991 *  0.167084 *   0.87073    1.000000    
     72 O2    c    0.758638 *  0.336225 *  0.499765 *   0.87073    1.000000    
     73 O2    c    0.579614 *  0.337874 *  0.000282 *   0.87073    1.000000    
     74 O2    c    0.760128 *  0.421421 *  0.666182 *   0.87073    1.000000    
     75 O2    c    0.661968 *  0.240328 *  0.332909 *   0.87073    1.000000    
     76 O2    c    0.419970 *  0.656931 *  0.500094 *   0.87073    1.000000    
     77 O2    c    0.239174 *  0.580975 *  0.166525 *   0.87073    1.000000    
     78 O2    c    0.333039 *  0.760211 *  0.832608 *   0.87073    1.000000    
     79 O3    c    0.118785 *  0.203257 *  0.973448 *   1.33043    1.000000    
     80 O2    c    0.786544 *  0.912832 *  0.305587 *   0.87073    1.000000    
     81 O2    c    0.086222 *  0.875279 *  0.637166 *   0.87073    1.000000    
     82 O3    c    0.863622 *  0.777820 *  0.475172 *   1.33043    1.000000    
     83 O2    c    0.211341 *  0.088082 *  0.805087 *   0.87073    1.000000    
     84 O2    c    0.913827 *  0.127126 *  0.139592 *   0.87073    1.000000    
     85 O2    c    0.217139 *  0.128986 *  0.357389 *   0.87073    1.000000    
     86 O2    c    0.908589 *  0.785443 *  0.027850 *   0.87073    1.000000    
     87 O2    c    0.872224 *  0.086128 *  0.693155 *   0.87073    1.000000    
     88 O3    c    0.795104 *  0.877535 *  0.860311 *   1.33043    1.000000    
     89 O2    c    0.088283 *  0.216441 *  0.528113 *   0.87073    1.000000    
     90 O2    c    0.124977 *  0.912443 *  0.194529 *   0.87073    1.000000    
     91 O2    c    0.925571 *  0.859378 *  0.248719 *   0.87073    1.000000    
     92 O2    c    0.141957 *  0.075793 *  0.584028 *   0.87073    1.000000    
     93 O2    c    0.927596 *  0.071433 *  0.916542 *   0.87073    1.000000    
     94 O2    c    0.063911 *  0.134348 *  0.749512 *   0.87073    1.000000    
     95 O2    c    0.864426 *  0.934482 *  0.083492 *   0.87073    1.000000    
     96 O3    c    0.065148 *  0.940303 *  0.413362 *   1.33043    1.000000    
     97 O2    c    0.903350 *  0.206997 *  0.979978 *   0.87073    1.000000    
     98 O2    c    0.799394 *  0.700458 *  0.314018 *   0.87073    1.000000    
     99 O2    c    0.301834 *  0.098465 *  0.646275 *   0.87073    1.000000    
    100 O3    c    0.103200 *  0.790523 *  0.477426 *   1.33043    1.000000    
    101 O2    c    0.209426 *  0.306394 *  0.808613 *   0.87073    1.000000    
    102 O2    c    0.698728 *  0.903338 *  0.146376 *   0.87073    1.000000    
    103 O2    c    0.204417 *  0.903246 *  0.353512 *   0.87073    1.000000    
    104 O2    c    0.691010 *  0.788649 *  0.024593 *   0.87073    1.000000    
    105 O2    c    0.095400 *  0.301765 *  0.687248 *   0.87073    1.000000    
    106 O2    c    0.790738 *  0.092732 *  0.853154 *   0.87073    1.000000    
    107 O2    c    0.299708 *  0.199681 *  0.518329 *   0.87073    1.000000    
    108 O2    c    0.901129 *  0.697723 *  0.186660 *   0.87073    1.000000    
    109 O2    c    0.321619 *  0.645231 *  0.249828 *   0.87073    1.000000    
    110 O2    c    0.355710 *  0.677267 *  0.583533 *   0.87073    1.000000    
    111 O2    c    0.319889 *  0.679191 *  0.916277 *   0.87073    1.000000    
    112 O2    c    0.677495 *  0.354556 *  0.749301 *   0.87073    1.000000    
    113 O2    c    0.642316 *  0.319962 *  0.084209 *   0.87073    1.000000    
    114 O2    c    0.677864 *  0.320594 *  0.416108 *   0.87073    1.000000    
    115 O3    c    0.377713 *  0.326055 *  0.970762 *   1.33043    1.000000    
    116 O2    c    0.670755 *  0.044858 *  0.303683 *   0.87073    1.000000    
    117 O2    c    0.954384 *  0.627173 *  0.635694 *   0.87073    1.000000    
    118 O2    c    0.620490 *  0.664463 *  0.470120 *   0.87073    1.000000    
    119 O2    c    0.326975 *  0.955769 *  0.803119 *   0.87073    1.000000    
    120 O2    c    0.044916 *  0.375745 *  0.137298 *   0.87073    1.000000    
    121 O2    c    0.332501 *  0.375903 *  0.361496 *   0.87073    1.000000    
    122 O2    c    0.040712 *  0.669950 *  0.029527 *   0.87073    1.000000    
    123 O2    c    0.623617 *  0.954960 *  0.695524 *   0.87073    1.000000    
    124 O3    c    0.673393 *  0.619694 *  0.861689 *   1.33043    1.000000    
    125 O2    c    0.954371 *  0.329054 *  0.529861 *   0.87073    1.000000    
    126 O2    c    0.373617 *  0.044550 *  0.196407 *   0.87073    1.000000    
    127 O2    c    0.769815 *  0.302206 *  0.011931 *   0.87073    1.000000    
    128 O2    c    0.699590 *  0.469327 *  0.344213 *   0.87073    1.000000    
    129 O2    c    0.532822 *  0.229663 *  0.676825 *   0.87073    1.000000    
    130 O2    c    0.230943 *  0.695410 *  0.510886 *   0.87073    1.000000    
    131 O2    c    0.301283 *  0.533523 *  0.843643 *   0.87073    1.000000    
    132 O2    c    0.467427 *  0.771540 *  0.177484 *   0.87073    1.000000    
    133 O2    c    0.303396 *  0.770864 *  0.322538 *   0.87073    1.000000    
    134 O2    c    0.464750 *  0.697977 *  0.989165 *   0.87073    1.000000    
    135 O2    c    0.226463 *  0.533901 *  0.655997 *   0.87073    1.000000    
    136 O2    c    0.695264 *  0.226126 *  0.821462 *   0.87073    1.000000    
    137 O2    c    0.529211 *  0.297954 *  0.487862 *   0.87073    1.000000    
    138 O2    c    0.769790 *  0.466446 *  0.156306 *   0.87073    1.000000    
    139 O2    c    0.781073 *  0.532508 *  0.029006 *   0.87073    1.000000    
    140 O2    c    0.467898 *  0.251651 *  0.360153 *   0.87073    1.000000    
    141 O2    c    0.749676 *  0.214869 *  0.694296 *   0.87073    1.000000    
    142 O2    c    0.215328 *  0.464936 *  0.529186 *   0.87073    1.000000    
    143 O3    c    0.528005 *  0.754177 *  0.859632 *   1.33043    1.000000    
    144 O2    c    0.249403 *  0.785344 *  0.195001 *   0.87073    1.000000    
    145 O2    c    0.534891 *  0.785243 *  0.304601 *   0.87073    1.000000    
    146 O3    c    0.245914 *  0.471706 *  0.972546 *   1.33043    1.000000    
    147 O2    c    0.214336 *  0.752159 *  0.636355 *   0.87073    1.000000    
    148 O2    c    0.463698 *  0.214517 *  0.804451 *   0.87073    1.000000    
    149 O2    c    0.746441 *  0.529224 *  0.472191 *   0.87073    1.000000    
    150 O2    c    0.784825 *  0.249623 *  0.138913 *   0.87073    1.000000    
    151 O3    c    0.226989 *  0.319727 *  0.893338 *   1.33043    1.000000    
    152 O2    c    0.677745 *  0.910478 *  0.231037 *   0.87073    1.000000    
    153 O2    c    0.087919 *  0.767956 *  0.562383 *   0.87073    1.000000    
    154 O2    c    0.770996 *  0.676230 *  0.398948 *   0.87073    1.000000    
    155 O2    c    0.321826 *  0.092142 *  0.730707 *   0.87073    1.000000    
    156 O2    c    0.910564 *  0.233028 *  0.065107 *   0.87073    1.000000    
    157 O2    c    0.321704 *  0.228490 *  0.433315 *   0.87073    1.000000    
    158 O2    c    0.906272 *  0.676389 *  0.102196 *   0.87073    1.000000    
    159 O2    c    0.765822 *  0.087693 *  0.767871 *   0.87073    1.000000    
    160 O3    c    0.680183 *  0.772209 *  0.939851 *   1.33043    1.000000    
    161 O2    c    0.088485 *  0.323290 *  0.602756 *   0.87073    1.000000    
    162 O2    c    0.231713 *  0.909303 *  0.268913 *   0.87073    1.000000    
    163 O2    c    0.582003 *  0.555167 *  0.990609 *   0.87073    1.000000    
    164 O2    c    0.442355 *  0.030025 *  0.323914 *   0.87073    1.000000    
    165 O2    c    0.968338 *  0.413225 *  0.657077 *   0.87073    1.000000    
    166 O2    c    0.406224 *  0.436005 *  0.488926 *   0.87073    1.000000    
    167 O2    c    0.554814 *  0.967513 *  0.822851 *   0.87073    1.000000    
    168 O2    c    0.029495 *  0.589266 *  0.157118 *   0.87073    1.000000    
    169 O2    c    0.561955 *  0.591993 *  0.343608 *   0.87073    1.000000    
    170 O2    c    0.029681 *  0.442974 *  0.009997 *   0.87073    1.000000    
    171 O2    c    0.410075 *  0.970272 *  0.675845 *   0.87073    1.000000    
    172 O2    c    0.443292 *  0.415524 *  0.842397 *   0.87073    1.000000    
    173 O2    c    0.969246 *  0.555746 *  0.508481 *   0.87073    1.000000    
    174 O2    c    0.587903 *  0.030262 *  0.176111 *   0.87073    1.000000    
    175 O2    c    0.583798 *  0.167282 *  0.250013 *   0.87073    1.000000    
    176 O2    c    0.831052 *  0.416311 *  0.582831 *   0.87073    1.000000    
    177 O2    c    0.582517 *  0.416402 *  0.916571 *   0.87073    1.000000    
    178 O2    c    0.413194 *  0.832229 *  0.749432 *   0.87073    1.000000    
    179 O2    c    0.166439 *  0.585631 *  0.083251 *   0.87073    1.000000    
    180 O2    c    0.413423 *  0.581531 *  0.416141 *   0.87073    1.000000    
    181 F     c    0.451983 *  0.905133 *  0.249992 *   0.56000    1.000000    
    182 F     c    0.093511 *  0.548847 *  0.582730 *   0.56000    1.000000    
    183 F     c    0.454009 *  0.553137 *  0.915703 *   0.56000    1.000000    
    184 F     c    0.546199 *  0.095466 *  0.749289 *   0.56000    1.000000    
    185 F     c    0.903162 *  0.452185 *  0.084013 *   0.56000    1.000000    
    186 F     c    0.547563 *  0.451008 *  0.416128 *   0.56000    1.000000    
    187 O2    s    0.913315 *  0.993767 *  0.999470 *  -2.87073    1.000000    
    188 O2    s    0.002804 *  0.929224 *  0.330300 *  -2.87073    1.000000    
    189 O2    s    0.074091 *  0.074726 *  0.666678 *  -2.87073    1.000000    
    190 O3    s    0.069514 *  0.004877 *  0.502794 *  -3.33043    1.000000    
    191 O2    s    0.004131 *  0.083915 *  0.833671 *  -2.87073    1.000000    
    192 O2    s    0.926201 *  0.925955 *  0.166119 *  -2.87073    1.000000    
    193 O2    s    0.353282 *  0.587761 *  0.332565 *  -2.87073    1.000000    
    194 O2    s    0.410329 *  0.765166 *  0.666251 *  -2.87073    1.000000    
    195 O2    s    0.232699 *  0.652812 *  0.999957 *  -2.87073    1.000000    
    196 O2    s    0.647197 *  0.407650 *  0.832798 *  -2.87073    1.000000    
    197 O2    s    0.586577 *  0.234712 *  0.167024 *  -2.87073    1.000000    
    198 O2    s    0.762799 *  0.348113 *  0.499669 *  -2.87073    1.000000    
    199 O2    s    0.587323 *  0.349763 *  0.000516 *  -2.87073    1.000000    
    200 O2    s    0.764376 *  0.413791 *  0.666187 *  -2.87073    1.000000    
    201 O2    s    0.650054 *  0.236076 *  0.332993 *  -2.87073    1.000000    
    202 O2    s    0.411989 *  0.645066 *  0.500133 *  -2.87073    1.000000    
    203 O2    s    0.234938 *  0.588493 *  0.166596 *  -2.87073    1.000000    
    204 O2    s    0.345296 *  0.764686 *  0.832598 *  -2.87073    1.000000    
    205 O3    s    0.113295 *  0.205193 *  0.971128 *  -3.33043    1.000000    
    206 O2    s    0.783210 *  0.906193 *  0.302900 *  -2.87073    1.000000    
    207 O2    s    0.093115 *  0.878697 *  0.634744 *  -2.87073    1.000000    
    208 O3    s    0.865025 *  0.773543 *  0.472283 *  -3.33043    1.000000    
    209 O2    s    0.215079 *  0.095007 *  0.802427 *  -2.87073    1.000000    
    210 O2    s    0.906996 *  0.123750 *  0.136949 *  -2.87073    1.000000    
    211 O2    s    0.220247 *  0.125710 *  0.360291 *  -2.87073    1.000000    
    212 O2    s    0.901706 *  0.781829 *  0.030511 *  -2.87073    1.000000    
    213 O2    s    0.875609 *  0.092944 *  0.695846 *  -2.87073    1.000000    
    214 O3    s    0.793437 *  0.883489 *  0.862498 *  -3.33043    1.000000    
    215 O2    s    0.094741 *  0.219818 *  0.530797 *  -2.87073    1.000000    
    216 O2    s    0.121581 *  0.905626 *  0.197042 *  -2.87073    1.000000    
    217 O2    s    0.925334 *  0.857221 *  0.248839 *  -2.87073    1.000000    
    218 O2    s    0.143794 *  0.075931 *  0.584026 *  -2.87073    1.000000    
    219 O2    s    0.926553 *  0.072020 *  0.916619 *  -2.87073    1.000000    
    220 O2    s    0.066235 *  0.138208 *  0.749415 *  -2.87073    1.000000    
    221 O2    s    0.860580 *  0.932173 *  0.083596 *  -2.87073    1.000000    
    222 O3    s    0.068037 *  0.938524 *  0.412701 *  -3.33043    1.000000    
    223 O2    s    0.910000 *  0.207817 *  0.982726 *  -2.87073    1.000000    
    224 O2    s    0.797670 *  0.706547 *  0.316453 *  -2.87073    1.000000    
    225 O2    s    0.295560 *  0.090945 *  0.648913 *  -2.87073    1.000000    
    226 O3    s    0.096210 *  0.788464 *  0.480351 *  -3.33043    1.000000    
    227 O2    s    0.209615 *  0.299711 *  0.811681 *  -2.87073    1.000000    
    228 O2    s    0.704973 *  0.910904 *  0.149009 *  -2.87073    1.000000    
    229 O2    s    0.205898 *  0.910845 *  0.350697 *  -2.87073    1.000000    
    230 O2    s    0.697858 *  0.788519 *  0.021506 *  -2.87073    1.000000    
    231 O2    s    0.087956 *  0.295593 *  0.684560 *  -2.87073    1.000000    
    232 O2    s    0.789822 *  0.086090 *  0.850383 *  -2.87073    1.000000    
    233 O2    s    0.293690 *  0.201829 *  0.515888 *  -2.87073    1.000000    
    234 O2    s    0.908708 *  0.703984 *  0.184020 *  -2.87073    1.000000    
    235 O2    s    0.327600 *  0.657003 *  0.249799 *  -2.87073    1.000000    
    236 O2    s    0.343796 *  0.671460 *  0.583478 *  -2.87073    1.000000    
    237 O2    s    0.325498 *  0.673539 *  0.916319 *  -2.87073    1.000000    
    238 O2    s    0.671533 *  0.342653 *  0.749261 *  -2.87073    1.000000    
    239 O2    s    0.654245 *  0.326021 *  0.084081 *  -2.87073    1.000000    
    240 O2    s    0.671997 *  0.326438 *  0.416137 *  -2.87073    1.000000    
    241 O3    s    0.382803 *  0.336261 *  0.968830 *  -3.33043    1.000000    
    242 O2    s    0.660727 *  0.038164 *  0.301460 *  -2.87073    1.000000    
    243 O2    s    0.961063 *  0.623827 *  0.633488 *  -2.87073    1.000000    
    244 O2    s    0.617004 *  0.654247 *  0.467962 *  -2.87073    1.000000    
    245 O2    s    0.337009 *  0.962504 *  0.800888 *  -2.87073    1.000000    
    246 O2    s    0.038151 *  0.378949 *  0.135089 *  -2.87073    1.000000    
    247 O2    s    0.342390 *  0.379078 *  0.363751 *  -2.87073    1.000000    
    248 O2    s    0.034102 *  0.659928 *  0.031790 *  -2.87073    1.000000    
    249 O2    s    0.620363 *  0.961669 *  0.697755 *  -2.87073    1.000000    
    250 O3    s    0.662969 *  0.614395 *  0.863702 *  -3.33043    1.000000    
    251 O2    s    0.960999 *  0.339214 *  0.532052 *  -2.87073    1.000000    
    252 O2    s    0.376867 *  0.037728 *  0.198640 *  -2.87073    1.000000    
    253 O2    s    0.776779 *  0.309872 *  0.014971 *  -2.87073    1.000000    
    254 O2    s    0.691868 *  0.468465 *  0.347319 *  -2.87073    1.000000    
    255 O2    s    0.533338 *  0.222617 *  0.679959 *  -2.87073    1.000000    
    256 O2    s    0.223725 *  0.687427 *  0.513956 *  -2.87073    1.000000    
    257 O2    s    0.308852 *  0.534192 *  0.846488 *  -2.87073    1.000000    
    258 O2    s    0.466764 *  0.778529 *  0.180560 *  -2.87073    1.000000    
    259 O2    s    0.311060 *  0.777967 *  0.319395 *  -2.87073    1.000000    
    260 O2    s    0.463997 *  0.690371 *  0.986295 *  -2.87073    1.000000    
    261 O2    s    0.219581 *  0.534353 *  0.652883 *  -2.87073    1.000000    
    262 O2    s    0.687429 *  0.219024 *  0.818358 *  -2.87073    1.000000    
    263 O2    s    0.530162 *  0.305835 *  0.484789 *  -2.87073    1.000000    
    264 O2    s    0.776838 *  0.465886 *  0.153163 *  -2.87073    1.000000    
    265 O2    s    0.786507 *  0.530150 *  0.031519 *  -2.87073    1.000000    
    266 O2    s    0.470563 *  0.259546 *  0.362773 *  -2.87073    1.000000    
    267 O2    s    0.741589 *  0.209601 *  0.696844 *  -2.87073    1.000000    
    268 O2    s    0.210065 *  0.467898 *  0.531721 *  -2.87073    1.000000    
    269 O3    s    0.523367 *  0.745593 *  0.862110 *  -3.33043    1.000000    
    270 O2    s    0.257392 *  0.790526 *  0.197569 *  -2.87073    1.000000    
    271 O2    s    0.532170 *  0.790555 *  0.302040 *  -2.87073    1.000000    
    272 O3    s    0.253933 *  0.475968 *  0.970178 *  -3.33043    1.000000    
    273 O2    s    0.209016 *  0.743936 *  0.633958 *  -2.87073    1.000000    
    274 O2    s    0.466308 *  0.209093 *  0.801846 *  -2.87073    1.000000    
    275 O2    s    0.738407 *  0.526241 *  0.469584 *  -2.87073    1.000000    
    276 O2    s    0.790102 *  0.257735 *  0.136339 *  -2.87073    1.000000    
    277 O3    s    0.236391 *  0.329398 *  0.893672 *  -3.33043    1.000000    
    278 O2    s    0.667978 *  0.910121 *  0.231949 *  -2.87073    1.000000    
    279 O2    s    0.088574 *  0.758731 *  0.563461 *  -2.87073    1.000000    
    280 O2    s    0.761009 *  0.666516 *  0.399649 *  -2.87073    1.000000    
    281 O2    s    0.331504 *  0.092242 *  0.731640 *  -2.87073    1.000000    
    282 O2    s    0.910139 *  0.242414 *  0.066016 *  -2.87073    1.000000    
    283 O2    s    0.331405 *  0.238171 *  0.432490 *  -2.87073    1.000000    
    284 O2    s    0.906047 *  0.666614 *  0.101299 *  -2.87073    1.000000    
    285 O2    s    0.756432 *  0.088079 *  0.766961 *  -2.87073    1.000000    
    286 O3    s    0.670082 *  0.762445 *  0.939562 *  -3.33043    1.000000    
    287 O2    s    0.088884 *  0.333088 *  0.601861 *  -2.87073    1.000000    
    288 O2    s    0.241168 *  0.909091 *  0.267970 *  -2.87073    1.000000    
    289 O2    s    0.578333 *  0.555709 *  0.987513 *  -2.87073    1.000000    
    290 O2    s    0.442160 *  0.025219 *  0.320551 *  -2.87073    1.000000    
    291 O2    s    0.973421 *  0.417820 *  0.653711 *  -2.87073    1.000000    
    292 O2    s    0.411371 *  0.436091 *  0.485627 *  -2.87073    1.000000    
    293 O2    s    0.555085 *  0.972483 *  0.819559 *  -2.87073    1.000000    
    294 O2    s    0.024518 *  0.584397 *  0.153763 *  -2.87073    1.000000    
    295 O2    s    0.561813 *  0.586813 *  0.346816 *  -2.87073    1.000000    
    296 O2    s    0.024688 *  0.442734 *  0.013287 *  -2.87073    1.000000    
    297 O2    s    0.414938 *  0.975219 *  0.679207 *  -2.87073    1.000000    
    298 O2    s    0.442657 *  0.419227 *  0.845447 *  -2.87073    1.000000    
    299 O2    s    0.974032 *  0.555870 *  0.511854 *  -2.87073    1.000000    
    300 O2    s    0.583215 *  0.025227 *  0.179499 *  -2.87073    1.000000    
    301 O2    s    0.578229 *  0.156201 *  0.250059 *  -2.87073    1.000000    
    302 O2    s    0.842114 *  0.421810 *  0.582795 *  -2.87073    1.000000    
    303 O2    s    0.577412 *  0.421330 *  0.916591 *  -2.87073    1.000000    
    304 O2    s    0.418776 *  0.843284 *  0.749403 *  -2.87073    1.000000    
    305 O2    s    0.155404 *  0.580017 *  0.083303 *  -2.87073    1.000000    
    306 O2    s    0.419215 *  0.576140 *  0.416132 *  -2.87073    1.000000    
    307 F     s    0.451747 *  0.904739 *  0.250001 *  -1.56000    1.000000    
    308 F     s    0.093849 *  0.549168 *  0.582694 *  -1.56000    1.000000    
    309 F     s    0.454432 *  0.554066 *  0.915604 *  -1.56000    1.000000    
    310 F     s    0.546396 *  0.095987 *  0.749288 *  -1.56000    1.000000    
    311 F     s    0.902713 *  0.451968 *  0.084063 *  -1.56000    1.000000    
    312 F     s    0.547799 *  0.450843 *  0.416137 *  -1.56000    1.000000    
--------------------------------------------------------------------------------



********************************************************************************
*  General input information                                                   *
********************************************************************************

  Species output for all configurations : 

--------------------------------------------------------------------------------
  Species    Type    Atomic    Atomic    Charge       Radii (Angs)     Library
                     Number     Mass       (e)     Cova   Ionic  VDW   Symbol
--------------------------------------------------------------------------------
    Si       Core       14      28.09   4.000000   1.200  0.000  2.100          
    O1       Core        8      16.00   1.733957   0.730  0.000  1.360          
    O1       Shell       8       0.00  -3.733957   0.730  0.000  1.360          
    O2       Core        8      16.00   0.870733   0.730  0.000  1.360          
    O2       Shell       8       0.00  -2.870733   0.730  0.000  1.360          
    O3       Core        8      16.00   1.330431   0.730  0.000  1.360          
    O3       Shell       8       0.00  -3.330431   0.730  0.000  1.360          
    F        Core        9      19.00   0.560000   0.710  0.000  1.300          
    F        Shell       9       0.00  -1.560000   0.710  0.000  1.300          
    Ge       Core       32      72.61   4.000000   1.170  0.000  1.750          
--------------------------------------------------------------------------------


  Lattice summation method               =    Ewald          (3-D)
                                         =    Parry          (2-D)
                                         =    Saunders et al (1-D)
  Accuracy factor for lattice sums       =   12.000


  Time limit = Infinity

  Maximum range for interatomic potentials =        16.000000 Angstroms

  Taper potentials to zero over   1.0000 Angstroms using polynomial

  General interatomic potentials :

--------------------------------------------------------------------------------
Atom  Types   Potential         A         B         C         D     Cutoffs(Ang)
  1     2                                                            Min    Max 
--------------------------------------------------------------------------------
Si   c O1   s Buckingham    0.132E+04 0.318      10.1      0.00     0.000 16.000
Si   c O2   s Buckingham    0.132E+04 0.318      10.1      0.00     0.000 16.000
Si   c O3   s Buckingham    0.132E+04 0.318      10.1      0.00     0.000 16.000
Ge   c O1   s Buckingham    0.150E+04 0.326      16.8      0.00     0.000 16.000
Ge   c O2   s Buckingham    0.150E+04 0.326      16.8      0.00     0.000 16.000
Ge   c O3   s Buckingham    0.150E+04 0.326      16.8      0.00     0.000 16.000
O1   s O1   s Buckingham    0.228E+05 0.149      10.9      0.00     0.000 16.000
O1   s O2   s Buckingham    0.228E+05 0.149      10.9      0.00     0.000 16.000
O1   s O3   s Buckingham    0.228E+05 0.149      10.9      0.00     0.000 16.000
O2   s O2   s Buckingham    0.228E+05 0.149      10.9      0.00     0.000 16.000
O2   s O3   s Buckingham    0.228E+05 0.149      10.9      0.00     0.000 16.000
O3   s O3   s Buckingham    0.228E+05 0.149      10.9      0.00     0.000 16.000
Si   c F    s Buckingham     977.     0.282      0.00      0.00     0.000 16.000
Ge   c F    s Buckingham     681.     0.320      0.00      0.00     0.000 16.000
F    s F    s Buckingham     540.     0.262      0.00      0.00     0.000 16.000
O1   s F    s Buckingham    0.168E+04 0.268      0.00      0.00     0.000 16.000
O2   s F    s Buckingham    0.168E+04 0.268      0.00      0.00     0.000 16.000
O3   s F    s Buckingham    0.168E+04 0.268      0.00      0.00     0.000 16.000
O2   c O2   s Spring (c-s)   76.0      0.00      0.00      0.00     0.000  0.800
O3   c O3   s Spring (c-s)   128.      0.00      0.00      0.00     0.000  0.800
O1   c O1   s Spring (c-s)   180.      0.00      0.00      0.00     0.000  0.800
F    c F    s Spring (c-s)   33.5      0.00      0.00      0.00     0.000  0.800
--------------------------------------------------------------------------------

  General Three-body potentials :

  Harmonic form:

--------------------------------------------------------------------------------
Atom    Atom    Atom           Force Constants            Theta     Cutoffs  
  1       2       3     (eVrad**-2/eVrad**-3/eVrad**-4)   (deg)  1-2  1-3  2-3
--------------------------------------------------------------------------------
Si    c O1    s O1    s  1.261        0.0000    0.0000   109.470 0.00 0.00 0.00
                                                                 1.90 1.90 3.50
Si    c O1    s O2    s  1.261        0.0000    0.0000   109.470 0.00 0.00 0.00
                                                                 1.90 1.90 3.50
Si    c O2    s O2    s  1.261        0.0000    0.0000   109.470 0.00 0.00 0.00
                                                                 1.90 1.90 3.50
--------------------------------------------------------------------------------

********************************************************************************
*  Output for configuration   1                                                *
********************************************************************************


  Components of energy : 

--------------------------------------------------------------------------------
  Interatomic potentials     =        2060.70178435 eV
  Three-body potentials      =           0.41968526 eV
  Monopole - monopole (real) =       -6609.00137959 eV
  Monopole - monopole (recip)=       -3171.23758607 eV
  Monopole - monopole (total)=       -9780.23896566 eV
  Neutralising energy        =          -6.45980351 eV
--------------------------------------------------------------------------------
  Total lattice energy       =       -7725.57729957 eV
--------------------------------------------------------------------------------
  Total lattice energy       =         -745400.1131 kJ/(mole unit cells)
--------------------------------------------------------------------------------


  Number of variables =      939

  Maximum number of calculations  =          1000
  Maximum Hessian update interval =            10
  Maximum step size               =   1.000000000
  Maximum parameter tolerance     =   0.000010000
  Maximum function  tolerance     =   0.000010000
  Maximum gradient  tolerance     =   0.001000000
  Maximum gradient  component     =   0.010000000

  Symmetry not applied to optimisation

  Cell parameters to be optimised using strains

  Newton-Raphson optimiser to be used

  BFGS hessian update to be used

  Dumpfile to be written after every cycle

  Start of bulk optimisation :

  Cycle:      0 Energy:     -7725.577300  Gnorm:      0.004547  CPU:    1.125
  ** Hessian calculated **
  Cycle:      1 Energy:     -7725.577379  Gnorm:      0.002576  CPU:    2.711
  Cycle:      2 Energy:     -7725.577550  Gnorm:      0.006736  CPU:    4.421
  Cycle:      3 Energy:     -7725.578226  Gnorm:      0.006118  CPU:    6.791
  Cycle:      4 Energy:     -7725.578994  Gnorm:      0.004529  CPU:    8.844
  Cycle:      5 Energy:     -7725.579583  Gnorm:      0.005730  CPU:   10.554
  Cycle:      6 Energy:     -7725.580126  Gnorm:      0.006777  CPU:   12.264
  Cycle:      7 Energy:     -7725.580740  Gnorm:      0.008385  CPU:   13.645
  Cycle:      8 Energy:     -7725.581583  Gnorm:      0.008110  CPU:   15.025
  Cycle:      9 Energy:     -7725.582158  Gnorm:      0.006629  CPU:   16.405
  Cycle:     10 Energy:     -7725.582613  Gnorm:      0.006199  CPU:   17.785
  ** Hessian calculated **
  Cycle:     11 Energy:     -7725.582843  Gnorm:      0.003668  CPU:   20.178
  Cycle:     12 Energy:     -7725.583123  Gnorm:      0.006226  CPU:   21.557
  Cycle:     13 Energy:     -7725.583514  Gnorm:      0.004395  CPU:   22.937
  Cycle:     14 Energy:     -7725.583672  Gnorm:      0.003352  CPU:   24.332
  Cycle:     15 Energy:     -7725.583885  Gnorm:      0.005226  CPU:   25.711
  Cycle:     16 Energy:     -7725.584262  Gnorm:      0.005137  CPU:   27.421
  Cycle:     17 Energy:     -7725.584570  Gnorm:      0.004567  CPU:   28.801
  Cycle:     18 Energy:     -7725.584827  Gnorm:      0.003579  CPU:   30.341
  Cycle:     19 Energy:     -7725.585001  Gnorm:      0.003817  CPU:   31.721
  Cycle:     20 Energy:     -7725.585209  Gnorm:      0.003696  CPU:   33.102
  ** Hessian calculated **
  Cycle:     21 Energy:     -7725.585313  Gnorm:      0.002469  CPU:   35.333
  Cycle:     22 Energy:     -7725.585426  Gnorm:      0.003220  CPU:   36.713
  Cycle:     23 Energy:     -7725.585584  Gnorm:      0.003526  CPU:   38.094
  Cycle:     24 Energy:     -7725.585812  Gnorm:      0.004802  CPU:   39.474
  Cycle:     25 Energy:     -7725.586098  Gnorm:      0.004319  CPU:   40.854
  Cycle:     26 Energy:     -7725.586323  Gnorm:      0.004061  CPU:   42.234
  Cycle:     27 Energy:     -7725.586528  Gnorm:      0.004611  CPU:   43.614
  Cycle:     28 Energy:     -7725.586856  Gnorm:      0.005520  CPU:   44.994
  Cycle:     29 Energy:     -7725.587203  Gnorm:      0.005443  CPU:   46.374
  Cycle:     30 Energy:     -7725.587634  Gnorm:      0.007486  CPU:   47.754
  ** Hessian calculated **
  Cycle:     31 Energy:     -7725.587950  Gnorm:      0.004435  CPU:   49.986
  Cycle:     32 Energy:     -7725.588260  Gnorm:      0.005922  CPU:   51.366
  Cycle:     33 Energy:     -7725.588616  Gnorm:      0.005201  CPU:   52.746
  Cycle:     34 Energy:     -7725.588907  Gnorm:      0.004535  CPU:   54.126
  Cycle:     35 Energy:     -7725.589182  Gnorm:      0.004736  CPU:   55.506
  Cycle:     36 Energy:     -7725.589532  Gnorm:      0.005362  CPU:   56.886
  Cycle:     37 Energy:     -7725.589871  Gnorm:      0.004559  CPU:   58.266
  Cycle:     38 Energy:     -7725.590196  Gnorm:      0.004744  CPU:   59.646
  Cycle:     39 Energy:     -7725.590465  Gnorm:      0.003895  CPU:   61.026
  Cycle:     40 Energy:     -7725.590679  Gnorm:      0.004769  CPU:   62.407
  ** Hessian calculated **
  Cycle:     41 Energy:     -7725.590850  Gnorm:      0.003256  CPU:   64.638
  Cycle:     42 Energy:     -7725.591068  Gnorm:      0.004586  CPU:   66.019
  Cycle:     43 Energy:     -7725.591360  Gnorm:      0.004659  CPU:   67.399
  Cycle:     44 Energy:     -7725.591727  Gnorm:      0.005835  CPU:   68.779
  Cycle:     45 Energy:     -7725.592135  Gnorm:      0.005138  CPU:   70.159
  Cycle:     46 Energy:     -7725.592469  Gnorm:      0.005071  CPU:   71.539
  Cycle:     47 Energy:     -7725.592846  Gnorm:      0.006239  CPU:   72.920
  Cycle:     48 Energy:     -7725.593383  Gnorm:      0.007140  CPU:   74.300
  Cycle:     49 Energy:     -7725.593908  Gnorm:      0.006271  CPU:   75.680
  Cycle:     50 Energy:     -7725.594517  Gnorm:      0.009807  CPU:   77.221
  ** Hessian calculated **
  Cycle:     51 Energy:     -7725.595075  Gnorm:      0.005921  CPU:   79.456
  Cycle:     52 Energy:     -7725.595599  Gnorm:      0.007542  CPU:   80.837
  Cycle:     53 Energy:     -7725.596201  Gnorm:      0.006789  CPU:   82.305
  Cycle:     54 Energy:     -7725.596700  Gnorm:      0.005816  CPU:   83.686
  Cycle:     55 Energy:     -7725.597144  Gnorm:      0.005976  CPU:   85.065
  Cycle:     56 Energy:     -7725.597715  Gnorm:      0.007010  CPU:   86.446
  Cycle:     57 Energy:     -7725.598285  Gnorm:      0.006007  CPU:   87.826
  Cycle:     58 Energy:     -7725.598803  Gnorm:      0.006136  CPU:   89.206
  Cycle:     59 Energy:     -7725.599218  Gnorm:      0.004822  CPU:   90.586
  Cycle:     60 Energy:     -7725.599563  Gnorm:      0.006577  CPU:   91.966
  ** Hessian calculated **
  Cycle:     61 Energy:     -7725.599875  Gnorm:      0.004439  CPU:   94.197
  Cycle:     62 Energy:     -7725.600265  Gnorm:      0.006149  CPU:   95.577
  Cycle:     63 Energy:     -7725.600774  Gnorm:      0.006162  CPU:   96.958
  Cycle:     64 Energy:     -7725.601400  Gnorm:      0.007564  CPU:   98.338
  Cycle:     65 Energy:     -7725.602085  Gnorm:      0.006679  CPU:   99.718
  Cycle:     66 Energy:     -7725.602651  Gnorm:      0.006570  CPU:  101.098
  Cycle:     67 Energy:     -7725.603302  Gnorm:      0.008094  CPU:  102.479
  Cycle:     68 Energy:     -7725.604190  Gnorm:      0.009111  CPU:  103.859
  Cycle:     69 Energy:     -7725.605043  Gnorm:      0.008006  CPU:  105.239
  Cycle:     70 Energy:     -7725.606039  Gnorm:      0.012657  CPU:  106.619
  ** Hessian calculated **
  Cycle:     71 Energy:     -7725.606987  Gnorm:      0.007716  CPU:  108.851
  Cycle:     72 Energy:     -7725.607863  Gnorm:      0.009607  CPU:  110.231
  Cycle:     73 Energy:     -7725.608848  Gnorm:      0.008676  CPU:  111.611
  Cycle:     74 Energy:     -7725.609661  Gnorm:      0.007393  CPU:  112.991
  Cycle:     75 Energy:     -7725.610382  Gnorm:      0.007617  CPU:  114.371
  Cycle:     76 Energy:     -7725.611309  Gnorm:      0.008889  CPU:  115.752
  Cycle:     77 Energy:     -7725.612214  Gnorm:      0.007611  CPU:  117.282
  Cycle:     78 Energy:     -7725.613014  Gnorm:      0.007696  CPU:  118.662
  Cycle:     79 Energy:     -7725.613654  Gnorm:      0.005999  CPU:  120.043
  Cycle:     80 Energy:     -7725.614191  Gnorm:      0.008457  CPU:  121.423
  ** Hessian calculated **
  Cycle:     81 Energy:     -7725.614694  Gnorm:      0.005670  CPU:  123.655
  Cycle:     82 Energy:     -7725.615313  Gnorm:      0.007762  CPU:  125.036
  Cycle:     83 Energy:     -7725.616104  Gnorm:      0.007669  CPU:  126.416
  Cycle:     84 Energy:     -7725.617064  Gnorm:      0.009322  CPU:  127.796
  Cycle:     85 Energy:     -7725.618102  Gnorm:      0.008203  CPU:  129.177
  Cycle:     86 Energy:     -7725.618949  Gnorm:      0.007999  CPU:  130.557
  Cycle:     87 Energy:     -7725.619909  Gnorm:      0.009689  CPU:  131.937
  Cycle:     88 Energy:     -7725.621145  Gnorm:      0.010617  CPU:  133.318
  Cycle:     89 Energy:     -7725.622289  Gnorm:      0.009218  CPU:  134.698
  Cycle:     90 Energy:     -7725.623570  Gnorm:      0.014202  CPU:  136.078
  ** Hessian calculated **
  Cycle:     91 Energy:     -7725.624786  Gnorm:      0.008763  CPU:  138.310
  Cycle:     92 Energy:     -7725.625910  Gnorm:      0.010768  CPU:  139.690
  Cycle:     93 Energy:     -7725.627149  Gnorm:      0.009700  CPU:  141.071
  Cycle:     94 Energy:     -7725.628164  Gnorm:      0.008277  CPU:  142.451
  Cycle:     95 Energy:     -7725.629064  Gnorm:      0.008495  CPU:  143.832
  Cycle:     96 Energy:     -7725.630209  Gnorm:      0.009799  CPU:  145.212
  Cycle:     97 Energy:     -7725.631290  Gnorm:      0.008282  CPU:  146.593
  Cycle:     98 Energy:     -7725.632206  Gnorm:      0.008251  CPU:  147.973
  Cycle:     99 Energy:     -7725.632922  Gnorm:      0.006334  CPU:  149.354
  Cycle:    100 Energy:     -7725.633508  Gnorm:      0.008938  CPU:  150.734
  ** Hessian calculated **
  Cycle:    101 Energy:     -7725.640988  Gnorm:      0.008868  CPU:  154.412
  Cycle:    102 Energy:     -7725.650609  Gnorm:      0.008706  CPU:  156.782
  Cycle:    103 Energy:     -7725.659153  Gnorm:      0.008361  CPU:  158.823
  Cycle:    104 Energy:     -7725.670743  Gnorm:      0.007667  CPU:  161.194
  Cycle:    105 Energy:     -7725.682954  Gnorm:      0.006715  CPU:  163.235
  Cycle:    106 Energy:     -7725.696068  Gnorm:      0.005264  CPU:  165.414
  Cycle:    107 Energy:     -7725.708764  Gnorm:      0.003191  CPU:  167.455
  Cycle:    108 Energy:     -7725.713684  Gnorm:      0.001595  CPU:  169.167
  Cycle:    109 Energy:     -7725.713684  Gnorm:      0.001595  CPU:  170.548
  ** Hessian calculated **
  Cycle:    110 Energy:     -7725.714041  Gnorm:      0.000048  CPU:  173.111


  **** Optimisation achieved ****


  Final energy =   -7725.71404103 eV
  Final Gnorm  =       0.00000101

  Components of energy : 

--------------------------------------------------------------------------------
  Interatomic potentials     =        2060.52457261 eV
  Three-body potentials      =           0.44876787 eV
  Monopole - monopole (real) =       -6610.66789332 eV
  Monopole - monopole (recip)=       -3169.56309271 eV
  Monopole - monopole (total)=       -9780.23098603 eV
  Neutralising energy        =          -6.45639548 eV
--------------------------------------------------------------------------------
  Total lattice energy       =       -7725.71404103 eV
--------------------------------------------------------------------------------
  Total lattice energy       =         -745413.3066 kJ/(mole unit cells)
--------------------------------------------------------------------------------

  Final fractional coordinates of atoms :

--------------------------------------------------------------------------------
   No.  Atomic        x           y          z          Radius
        Label       (Frac)      (Frac)     (Frac)       (Angs) 
--------------------------------------------------------------------------------
     1  Si    c     0.699600    0.375700    0.033890    0.000000
     2  Si    c     0.607857    0.314995    0.365719    0.000000
     3  Si    c     0.655220    0.279832    0.698579    0.000000
     4  Si    c     0.277308    0.606145    0.532892    0.000000
     5  Si    c     0.363527    0.668844    0.863778    0.000000
     6  Si    c     0.314324    0.698396    0.199784    0.000000
     7  Si    c     0.366345    0.695772    0.300319    0.000000
     8  Si    c     0.316771    0.619070    0.967199    0.000000
     9  Si    c     0.273934    0.661895    0.632802    0.000000
    10  Si    c     0.598897    0.273879    0.799071    0.000000
    11  Si    c     0.654872    0.361692    0.466786    0.000000
    12  Si    c     0.695738    0.318754    0.134388    0.000000
    13  Si    c     0.525342    0.406970    0.968009    0.000000
    14  Si    c     0.571635    0.106300    0.301084    0.000000
    15  Si    c     0.864816    0.455865    0.633203    0.000000
    16  Si    c     0.445766    0.565535    0.466890    0.000000
    17  Si    c     0.389309    0.869574    0.799008    0.000000
    18  Si    c     0.106685    0.526729    0.134505    0.000000
    19  Si    c     0.402353    0.521356    0.365043    0.000000
    20  Si    c     0.106958    0.579497    0.032968    0.000000
    21  Si    c     0.445413    0.870447    0.697802    0.000000
    22  Si    c     0.576323    0.456067    0.863742    0.000000
    23  Si    c     0.864074    0.401327    0.531887    0.000000
    24  Si    c     0.521134    0.107711    0.199514    0.000000
    25  Si    c     0.290302    0.386785    0.848551    0.000000
    26  Si    c     0.593326    0.900071    0.185228    0.000000
    27  Si    c     0.076036    0.680609    0.516767    0.000000
    28  Si    c     0.684791    0.593438    0.352270    0.000000
    29  Si    c     0.376748    0.080689    0.684139    0.000000
    30  Si    c     0.900142    0.298349    0.018845    0.000000
    31  Si    c     0.375429    0.284982    0.479915    0.000000
    32  Si    c     0.896572    0.596971    0.148810    0.000000
    33  Si    c     0.672650    0.071262    0.814751    0.000000
    34  Si    c     0.595840    0.691588    0.984682    0.000000
    35  Si    c     0.072365    0.383004    0.648515    0.000000
    36  Si    c     0.289799    0.896587    0.315432    0.000000
    37  Ge    c     0.239786    0.326825    0.952327    0.000000
    38  Si    c     0.648522    0.905171    0.285762    0.000000
    39  Si    c     0.065698    0.735104    0.616702    0.000000
    40  Si    c     0.724983    0.641895    0.453252    0.000000
    41  Si    c     0.315529    0.072383    0.784428    0.000000
    42  Si    c     0.905897    0.247634    0.119553    0.000000
    43  Si    c     0.326136    0.242769    0.378843    0.000000
    44  Si    c     0.905635    0.656701    0.048236    0.000000
    45  Si    c     0.724757    0.069268    0.713636    0.000000
    46  Ge    c     0.630606    0.720129    0.884480    0.000000
    47  Si    c     0.066399    0.326530    0.548020    0.000000
    48  Si    c     0.241726    0.906053    0.214821    0.000000
    49  Si    c     0.952932    0.108337    0.966982    0.000000
    50  Si    c     0.864998    0.841447    0.300235    0.000000
    51  Si    c     0.129662    0.015411    0.634100    0.000000
    52  Ge    c     0.008071    0.864196    0.467166    0.000000
    53  Si    c     0.101448    0.139107    0.800329    0.000000
    54  Si    c     0.842929    0.967928    0.134847    0.000000
    55  Si    c     0.108574    0.965466    0.364334    0.000000
    56  Si    c     0.837049    0.868883    0.035028    0.000000
    57  Si    c     0.006215    0.134818    0.699517    0.000000
    58  Si    c     0.855353    0.007694    0.866718    0.000000
    59  Si    c     0.128334    0.109853    0.533388    0.000000
    60  Si    c     0.961417    0.843133    0.199483    0.000000
    61  O2    c     0.902348    0.985924    0.999852    0.000000
    62  O2    c     0.988763    0.922849    0.331015    0.000000
    63  O2    c     0.050403    0.054747    0.668160    0.000000
    64  O3    c     0.042418    0.987462    0.503654    0.000000
    65  O2    c     0.983533    0.067096    0.834898    0.000000
    66  O2    c     0.921859    0.924919    0.167104    0.000000
    67  O2    c     0.327413    0.571525    0.332546    0.000000
    68  O2    c     0.396097    0.745656    0.665483    0.000000
    69  O2    c     0.231998    0.657348    0.999932    0.000000
    70  O2    c     0.642646    0.394973    0.832546    0.000000
    71  O2    c     0.571581    0.233805    0.167024    0.000000
    72  O2    c     0.738517    0.323176    0.499810    0.000000
    73  O2    c     0.578396    0.335089    0.000504    0.000000
    74  O2    c     0.739211    0.404550    0.666087    0.000000
    75  O2    c     0.647992    0.231609    0.333138    0.000000
    76  O2    c     0.399663    0.642979    0.499734    0.000000
    77  O2    c     0.231423    0.576114    0.166929    0.000000
    78  O2    c     0.311151    0.743415    0.831695    0.000000
    79  O3    c     0.106535    0.190432    0.973495    0.000000
    80  O2    c     0.774059    0.904506    0.305857    0.000000
    81  O2    c     0.064657    0.860402    0.636757    0.000000
    82  O3    c     0.844475    0.765396    0.474960    0.000000
    83  O2    c     0.189822    0.072791    0.804966    0.000000
    84  O2    c     0.906583    0.122119    0.139974    0.000000
    85  O2    c     0.202067    0.118996    0.357093    0.000000
    86  O2    c     0.907002    0.784081    0.028726    0.000000
    87  O2    c     0.851840    0.069833    0.693620    0.000000
    88  O3    c     0.775361    0.858348    0.862816    0.000000
    89  O2    c     0.067564    0.202367    0.527746    0.000000
    90  O2    c     0.116145    0.907166    0.194893    0.000000
    91  O2    c     0.915276    0.851703    0.249394    0.000000
    92  O2    c     0.120051    0.063446    0.584717    0.000000
    93  O2    c     0.911058    0.061553    0.916524    0.000000
    94  O2    c     0.044682    0.124746    0.750440    0.000000
    95  O2    c     0.858199    0.928971    0.084528    0.000000
    96  O3    c     0.051559    0.931676    0.414183    0.000000
    97  O2    c     0.897574    0.202899    0.979830    0.000000
    98  O2    c     0.784237    0.690959    0.313979    0.000000
    99  O2    c     0.280972    0.082573    0.645786    0.000000
   100  O3    c     0.083256    0.776852    0.477226    0.000000
   101  O2    c     0.193277    0.291893    0.809984    0.000000
   102  O2    c     0.690900    0.899185    0.146868    0.000000
   103  O2    c     0.190561    0.894311    0.353843    0.000000
   104  O2    c     0.683771    0.776568    0.027220    0.000000
   105  O2    c     0.074192    0.286241    0.686770    0.000000
   106  O2    c     0.766182    0.070258    0.853625    0.000000
   107  O2    c     0.278612    0.185428    0.518136    0.000000
   108  O2    c     0.893442    0.692369    0.186972    0.000000
   109  O2    c     0.311223    0.639687    0.250031    0.000000
   110  O2    c     0.334049    0.662357    0.582950    0.000000
   111  O2    c     0.313447    0.667051    0.915884    0.000000
   112  O2    c     0.655142    0.335064    0.748932    0.000000
   113  O2    c     0.639678    0.318259    0.084057    0.000000
   114  O2    c     0.660330    0.309985    0.416184    0.000000
   115  O3    c     0.371524    0.317286    0.970230    0.000000
   116  O2    c     0.658700    0.037247    0.304042    0.000000
   117  O2    c     0.933058    0.612020    0.635537    0.000000
   118  O2    c     0.601234    0.651348    0.470089    0.000000
   119  O2    c     0.301613    0.937703    0.801985    0.000000
   120  O2    c     0.038293    0.370547    0.137341    0.000000
   121  O2    c     0.316576    0.365538    0.360905    0.000000
   122  O2    c     0.037681    0.666080    0.029376    0.000000
   123  O2    c     0.601986    0.938908    0.694520    0.000000
   124  O3    c     0.665612    0.607919    0.858627    0.000000
   125  O2    c     0.933772    0.315054    0.529461    0.000000
   126  O2    c     0.364725    0.038914    0.196327    0.000000
   127  O2    c     0.768013    0.301439    0.011567    0.000000
   128  O2    c     0.684127    0.459522    0.344051    0.000000
   129  O2    c     0.512557    0.212910    0.675929    0.000000
   130  O2    c     0.210700    0.681467    0.510262    0.000000
   131  O2    c     0.293779    0.522695    0.844014    0.000000
   132  O2    c     0.458612    0.766971    0.177564    0.000000
   133  O2    c     0.290379    0.762929    0.322757    0.000000
   134  O2    c     0.460843    0.693380    0.988236    0.000000
   135  O2    c     0.204985    0.518618    0.655486    0.000000
   136  O2    c     0.673797    0.205849    0.820877    0.000000
   137  O2    c     0.509321    0.284979    0.487798    0.000000
   138  O2    c     0.763174    0.461810    0.156323    0.000000
   139  O2    c     0.778893    0.531926    0.028762    0.000000
   140  O2    c     0.452249    0.241820    0.359834    0.000000
   141  O2    c     0.728869    0.197482    0.694375    0.000000
   142  O2    c     0.194421    0.450734    0.528431    0.000000
   143  O3    c     0.516696    0.749373    0.857167    0.000000
   144  O2    c     0.240173    0.780081    0.194991    0.000000
   145  O2    c     0.522378    0.778299    0.305169    0.000000
   146  O3    c     0.251066    0.465822    0.972291    0.000000
   147  O2    c     0.192303    0.736469    0.636030    0.000000
   148  O2    c     0.442211    0.196034    0.804510    0.000000
   149  O2    c     0.726645    0.516598    0.472445    0.000000
   150  O2    c     0.779072    0.246344    0.139057    0.000000
   151  O3    c     0.221517    0.314044    0.894772    0.000000
   152  O2    c     0.667267    0.904300    0.231496    0.000000
   153  O2    c     0.067224    0.753423    0.562113    0.000000
   154  O2    c     0.753738    0.664563    0.399005    0.000000
   155  O2    c     0.300597    0.077621    0.730177    0.000000
   156  O2    c     0.904246    0.228167    0.065328    0.000000
   157  O2    c     0.303968    0.217446    0.433011    0.000000
   158  O2    c     0.902673    0.672519    0.102489    0.000000
   159  O2    c     0.740860    0.065920    0.767802    0.000000
   160  O3    c     0.679088    0.768126    0.941331    0.000000
   161  O2    c     0.067454    0.308942    0.602268    0.000000
   162  O2    c     0.220995    0.902436    0.269073    0.000000
   163  O2    c     0.570685    0.546295    0.990321    0.000000
   164  O2    c     0.429706    0.021222    0.324230    0.000000
   165  O2    c     0.947745    0.398512    0.656782    0.000000
   166  O2    c     0.386900    0.422702    0.488955    0.000000
   167  O2    c     0.528999    0.951108    0.822696    0.000000
   168  O2    c     0.021574    0.582568    0.157544    0.000000
   169  O2    c     0.546358    0.581769    0.343345    0.000000
   170  O2    c     0.027524    0.437646    0.010161    0.000000
   171  O2    c     0.387980    0.954192    0.675003    0.000000
   172  O2    c     0.431991    0.404277    0.843200    0.000000
   173  O2    c     0.949141    0.541955    0.508064    0.000000
   174  O2    c     0.579724    0.025400    0.176233    0.000000
   175  O2    c     0.572893    0.160021    0.250223    0.000000
   176  O2    c     0.811030    0.402266    0.582696    0.000000
   177  O2    c     0.574753    0.410379    0.916372    0.000000
   178  O2    c     0.390640    0.816121    0.748520    0.000000
   179  O2    c     0.160806    0.580919    0.083625    0.000000
   180  O2    c     0.395538    0.568879    0.416013    0.000000
   181  F     c     0.441458    0.898789    0.249848    0.000000
   182  F     c     0.072901    0.534674    0.581946    0.000000
   183  F     c     0.478134    0.571768    0.911455    0.000000
   184  F     c     0.521457    0.077042    0.748220    0.000000
   185  F     c     0.899468    0.449408    0.083014    0.000000
   186  F     c     0.529772    0.439593    0.415698    0.000000
   187  O2    s     0.900557    0.986316    0.000187    0.000000
   188  O2    s     0.987982    0.918306    0.331205    0.000000
   189  O2    s     0.054260    0.059277    0.667874    0.000000
   190  O3    s     0.048813    0.990077    0.503712    0.000000
   191  O2    s     0.983654    0.069163    0.834255    0.000000
   192  O2    s     0.917430    0.920605    0.167105    0.000000
   193  O2    s     0.339147    0.579207    0.332549    0.000000
   194  O2    s     0.388539    0.749864    0.665425    0.000000
   195  O2    s     0.227916    0.645470    0.999940    0.000000
   196  O2    s     0.630952    0.388809    0.832365    0.000000
   197  O2    s     0.579243    0.229652    0.166971    0.000000
   198  O2    s     0.742729    0.335071    0.499684    0.000000
   199  O2    s     0.585422    0.346828    0.000589    0.000000
   200  O2    s     0.743590    0.397067    0.666032    0.000000
   201  O2    s     0.636045    0.227232    0.333174    0.000000
   202  O2    s     0.391758    0.631109    0.499768    0.000000
   203  O2    s     0.227004    0.583516    0.166948    0.000000
   204  O2    s     0.324198    0.748544    0.831658    0.000000
   205  O3    s     0.102397    0.193524    0.971157    0.000000
   206  O2    s     0.770662    0.897901    0.303204    0.000000
   207  O2    s     0.071604    0.863802    0.634428    0.000000
   208  O3    s     0.845942    0.761068    0.472124    0.000000
   209  O2    s     0.193628    0.079737    0.802367    0.000000
   210  O2    s     0.899806    0.118826    0.137352    0.000000
   211  O2    s     0.205136    0.115711    0.360086    0.000000
   212  O2    s     0.899596    0.779774    0.031371    0.000000
   213  O2    s     0.855119    0.076650    0.696272    0.000000
   214  O3    s     0.775019    0.866264    0.864634    0.000000
   215  O2    s     0.073940    0.205696    0.530479    0.000000
   216  O2    s     0.112657    0.900234    0.197415    0.000000
   217  O2    s     0.914853    0.849559    0.249453    0.000000
   218  O2    s     0.122087    0.063153    0.584607    0.000000
   219  O2    s     0.910068    0.061297    0.917117    0.000000
   220  O2    s     0.046714    0.127499    0.750274    0.000000
   221  O2    s     0.854085    0.926593    0.084635    0.000000
   222  O3    s     0.053936    0.929442    0.413402    0.000000
   223  O2    s     0.903610    0.203110    0.982593    0.000000
   224  O2    s     0.782658    0.697041    0.316443    0.000000
   225  O2    s     0.274580    0.075169    0.648477    0.000000
   226  O3    s     0.076335    0.774880    0.480174    0.000000
   227  O2    s     0.193854    0.285984    0.812923    0.000000
   228  O2    s     0.697124    0.906609    0.149509    0.000000
   229  O2    s     0.192143    0.901874    0.351048    0.000000
   230  O2    s     0.691062    0.777761    0.023857    0.000000
   231  O2    s     0.066846    0.280230    0.684180    0.000000
   232  O2    s     0.765169    0.064118    0.850804    0.000000
   233  O2    s     0.272795    0.187756    0.515769    0.000000
   234  O2    s     0.900998    0.698553    0.184360    0.000000
   235  O2    s     0.317150    0.651407    0.250014    0.000000
   236  O2    s     0.322138    0.656560    0.582890    0.000000
   237  O2    s     0.318739    0.662266    0.916088    0.000000
   238  O2    s     0.649395    0.323153    0.748864    0.000000
   239  O2    s     0.651491    0.324168    0.084069    0.000000
   240  O2    s     0.654438    0.315746    0.416190    0.000000
   241  O3    s     0.375969    0.326896    0.968556    0.000000
   242  O2    s     0.648704    0.030534    0.301819    0.000000
   243  O2    s     0.939813    0.608765    0.633329    0.000000
   244  O2    s     0.597812    0.641177    0.467935    0.000000
   245  O2    s     0.312139    0.944744    0.799825    0.000000
   246  O2    s     0.031491    0.373743    0.135178    0.000000
   247  O2    s     0.326459    0.368762    0.363228    0.000000
   248  O2    s     0.030980    0.656154    0.031733    0.000000
   249  O2    s     0.598721    0.945476    0.696855    0.000000
   250  O3    s     0.653892    0.600364    0.861027    0.000000
   251  O2    s     0.940429    0.325179    0.531663    0.000000
   252  O2    s     0.367976    0.032126    0.198593    0.000000
   253  O2    s     0.774988    0.308893    0.014722    0.000000
   254  O2    s     0.676344    0.458627    0.347173    0.000000
   255  O2    s     0.512825    0.205781    0.679151    0.000000
   256  O2    s     0.203401    0.673455    0.513377    0.000000
   257  O2    s     0.300520    0.523055    0.846525    0.000000
   258  O2    s     0.457958    0.773943    0.180691    0.000000
   259  O2    s     0.298107    0.770058    0.319657    0.000000
   260  O2    s     0.459586    0.685497    0.985642    0.000000
   261  O2    s     0.198098    0.519064    0.652391    0.000000
   262  O2    s     0.665800    0.198791    0.817899    0.000000
   263  O2    s     0.510341    0.292904    0.484759    0.000000
   264  O2    s     0.770296    0.461315    0.153236    0.000000
   265  O2    s     0.784375    0.529182    0.031348    0.000000
   266  O2    s     0.454922    0.249710    0.362486    0.000000
   267  O2    s     0.720671    0.192166    0.696860    0.000000
   268  O2    s     0.189113    0.453617    0.531018    0.000000
   269  O3    s     0.509578    0.738886    0.859840    0.000000
   270  O2    s     0.248154    0.785253    0.197600    0.000000
   271  O2    s     0.519735    0.783534    0.302579    0.000000
   272  O3    s     0.256711    0.469219    0.970096    0.000000
   273  O2    s     0.187054    0.728443    0.633623    0.000000
   274  O2    s     0.444743    0.190703    0.801820    0.000000
   275  O2    s     0.718774    0.513679    0.469800    0.000000
   276  O2    s     0.784220    0.254138    0.136481    0.000000
   277  O3    s     0.229966    0.322415    0.895027    0.000000
   278  O2    s     0.657507    0.903958    0.232381    0.000000
   279  O2    s     0.067884    0.744268    0.563191    0.000000
   280  O2    s     0.743728    0.654887    0.399657    0.000000
   281  O2    s     0.310123    0.077390    0.731134    0.000000
   282  O2    s     0.903997    0.237564    0.066206    0.000000
   283  O2    s     0.313681    0.227052    0.432233    0.000000
   284  O2    s     0.902350    0.662873    0.101596    0.000000
   285  O2    s     0.732030    0.066817    0.766904    0.000000
   286  O3    s     0.667128    0.756877    0.941797    0.000000
   287  O2    s     0.067845    0.318639    0.601378    0.000000
   288  O2    s     0.230399    0.902213    0.268158    0.000000
   289  O2    s     0.568413    0.546908    0.987367    0.000000
   290  O2    s     0.429476    0.016519    0.320865    0.000000
   291  O2    s     0.952791    0.402987    0.653422    0.000000
   292  O2    s     0.391985    0.422774    0.485654    0.000000
   293  O2    s     0.529760    0.955720    0.819319    0.000000
   294  O2    s     0.016820    0.578099    0.154182    0.000000
   295  O2    s     0.546160    0.576547    0.346576    0.000000
   296  O2    s     0.022105    0.437471    0.013428    0.000000
   297  O2    s     0.392975    0.959179    0.678391    0.000000
   298  O2    s     0.430966    0.407735    0.845843    0.000000
   299  O2    s     0.953935    0.542064    0.511476    0.000000
   300  O2    s     0.574907    0.020324    0.179632    0.000000
   301  O2    s     0.567383    0.149028    0.250212    0.000000
   302  O2    s     0.822074    0.407702    0.582629    0.000000
   303  O2    s     0.569792    0.414595    0.916562    0.000000
   304  O2    s     0.396187    0.827283    0.748477    0.000000
   305  O2    s     0.149670    0.575188    0.083632    0.000000
   306  O2    s     0.401402    0.563602    0.415980    0.000000
   307  F     s     0.441254    0.898417    0.249802    0.000000
   308  F     s     0.073259    0.535016    0.581858    0.000000
   309  F     s     0.485927    0.579622    0.910127    0.000000
   310  F     s     0.521371    0.077466    0.748155    0.000000
   311  F     s     0.899130    0.449321    0.082914    0.000000
   312  F     s     0.529992    0.439457    0.415661    0.000000
--------------------------------------------------------------------------------

  Final Cartesian lattice vectors (Angstroms) :

       11.967806   -0.017517    0.023417
       -6.008445   10.385955    0.010428
        0.119103    0.180773   29.495212


  Final cell parameters and derivatives :

--------------------------------------------------------------------------------
       a           11.967841 Angstrom     dE/de1(xx)    -0.000010 eV/strain
       b           11.998732 Angstrom     dE/de2(yy)     0.000006 eV/strain
       c           29.496007 Angstrom     dE/de3(zz)    -0.000025 eV/strain
       alpha       89.762105 Degrees      dE/de4(yz)    -0.000018 eV/strain
       beta        89.657049 Degrees      dE/de5(xz)    -0.000010 eV/strain
       gamma      120.133758 Degrees      dE/de6(xy)     0.000026 eV/strain
--------------------------------------------------------------------------------

  Primitive cell volume =          3662.987708 Angs**3

  Density of cell =      1.746687 g/cm**3

  Non-primitive cell volume =          3662.987708 Angs**3


  Final internal derivatives :

--------------------------------------------------------------------------------
   No.  Atomic          a             b             c           Radius
        Label          (eV)          (eV)          (eV)        (eV/Angs)
--------------------------------------------------------------------------------
      1 Si    c       0.000000      0.000000      0.000000      0.000000
      2 Si    c       0.000001     -0.000000     -0.000010      0.000000
      3 Si    c      -0.000000      0.000004     -0.000005      0.000000
      4 Si    c       0.000003     -0.000002     -0.000016      0.000000
      5 Si    c      -0.000023      0.000023     -0.000052      0.000000
      6 Si    c       0.000000      0.000002     -0.000002      0.000000
      7 Si    c      -0.000002     -0.000000      0.000012      0.000000
      8 Si    c      -0.000015      0.000000      0.000009      0.000000
      9 Si    c      -0.000000     -0.000003     -0.000004      0.000000
     10 Si    c      -0.000005      0.000016      0.000023      0.000000
     11 Si    c      -0.000002      0.000001     -0.000004      0.000000
     12 Si    c      -0.000001      0.000003     -0.000037      0.000000
     13 Si    c       0.000044     -0.000048      0.000086      0.000000
     14 Si    c       0.000001     -0.000000      0.000003      0.000000
     15 Si    c      -0.000004      0.000004      0.000007      0.000000
     16 Si    c      -0.000003      0.000001      0.000006      0.000000
     17 Si    c       0.000009     -0.000019      0.000020      0.000000
     18 Si    c      -0.000001      0.000001     -0.000014      0.000000
     19 Si    c      -0.000000     -0.000000     -0.000001      0.000000
     20 Si    c       0.000003      0.000001     -0.000007      0.000000
     21 Si    c      -0.000001      0.000001      0.000007      0.000000
     22 Si    c       0.000042     -0.000014     -0.000074      0.000000
     23 Si    c       0.000003      0.000001      0.000001      0.000000
     24 Si    c       0.000001      0.000001     -0.000008      0.000000
     25 Si    c      -0.000017     -0.000003     -0.000006      0.000000
     26 Si    c       0.000001      0.000000     -0.000010      0.000000
     27 Si    c      -0.000001      0.000001     -0.000004      0.000000
     28 Si    c       0.000004     -0.000001     -0.000005      0.000000
     29 Si    c       0.000003     -0.000002      0.000009      0.000000
     30 Si    c      -0.000005     -0.000001      0.000007      0.000000
     31 Si    c      -0.000002      0.000001      0.000002      0.000000
     32 Si    c      -0.000005      0.000001     -0.000009      0.000000
     33 Si    c      -0.000003      0.000002      0.000007      0.000000
     34 Si    c       0.000008      0.000027      0.000014      0.000000
     35 Si    c       0.000001     -0.000001      0.000003      0.000000
     36 Si    c      -0.000002     -0.000001      0.000007      0.000000
     37 Ge    c      -0.000006     -0.000009     -0.000037      0.000000
     38 Si    c      -0.000004      0.000002     -0.000002      0.000000
     39 Si    c      -0.000004      0.000002     -0.000000      0.000000
     40 Si    c      -0.000000     -0.000001     -0.000003      0.000000
     41 Si    c      -0.000005      0.000001     -0.000001      0.000000
     42 Si    c      -0.000004     -0.000002     -0.000004      0.000000
     43 Si    c       0.000000      0.000001      0.000001      0.000000
     44 Si    c       0.000002      0.000001      0.000016      0.000000
     45 Si    c       0.000002      0.000000     -0.000008      0.000000
     46 Ge    c       0.000250      0.000217     -0.000515      0.000000
     47 Si    c       0.000004     -0.000003     -0.000000      0.000000
     48 Si    c       0.000003     -0.000001      0.000004      0.000000
     49 Si    c      -0.000007     -0.000006     -0.000074      0.000000
     50 Si    c      -0.000002     -0.000005     -0.000015      0.000000
     51 Si    c      -0.000006      0.000002     -0.000006      0.000000
     52 Ge    c       0.000002      0.000002     -0.000016      0.000000
     53 Si    c       0.000011     -0.000007     -0.000007      0.000000
     54 Si    c      -0.000007      0.000005      0.000005      0.000000
     55 Si    c       0.000004     -0.000003      0.000009      0.000000
     56 Si    c      -0.000002     -0.000012     -0.000008      0.000000
     57 Si    c       0.000005     -0.000001      0.000016      0.000000
     58 Si    c      -0.000030      0.000000      0.000040      0.000000
     59 Si    c      -0.000002      0.000001      0.000007      0.000000
     60 Si    c       0.000003     -0.000002      0.000014      0.000000
     61 O2    c       0.000001      0.000004     -0.000017      0.000000
     62 O2    c       0.000004      0.000002      0.000008      0.000000
     63 O2    c       0.000004     -0.000003     -0.000010      0.000000
     64 O3    c       0.000001      0.000001     -0.000004      0.000000
     65 O2    c       0.000010     -0.000004     -0.000017      0.000000
     66 O2    c       0.000000      0.000000      0.000000      0.000000
     67 O2    c      -0.000000      0.000003     -0.000007      0.000000
     68 O2    c       0.000002     -0.000000      0.000001      0.000000
     69 O2    c       0.000002     -0.000008     -0.000003      0.000000
     70 O2    c      -0.000017      0.000012      0.000005      0.000000
     71 O2    c       0.000004     -0.000002      0.000003      0.000000
     72 O2    c      -0.000001     -0.000002     -0.000003      0.000000
     73 O2    c      -0.000023      0.000034     -0.000040      0.000000
     74 O2    c       0.000002     -0.000001     -0.000000      0.000000
     75 O2    c      -0.000001      0.000001      0.000000      0.000000
     76 O2    c      -0.000002     -0.000001     -0.000003      0.000000
     77 O2    c       0.000002      0.000003      0.000009      0.000000
     78 O2    c       0.000014      0.000003     -0.000013      0.000000
     79 O3    c       0.000009      0.000011     -0.000031      0.000000
     80 O2    c       0.000003     -0.000001      0.000006      0.000000
     81 O2    c       0.000001      0.000002      0.000001      0.000000
     82 O3    c       0.000001      0.000001      0.000007      0.000000
     83 O2    c      -0.000008      0.000007     -0.000004      0.000000
     84 O2    c      -0.000001      0.000004     -0.000001      0.000000
     85 O2    c       0.000001     -0.000002      0.000002      0.000000
     86 O2    c      -0.000018      0.000016      0.000013      0.000000
     87 O2    c      -0.000003      0.000001      0.000002      0.000000
     88 O3    c      -0.000015      0.000032      0.000034      0.000000
     89 O2    c       0.000002     -0.000001      0.000004      0.000000
     90 O2    c      -0.000001      0.000000     -0.000001      0.000000
     91 O2    c      -0.000000      0.000000      0.000005      0.000000
     92 O2    c       0.000001     -0.000003      0.000015      0.000000
     93 O2    c       0.000011      0.000006      0.000125      0.000000
     94 O2    c      -0.000004      0.000000     -0.000031      0.000000
     95 O2    c       0.000001     -0.000002     -0.000015      0.000000
     96 O3    c      -0.000005     -0.000003      0.000034      0.000000
     97 O2    c       0.000003     -0.000008      0.000008      0.000000
     98 O2    c       0.000000      0.000001      0.000008      0.000000
     99 O2    c      -0.000001      0.000001     -0.000004      0.000000
    100 O3    c       0.000001     -0.000002      0.000006      0.000000
    101 O2    c      -0.000002     -0.000007      0.000004      0.000000
    102 O2    c      -0.000001      0.000001      0.000002      0.000000
    103 O2    c      -0.000000      0.000000     -0.000002      0.000000
    104 O2    c       0.000010      0.000004     -0.000005      0.000000
    105 O2    c       0.000000     -0.000004      0.000004      0.000000
    106 O2    c       0.000022     -0.000019      0.000028      0.000000
    107 O2    c      -0.000001      0.000002     -0.000004      0.000000
    108 O2    c       0.000000     -0.000003     -0.000003      0.000000
    109 O2    c      -0.000001      0.000002     -0.000000      0.000000
    110 O2    c      -0.000001      0.000001      0.000006      0.000000
    111 O2    c      -0.000001      0.000003     -0.000029      0.000000
    112 O2    c      -0.000003     -0.000001      0.000011      0.000000
    113 O2    c       0.000010      0.000001      0.000010      0.000000
    114 O2    c       0.000001      0.000000      0.000009      0.000000
    115 O3    c      -0.000006     -0.000002     -0.000002      0.000000
    116 O2    c      -0.000000      0.000001     -0.000003      0.000000
    117 O2    c       0.000000      0.000000     -0.000001      0.000000
    118 O2    c       0.000002     -0.000000     -0.000001      0.000000
    119 O2    c      -0.000000     -0.000000     -0.000001      0.000000
    120 O2    c       0.000000      0.000001      0.000001      0.000000
    121 O2    c       0.000000      0.000000      0.000003      0.000000
    122 O2    c       0.000000     -0.000003      0.000006      0.000000
    123 O2    c      -0.000001     -0.000000      0.000001      0.000000
    124 O3    c      -0.000082      0.000079      0.000141      0.000000
    125 O2    c      -0.000002      0.000000     -0.000000      0.000000
    126 O2    c      -0.000000     -0.000002      0.000005      0.000000
    127 O2    c       0.000000     -0.000001      0.000004      0.000000
    128 O2    c       0.000002     -0.000003      0.000004      0.000000
    129 O2    c      -0.000003     -0.000001      0.000000      0.000000
    130 O2    c      -0.000000      0.000000     -0.000000      0.000000
    131 O2    c      -0.000008      0.000018      0.000001      0.000000
    132 O2    c      -0.000002      0.000001      0.000004      0.000000
    133 O2    c       0.000000      0.000001     -0.000005      0.000000
    134 O2    c       0.000001      0.000002      0.000016      0.000000
    135 O2    c       0.000001      0.000001     -0.000003      0.000000
    136 O2    c       0.000001     -0.000001      0.000000      0.000000
    137 O2    c       0.000003     -0.000001     -0.000002      0.000000
    138 O2    c       0.000002      0.000001     -0.000005      0.000000
    139 O2    c       0.000001      0.000001      0.000007      0.000000
    140 O2    c      -0.000003      0.000001      0.000003      0.000000
    141 O2    c      -0.000002     -0.000001      0.000001      0.000000
    142 O2    c      -0.000002     -0.000001      0.000003      0.000000
    143 O3    c       0.000062     -0.000054      0.000097      0.000000
    144 O2    c       0.000001      0.000001      0.000003      0.000000
    145 O2    c       0.000001      0.000003     -0.000003      0.000000
    146 O3    c      -0.000012      0.000020      0.000013      0.000000
    147 O2    c       0.000002     -0.000002      0.000003      0.000000
    148 O2    c       0.000003     -0.000001     -0.000004      0.000000
    149 O2    c      -0.000001      0.000002     -0.000001      0.000000
    150 O2    c       0.000002      0.000001     -0.000003      0.000000
    151 O3    c       0.000007     -0.000006      0.000025      0.000000
    152 O2    c      -0.000000      0.000000      0.000004      0.000000
    153 O2    c      -0.000001     -0.000000      0.000000      0.000000
    154 O2    c       0.000000     -0.000001      0.000006      0.000000
    155 O2    c       0.000001     -0.000001     -0.000005      0.000000
    156 O2    c      -0.000002      0.000003      0.000000      0.000000
    157 O2    c      -0.000000      0.000002     -0.000004      0.000000
    158 O2    c       0.000001     -0.000005     -0.000001      0.000000
    159 O2    c      -0.000004      0.000002      0.000015      0.000000
    160 O3    c      -0.000014     -0.000041     -0.000115      0.000000
    161 O2    c       0.000000      0.000000     -0.000001      0.000000
    162 O2    c      -0.000000      0.000000     -0.000005      0.000000
    163 O2    c       0.000005      0.000008      0.000035      0.000000
    164 O2    c       0.000001     -0.000000     -0.000006      0.000000
    165 O2    c       0.000003     -0.000001      0.000000      0.000000
    166 O2    c      -0.000001      0.000001     -0.000003      0.000000
    167 O2    c       0.000003     -0.000000      0.000009      0.000000
    168 O2    c       0.000004     -0.000003     -0.000001      0.000000
    169 O2    c      -0.000004      0.000001      0.000003      0.000000
    170 O2    c      -0.000001     -0.000001      0.000006      0.000000
    171 O2    c      -0.000000      0.000001      0.000000      0.000000
    172 O2    c       0.000012     -0.000008     -0.000021      0.000000
    173 O2    c       0.000000     -0.000002      0.000004      0.000000
    174 O2    c      -0.000002      0.000001      0.000004      0.000000
    175 O2    c       0.000000     -0.000001      0.000007      0.000000
    176 O2    c      -0.000001      0.000001     -0.000004      0.000000
    177 O2    c       0.000009     -0.000007     -0.000009      0.000000
    178 O2    c       0.000001      0.000000     -0.000000      0.000000
    179 O2    c      -0.000003     -0.000002      0.000017      0.000000
    180 O2    c      -0.000001      0.000000     -0.000003      0.000000
    181 F     c      -0.000000      0.000001     -0.000001      0.000000
    182 F     c      -0.000000      0.000001     -0.000002      0.000000
    183 F     c      -0.000063     -0.000098      0.000149      0.000000
    184 F     c      -0.000000     -0.000000     -0.000003      0.000000
    185 F     c      -0.000002     -0.000000     -0.000006      0.000000
    186 F     c       0.000001     -0.000000     -0.000001      0.000000
    187 O2    s       0.000007     -0.000008      0.000001      0.000000
    188 O2    s      -0.000002      0.000002     -0.000008      0.000000
    189 O2    s      -0.000002      0.000003      0.000001      0.000000
    190 O3    s      -0.000002     -0.000000      0.000006      0.000000
    191 O2    s      -0.000002     -0.000002      0.000008      0.000000
    192 O2    s       0.000002     -0.000001      0.000000      0.000000
    193 O2    s       0.000000     -0.000003      0.000005      0.000000
    194 O2    s      -0.000001      0.000000     -0.000000      0.000000
    195 O2    s       0.000001      0.000006     -0.000002      0.000000
    196 O2    s       0.000008     -0.000004      0.000001      0.000000
    197 O2    s      -0.000002      0.000001     -0.000004      0.000000
    198 O2    s      -0.000001      0.000003      0.000003      0.000000
    199 O2    s      -0.000004     -0.000012     -0.000022      0.000000
    200 O2    s      -0.000001     -0.000001     -0.000002      0.000000
    201 O2    s      -0.000000      0.000001      0.000003      0.000000
    202 O2    s       0.000003     -0.000001      0.000006      0.000000
    203 O2    s      -0.000001     -0.000001     -0.000007      0.000000
    204 O2    s      -0.000010     -0.000002      0.000015      0.000000
    205 O3    s      -0.000020     -0.000000      0.000026      0.000000
    206 O2    s      -0.000001     -0.000001     -0.000002      0.000000
    207 O2    s      -0.000002      0.000001     -0.000001      0.000000
    208 O3    s      -0.000000      0.000000     -0.000001      0.000000
    209 O2    s      -0.000002      0.000004      0.000002      0.000000
    210 O2    s      -0.000000      0.000002     -0.000000      0.000000
    211 O2    s      -0.000001      0.000002     -0.000006      0.000000
    212 O2    s      -0.000004     -0.000000     -0.000004      0.000000
    213 O2    s       0.000000      0.000001      0.000003      0.000000
    214 O3    s       0.000030      0.000002     -0.000072      0.000000
    215 O2    s      -0.000001     -0.000001     -0.000005      0.000000
    216 O2    s       0.000001     -0.000000     -0.000000      0.000000
    217 O2    s      -0.000002      0.000000     -0.000001      0.000000
    218 O2    s       0.000001     -0.000001     -0.000006      0.000000
    219 O2    s       0.000003      0.000007     -0.000016      0.000000
    220 O2    s      -0.000000      0.000000      0.000012      0.000000
    221 O2    s       0.000002     -0.000004     -0.000003      0.000000
    222 O3    s       0.000003      0.000001     -0.000012      0.000000
    223 O2    s       0.000008     -0.000009     -0.000027      0.000000
    224 O2    s      -0.000003      0.000001     -0.000005      0.000000
    225 O2    s      -0.000002      0.000001      0.000002      0.000000
    226 O3    s      -0.000001      0.000003     -0.000005      0.000000
    227 O2    s       0.000001      0.000000     -0.000001      0.000000
    228 O2    s      -0.000001     -0.000001      0.000002      0.000000
    229 O2    s       0.000001      0.000000     -0.000005      0.000000
    230 O2    s       0.000010     -0.000003     -0.000005      0.000000
    231 O2    s       0.000003     -0.000002      0.000001      0.000000
    232 O2    s      -0.000002      0.000003     -0.000036      0.000000
    233 O2    s       0.000001     -0.000001      0.000000      0.000000
    234 O2    s       0.000000      0.000000     -0.000002      0.000000
    235 O2    s       0.000001     -0.000001     -0.000001      0.000000
    236 O2    s      -0.000001     -0.000000     -0.000004      0.000000
    237 O2    s       0.000024     -0.000014      0.000042      0.000000
    238 O2    s       0.000002     -0.000003     -0.000001      0.000000
    239 O2    s      -0.000006      0.000001     -0.000013      0.000000
    240 O2    s      -0.000003      0.000001     -0.000005      0.000000
    241 O3    s       0.000017      0.000000      0.000005      0.000000
    242 O2    s      -0.000001     -0.000001      0.000003      0.000000
    243 O2    s       0.000003     -0.000002     -0.000005      0.000000
    244 O2    s      -0.000001     -0.000002      0.000000      0.000000
    245 O2    s       0.000001      0.000002     -0.000003      0.000000
    246 O2    s      -0.000003      0.000002     -0.000004      0.000000
    247 O2    s       0.000001      0.000001     -0.000002      0.000000
    248 O2    s      -0.000003      0.000004     -0.000003      0.000000
    249 O2    s       0.000001      0.000002      0.000004      0.000000
    250 O3    s       0.000102     -0.000132     -0.000177      0.000000
    251 O2    s      -0.000000      0.000002     -0.000000      0.000000
    252 O2    s       0.000001     -0.000001     -0.000002      0.000000
    253 O2    s       0.000000      0.000004     -0.000002      0.000000
    254 O2    s      -0.000003      0.000001      0.000003      0.000000
    255 O2    s       0.000002     -0.000003      0.000004      0.000000
    256 O2    s      -0.000000     -0.000000      0.000007      0.000000
    257 O2    s       0.000021     -0.000015      0.000036      0.000000
    258 O2    s      -0.000000      0.000001      0.000002      0.000000
    259 O2    s       0.000001     -0.000002      0.000001      0.000000
    260 O2    s      -0.000002     -0.000008     -0.000076      0.000000
    261 O2    s      -0.000003      0.000001     -0.000002      0.000000
    262 O2    s       0.000000      0.000000     -0.000005      0.000000
    263 O2    s      -0.000001      0.000001     -0.000001      0.000000
    264 O2    s       0.000001      0.000002      0.000009      0.000000
    265 O2    s       0.000001      0.000002     -0.000010      0.000000
    266 O2    s       0.000000      0.000001     -0.000001      0.000000
    267 O2    s      -0.000000     -0.000000      0.000000      0.000000
    268 O2    s       0.000001      0.000000      0.000003      0.000000
    269 O3    s      -0.000106      0.000061     -0.000072      0.000000
    270 O2    s       0.000000     -0.000002     -0.000005      0.000000
    271 O2    s       0.000002     -0.000002     -0.000001      0.000000
    272 O3    s      -0.000012     -0.000007      0.000024      0.000000
    273 O2    s       0.000000     -0.000001     -0.000001      0.000000
    274 O2    s      -0.000002     -0.000000     -0.000002      0.000000
    275 O2    s      -0.000001     -0.000001     -0.000001      0.000000
    276 O2    s       0.000002     -0.000003      0.000009      0.000000
    277 O3    s      -0.000000      0.000001     -0.000030      0.000000
    278 O2    s       0.000000     -0.000001      0.000003      0.000000
    279 O2    s       0.000001     -0.000002      0.000001      0.000000
    280 O2    s      -0.000001      0.000000     -0.000003      0.000000
    281 O2    s       0.000001      0.000001     -0.000000      0.000000
    282 O2    s       0.000005     -0.000002     -0.000001      0.000000
    283 O2    s       0.000001     -0.000001      0.000004      0.000000
    284 O2    s      -0.000001      0.000004     -0.000002      0.000000
    285 O2    s       0.000004     -0.000005     -0.000005      0.000000
    286 O3    s      -0.000004      0.000036      0.000289      0.000000
    287 O2    s      -0.000001      0.000002     -0.000001      0.000000
    288 O2    s       0.000000      0.000001      0.000001      0.000000
    289 O2    s      -0.000019     -0.000000     -0.000108      0.000000
    290 O2    s       0.000000     -0.000000      0.000000      0.000000
    291 O2    s      -0.000002      0.000001     -0.000003      0.000000
    292 O2    s       0.000002     -0.000002     -0.000002      0.000000
    293 O2    s       0.000001      0.000004     -0.000024      0.000000
    294 O2    s      -0.000002      0.000001     -0.000003      0.000000
    295 O2    s       0.000001     -0.000001     -0.000000      0.000000
    296 O2    s       0.000002     -0.000004     -0.000008      0.000000
    297 O2    s      -0.000000      0.000001     -0.000002      0.000000
    298 O2    s      -0.000018      0.000019      0.000067      0.000000
    299 O2    s      -0.000001      0.000001      0.000003      0.000000
    300 O2    s      -0.000000      0.000000      0.000002      0.000000
    301 O2    s      -0.000000     -0.000000     -0.000004      0.000000
    302 O2    s       0.000002     -0.000001     -0.000001      0.000000
    303 O2    s      -0.000035      0.000030      0.000037      0.000000
    304 O2    s      -0.000001      0.000002     -0.000001      0.000000
    305 O2    s       0.000003      0.000000     -0.000006      0.000000
    306 O2    s       0.000002     -0.000001     -0.000001      0.000000
    307 F     s       0.000000     -0.000000      0.000003      0.000000
    308 F     s       0.000001     -0.000001      0.000003      0.000000
    309 F     s      -0.000164     -0.000120      0.000303      0.000000
    310 F     s       0.000001      0.000001      0.000007      0.000000
    311 F     s       0.000002      0.000001      0.000006      0.000000
    312 F     s      -0.000001      0.000000      0.000001      0.000000
--------------------------------------------------------------------------------
  Maximum abs         0.000250      0.000217      0.000515      0.000000
--------------------------------------------------------------------------------


  Time to end of optimisation =     174.5788 seconds


  Peak dynamic memory used =      19.13 MB 


  Timing analysis for GULP :

--------------------------------------------------------------------------------
  Task / Subroutine                                          Time (Seconds)
--------------------------------------------------------------------------------
  Calculation of reciprocal space energy and derivatives          5.3518
  Calculation of real space energy and derivatives              148.9523
  Calculation of three-body energy and derivatives               17.0320
  Calculation of matrix inversion                                 2.3386
  Global summation overhead                                       0.0001
--------------------------------------------------------------------------------
  Total CPU time                                                174.5789
--------------------------------------------------------------------------------


  Dump file written as out.res                                                 
  CIF file written as out.cif                                                 


  Job Finished at 02:18.25 26th November   2016                               

