********************************************************************************
*                       GENERAL UTILITY LATTICE PROGRAM                        *
*                                 Julian Gale                                  *
*                      Nanochemistry Research Institute                        *
*                           Department of Chemistry                            *
*                    Curtin University, Western Australia                      *
********************************************************************************
* Version = 4.2.0 * Last modified =  20th January 2014                         *
********************************************************************************
*  optimise     - perform optimisation run                                     *
*  conp         - constant pressure calculation                                *
*  qok          - running with non charge neutral cell is OK                   *
********************************************************************************

  Job Started  at 21:00.46 25th November   2016                               

  Number of CPUs =     1


  Total number of configurations input =   1

********************************************************************************
*  Input for Configuration =   1                                               *
********************************************************************************

  Formula = Si57Ge3O120F6                                               

  Number of irreducible atoms/shells =     312


  Total number atoms/shells =     312

  Dimensionality = 3               :  Bulk   


  Charge on solid   =  -6.000000 =>neutralising background added


  Cartesian lattice vectors (Angstroms) :

       11.996744    0.000000    0.000000
       -6.052085   10.345829    0.000000
        0.141454    0.164406   29.527097

  Cell parameters (Angstroms/Degrees):

  a =      11.9967    alpha =  89.8632
  b =      11.9860    beta  =  89.7255
  c =      29.5279    gamma = 120.3267

  Initial cell volume =        3664.792859 Angs**3

  Temperature of configuration =  0.000     K 

  Pressure of configuration =         0.000 GPa 

  Fractional coordinates of asymmetric unit :

--------------------------------------------------------------------------------
   No.  Atomic       x           y          z         Charge      Occupancy
        Label      (Frac)      (Frac)     (Frac)        (e)         (Frac)  
--------------------------------------------------------------------------------
      1 Si    c    0.699600    0.375700    0.033890     4.00000    1.000000    
      2 Si    c    0.619771 *  0.322065 *  0.366216 *   4.00000    1.000000    
      3 Si    c    0.674876 *  0.296415 *  0.699281 *   4.00000    1.000000    
      4 Si    c    0.299533 *  0.626508 *  0.532677 *   4.00000    1.000000    
      5 Si    c    0.375355 *  0.676637 *  0.866121 *   4.00000    1.000000    
      6 Si    c    0.321012 *  0.701479 *  0.201256 *   4.00000    1.000000    
      7 Si    c    0.379367 *  0.702243 *  0.301095 *   4.00000    1.000000    
      8 Si    c    0.318542 *  0.625268 *  0.968703 *   4.00000    1.000000    
      9 Si    c    0.297547 *  0.675462 *  0.633527 *   4.00000    1.000000    
     10 Si    c    0.619169 *  0.296594 *  0.799635 *   4.00000    1.000000    
     11 Si    c    0.677874 *  0.379094 *  0.466216 *   4.00000    1.000000    
     12 Si    c    0.699658 *  0.326161 *  0.134408 *   4.00000    1.000000    
     13 Si    c    0.528298 *  0.410508 *  0.968356 *   4.00000    1.000000    
     14 Si    c    0.584285 *  0.113343 *  0.300904 *   4.00000    1.000000    
     15 Si    c    0.886318 *  0.467465 *  0.633936 *   4.00000    1.000000    
     16 Si    c    0.469278 *  0.584918 *  0.467730 *   4.00000    1.000000    
     17 Si    c    0.416028 *  0.887953 *  0.800276 *   4.00000    1.000000    
     18 Si    c    0.112178 *  0.537726 *  0.135034 *   4.00000    1.000000    
     19 Si    c    0.415610 *  0.529456 *  0.366472 *   4.00000    1.000000    
     20 Si    c    0.112164 *  0.588406 *  0.033500 *   4.00000    1.000000    
     21 Si    c    0.467279 *  0.885276 *  0.698769 *   4.00000    1.000000    
     22 Si    c    0.581857 *  0.468102 *  0.865093 *   4.00000    1.000000    
     23 Si    c    0.885695 *  0.420382 *  0.532291 *   4.00000    1.000000    
     24 Si    c    0.530371 *  0.114591 *  0.199732 *   4.00000    1.000000    
     25 Si    c    0.297085 *  0.395616 *  0.848555 *   4.00000    1.000000    
     26 Si    c    0.598531 *  0.903870 *  0.184884 *   4.00000    1.000000    
     27 Si    c    0.097682 *  0.702302 *  0.519241 *   4.00000    1.000000    
     28 Si    c    0.695970 *  0.600966 *  0.351180 *   4.00000    1.000000    
     29 Si    c    0.396461 *  0.094808 *  0.684566 *   4.00000    1.000000    
     30 Si    c    0.905302 *  0.303351 *  0.019586 *   4.00000    1.000000    
     31 Si    c    0.402111 *  0.305922 *  0.482271 *   4.00000    1.000000    
     32 Si    c    0.900486 *  0.604864 *  0.147933 *   4.00000    1.000000    
     33 Si    c    0.697085 *  0.096534 *  0.814041 *   4.00000    1.000000    
     34 Si    c    0.599379 *  0.695404 *  0.983040 *   4.00000    1.000000    
     35 Si    c    0.095192 *  0.395535 *  0.647095 *   4.00000    1.000000    
     36 Si    c    0.303434 *  0.903689 *  0.316018 *   4.00000    1.000000    
     37 Ge    c    0.264420 *  0.357644 *  0.948204 *   4.00000    1.000000    
     38 Si    c    0.661372 *  0.912553 *  0.284798 *   4.00000    1.000000    
     39 Si    c    0.089380 *  0.747308 *  0.620067 *   4.00000    1.000000    
     40 Si    c    0.746490 *  0.658571 *  0.451383 *   4.00000    1.000000    
     41 Si    c    0.337516 *  0.087864 *  0.785158 *   4.00000    1.000000    
     42 Si    c    0.910564 *  0.258250 *  0.120709 *   4.00000    1.000000    
     43 Si    c    0.338465 *  0.250477 *  0.382689 *   4.00000    1.000000    
     44 Si    c    0.906633 *  0.659718 *  0.047429 *   4.00000    1.000000    
     45 Si    c    0.746788 *  0.087764 *  0.713569 *   4.00000    1.000000    
     46 Si    c    0.661476 *  0.749512 *  0.881128 *   4.00000    1.000000    
     47 Si    c    0.087834 *  0.344926 *  0.546198 *   4.00000    1.000000    
     48 Si    c    0.251731 *  0.911347 *  0.215935 *   4.00000    1.000000    
     49 Si    c    0.977908 *  0.128648 *  0.966257 *   4.00000    1.000000    
     50 Si    c    0.878365 *  0.850204 *  0.300622 *   4.00000    1.000000    
     51 Si    c    0.147576 *  0.024447 *  0.635216 *   4.00000    1.000000    
     52 Si    c    0.025812 *  0.876118 *  0.466554 *   4.00000    1.000000    
     53 Si    c    0.120245 *  0.150601 *  0.798996 *   4.00000    1.000000    
     54 Ge    c    0.850320 *  0.975005 *  0.133700 *   4.00000    1.000000    
     55 Si    c    0.121077 *  0.969769 *  0.365736 *   4.00000    1.000000    
     56 Si    c    0.850915 *  0.880280 *  0.030325 *   4.00000    1.000000    
     57 Si    c    0.025575 *  0.147504 *  0.698814 *   4.00000    1.000000    
     58 Si    c    0.878854 *  0.033758 *  0.865872 *   4.00000    1.000000    
     59 Ge    c    0.149294 *  0.123517 *  0.532409 *   4.00000    1.000000    
     60 Si    c    0.973161 *  0.851016 *  0.199900 *   4.00000    1.000000    
     61 O2    c    0.926356 *  0.997623 *  0.995703 *   0.87073    1.000000    
     62 O2    c    0.000628 *  0.929863 *  0.332905 *   0.87073    1.000000    
     63 O2    c    0.067832 *  0.065683 *  0.668057 *   0.87073    1.000000    
     64 O3    c    0.059963 *  0.997143 *  0.496961 *   1.33043    1.000000    
     65 O2    c    0.000423 *  0.074191 *  0.833075 *   0.87073    1.000000    
     66 O3    c    0.940884 *  0.936561 *  0.167905 *   1.33043    1.000000    
     67 O2    c    0.340391 *  0.579115 *  0.334090 *   0.87073    1.000000    
     68 O2    c    0.419500 *  0.759805 *  0.666646 *   0.87073    1.000000    
     69 O2    c    0.238548 *  0.670834 *  0.001104 *   0.87073    1.000000    
     70 O2    c    0.657760 *  0.419708 *  0.832416 *   0.87073    1.000000    
     71 O2    c    0.576904 *  0.240466 *  0.167577 *   0.87073    1.000000    
     72 O2    c    0.762493 *  0.342715 *  0.499320 *   0.87073    1.000000    
     73 O2    c    0.581722 *  0.336604 *  0.999528 *   0.87073    1.000000    
     74 O2    c    0.761087 *  0.419637 *  0.666624 *   0.87073    1.000000    
     75 O2    c    0.659021 *  0.238888 *  0.333373 *   0.87073    1.000000    
     76 O2    c    0.422570 *  0.664012 *  0.499772 *   0.87073    1.000000    
     77 O2    c    0.235278 *  0.581250 *  0.167909 *   0.87073    1.000000    
     78 O2    c    0.340513 *  0.762866 *  0.833469 *   0.87073    1.000000    
     79 O3    c    0.127068 *  0.214827 *  0.970668 *   1.33043    1.000000    
     80 O2    c    0.787688 *  0.913686 *  0.305046 *   0.87073    1.000000    
     81 O2    c    0.088200 *  0.870636 *  0.641891 *   0.87073    1.000000    
     82 O2    c    0.872001 *  0.782713 *  0.471906 *   0.87073    1.000000    
     83 O2    c    0.210039 *  0.086199 *  0.804685 *   0.87073    1.000000    
     84 O3    c    0.913961 *  0.137735 *  0.142432 *   1.33043    1.000000    
     85 O2    c    0.212266 *  0.124928 *  0.362269 *   0.87073    1.000000    
     86 O2    c    0.908371 *  0.784430 *  0.025239 *   0.87073    1.000000    
     87 O2    c    0.871668 *  0.086467 *  0.692932 *   0.87073    1.000000    
     88 O2    c    0.786456 *  0.877570 *  0.861575 *   0.87073    1.000000    
     89 O3    c    0.084199 *  0.221238 *  0.524643 *   1.33043    1.000000    
     90 O2    c    0.127104 *  0.911141 *  0.195658 *   0.87073    1.000000    
     91 O2    c    0.931244 *  0.862018 *  0.250361 *   0.87073    1.000000    
     92 O3    c    0.126196 *  0.058802 *  0.585623 *   1.33043    1.000000    
     93 O2    c    0.928190 *  0.077139 *  0.915789 *   0.87073    1.000000    
     94 O2    c    0.061439 *  0.132878 *  0.749510 *   0.87073    1.000000    
     95 O3    c    0.871489 *  0.938260 *  0.079660 *   1.33043    1.000000    
     96 O2    c    0.065733 *  0.924665 *  0.415578 *   0.87073    1.000000    
     97 O2    c    0.906537 *  0.208141 *  0.981241 *   0.87073    1.000000    
     98 O2    c    0.794638 *  0.698188 *  0.312820 *   0.87073    1.000000    
     99 O2    c    0.300520 *  0.096859 *  0.646310 *   0.87073    1.000000    
    100 O2    c    0.100418 *  0.800948 *  0.481046 *   0.87073    1.000000    
    101 O2    c    0.208352 *  0.304519 *  0.807087 *   0.87073    1.000000    
    102 O3    c    0.687665 *  0.897075 *  0.145482 *   1.33043    1.000000    
    103 O2    c    0.204493 *  0.901966 *  0.354069 *   0.87073    1.000000    
    104 O2    c    0.696593 *  0.794907 *  0.020384 *   0.87073    1.000000    
    105 O2    c    0.097131 *  0.298777 *  0.685341 *   0.87073    1.000000    
    106 O2    c    0.795028 *  0.099563 *  0.852191 *   0.87073    1.000000    
    107 O3    c    0.312145 *  0.210281 *  0.522000 *   1.33043    1.000000    
    108 O2    c    0.898047 *  0.700026 *  0.186471 *   0.87073    1.000000    
    109 O2    c    0.319504 *  0.643282 *  0.251457 *   0.87073    1.000000    
    110 O2    c    0.356384 *  0.680218 *  0.583131 *   0.87073    1.000000    
    111 O2    c    0.322024 *  0.677000 *  0.916819 *   0.87073    1.000000    
    112 O2    c    0.676471 *  0.354560 *  0.749406 *   0.87073    1.000000    
    113 O2    c    0.640228 *  0.321241 *  0.084231 *   0.87073    1.000000    
    114 O2    c    0.678529 *  0.322690 *  0.416061 *   0.87073    1.000000    
    115 O3    c    0.376369 *  0.320443 *  0.972701 *   1.33043    1.000000    
    116 O2    c    0.671361 *  0.044540 *  0.303665 *   0.87073    1.000000    
    117 O2    c    0.956334 *  0.623598 *  0.637799 *   0.87073    1.000000    
    118 O2    c    0.625735 *  0.670725 *  0.470054 *   0.87073    1.000000    
    119 O2    c    0.328723 *  0.956198 *  0.804029 *   0.87073    1.000000    
    120 O2    c    0.042576 *  0.382080 *  0.138145 *   0.87073    1.000000    
    121 O2    c    0.328531 *  0.372724 *  0.364104 *   0.87073    1.000000    
    122 O2    c    0.040488 *  0.672098 *  0.029974 *   0.87073    1.000000    
    123 O2    c    0.623666 *  0.954608 *  0.696070 *   0.87073    1.000000    
    124 O2    c    0.667465 *  0.625142 *  0.863166 *   0.87073    1.000000    
    125 O2    c    0.955052 *  0.334822 *  0.529182 *   0.87073    1.000000    
    126 O2    c    0.374148 *  0.044767 *  0.197636 *   0.87073    1.000000    
    127 O2    c    0.770655 *  0.302335 *  0.012827 *   0.87073    1.000000    
    128 O2    c    0.693605 *  0.465956 *  0.343841 *   0.87073    1.000000    
    129 O2    c    0.531609 *  0.228884 *  0.677215 *   0.87073    1.000000    
    130 O2    c    0.231656 *  0.702522 *  0.511328 *   0.87073    1.000000    
    131 O2    c    0.301612 *  0.533477 *  0.844051 *   0.87073    1.000000    
    132 O2    c    0.464152 *  0.768962 *  0.179000 *   0.87073    1.000000    
    133 O2    c    0.305522 *  0.770912 *  0.323866 *   0.87073    1.000000    
    134 O2    c    0.465200 *  0.695339 *  0.988552 *   0.87073    1.000000    
    135 O2    c    0.228727 *  0.530668 *  0.655083 *   0.87073    1.000000    
    136 O2    c    0.694136 *  0.228863 *  0.821913 *   0.87073    1.000000    
    137 O2    c    0.535013 *  0.304210 *  0.488826 *   0.87073    1.000000    
    138 O2    c    0.766513 *  0.469948 *  0.156277 *   0.87073    1.000000    
    139 O2    c    0.780290 *  0.532674 *  0.028760 *   0.87073    1.000000    
    140 O2    c    0.463328 *  0.247986 *  0.363301 *   0.87073    1.000000    
    141 O2    c    0.747706 *  0.213911 *  0.694079 *   0.87073    1.000000    
    142 O2    c    0.215932 *  0.470995 *  0.527168 *   0.87073    1.000000    
    143 O2    c    0.530553 *  0.740945 *  0.863844 *   0.87073    1.000000    
    144 O2    c    0.249087 *  0.784543 *  0.196759 *   0.87073    1.000000    
    145 O2    c    0.536035 *  0.784146 *  0.304282 *   0.87073    1.000000    
    146 O3    c    0.236655 *  0.472297 *  0.975419 *   1.33043    1.000000    
    147 O2    c    0.215863 *  0.748866 *  0.639143 *   0.87073    1.000000    
    148 O2    c    0.462697 *  0.215245 *  0.804593 *   0.87073    1.000000    
    149 O2    c    0.750378 *  0.534795 *  0.470656 *   0.87073    1.000000    
    150 O2    c    0.781581 *  0.253128 *  0.139725 *   0.87073    1.000000    
    151 O3    c    0.216514 *  0.312178 *  0.891253 *   1.33043    1.000000    
    152 O2    c    0.679401 *  0.912655 *  0.230335 *   0.87073    1.000000    
    153 O2    c    0.094025 *  0.771490 *  0.565925 *   0.87073    1.000000    
    154 O2    c    0.765847 *  0.676153 *  0.397187 *   0.87073    1.000000    
    155 O2    c    0.321347 *  0.089220 *  0.730945 *   0.87073    1.000000    
    156 O2    c    0.908157 *  0.234246 *  0.066556 *   0.87073    1.000000    
    157 O2    c    0.320074 *  0.231717 *  0.437205 *   0.87073    1.000000    
    158 O2    c    0.903175 *  0.679613 *  0.101622 *   0.87073    1.000000    
    159 O2    c    0.767344 *  0.092282 *  0.767705 *   0.87073    1.000000    
    160 O2    c    0.669745 *  0.757661 *  0.935281 *   0.87073    1.000000    
    161 O2    c    0.092491 *  0.323372 *  0.600427 *   0.87073    1.000000    
    162 O2    c    0.232875 *  0.908509 *  0.270169 *   0.87073    1.000000    
    163 O2    c    0.579752 *  0.553531 *  0.990365 *   0.87073    1.000000    
    164 O2    c    0.443077 *  0.029549 *  0.324480 *   0.87073    1.000000    
    165 O2    c    0.968689 *  0.407455 *  0.655967 *   0.87073    1.000000    
    166 O2    c    0.413010 *  0.444059 *  0.491369 *   0.87073    1.000000    
    167 O2    c    0.557829 *  0.969093 *  0.823024 *   0.87073    1.000000    
    168 O2    c    0.028174 *  0.595766 *  0.157175 *   0.87073    1.000000    
    169 O2    c    0.556565 *  0.586373 *  0.342996 *   0.87073    1.000000    
    170 O2    c    0.028908 *  0.445785 *  0.011676 *   0.87073    1.000000    
    171 O2    c    0.411512 *  0.970209 *  0.675842 *   0.87073    1.000000    
    172 O2    c    0.441124 *  0.416438 *  0.843051 *   0.87073    1.000000    
    173 O2    c    0.970918 *  0.563621 *  0.510368 *   0.87073    1.000000    
    174 O2    c    0.585796 *  0.030021 *  0.176180 *   0.87073    1.000000    
    175 O2    c    0.585026 *  0.167303 *  0.250280 *   0.87073    1.000000    
    176 O2    c    0.831661 *  0.417369 *  0.583229 *   0.87073    1.000000    
    177 O2    c    0.580099 *  0.417523 *  0.916220 *   0.87073    1.000000    
    178 O2    c    0.413519 *  0.832879 *  0.749766 *   0.87073    1.000000    
    179 O2    c    0.166274 *  0.591251 *  0.084228 *   0.87073    1.000000    
    180 O2    c    0.415794 *  0.583314 *  0.417058 *   0.87073    1.000000    
    181 F     c    0.453956 *  0.904752 *  0.250847 *   0.56000    1.000000    
    182 F     c    0.095763 *  0.548999 *  0.583488 *   0.56000    1.000000    
    183 F     c    0.414604 *  0.509825 *  0.921693 *   0.56000    1.000000    
    184 F     c    0.545902 *  0.095155 *  0.750297 *   0.56000    1.000000    
    185 F     c    0.900370 *  0.455802 *  0.085433 *   0.56000    1.000000    
    186 F     c    0.544709 *  0.450414 *  0.417653 *   0.56000    1.000000    
    187 O2    s    0.923197 *  0.998122 *  0.996521 *  -2.87073    1.000000    
    188 O2    s    0.000439 *  0.925488 *  0.332969 *  -2.87073    1.000000    
    189 O2    s    0.071860 *  0.070397 *  0.667921 *  -2.87073    1.000000    
    190 O3    s    0.064073 *  0.995005 *  0.496749 *  -3.33043    1.000000    
    191 O2    s    0.000196 *  0.078139 *  0.832924 *  -2.87073    1.000000    
    192 O3    s    0.936528 *  0.930630 *  0.168401 *  -3.33043    1.000000    
    193 O2    s    0.352137 *  0.586590 *  0.334043 *  -2.87073    1.000000    
    194 O2    s    0.411999 *  0.764134 *  0.666573 *  -2.87073    1.000000    
    195 O2    s    0.234038 *  0.658144 *  0.001065 *  -2.87073    1.000000    
    196 O2    s    0.645964 *  0.412283 *  0.832480 *  -2.87073    1.000000    
    197 O2    s    0.584667 *  0.236240 *  0.167493 *  -2.87073    1.000000    
    198 O2    s    0.766496 *  0.354501 *  0.499302 *  -2.87073    1.000000    
    199 O2    s    0.588800 *  0.348521 *  0.999949 *  -2.87073    1.000000    
    200 O2    s    0.765008 *  0.411728 *  0.666667 *  -2.87073    1.000000    
    201 O2    s    0.647336 *  0.234626 *  0.333450 *  -2.87073    1.000000    
    202 O2    s    0.414747 *  0.652151 *  0.499885 *  -2.87073    1.000000    
    203 O2    s    0.231549 *  0.589286 *  0.168005 *  -2.87073    1.000000    
    204 O2    s    0.351881 *  0.766512 *  0.833540 *  -2.87073    1.000000    
    205 O3    s    0.119330 *  0.214592 *  0.968698 *  -3.33043    1.000000    
    206 O2    s    0.784297 *  0.906880 *  0.302529 *  -2.87073    1.000000    
    207 O2    s    0.094574 *  0.873983 *  0.638950 *  -2.87073    1.000000    
    208 O2    s    0.875093 *  0.779442 *  0.469159 *  -2.87073    1.000000    
    209 O2    s    0.213869 *  0.093073 *  0.802095 *  -2.87073    1.000000    
    210 O3    s    0.908353 *  0.136309 *  0.139554 *  -3.33043    1.000000    
    211 O2    s    0.215665 *  0.121478 *  0.364728 *  -2.87073    1.000000    
    212 O2    s    0.902112 *  0.781525 *  0.028047 *  -2.87073    1.000000    
    213 O2    s    0.874935 *  0.093035 *  0.695663 *  -2.87073    1.000000    
    214 O2    s    0.782421 *  0.879659 *  0.864077 *  -2.87073    1.000000    
    215 O3    s    0.089956 *  0.225679 *  0.527450 *  -3.33043    1.000000    
    216 O2    s    0.123993 *  0.904727 *  0.198263 *  -2.87073    1.000000    
    217 O2    s    0.929852 *  0.859421 *  0.250499 *  -2.87073    1.000000    
    218 O3    s    0.130557 *  0.060713 *  0.586390 *  -3.33043    1.000000    
    219 O2    s    0.927630 *  0.077466 *  0.915252 *  -2.87073    1.000000    
    220 O2    s    0.064040 *  0.136549 *  0.749372 *  -2.87073    1.000000    
    221 O3    s    0.867399 *  0.935226 *  0.079078 *  -3.33043    1.000000    
    222 O2    s    0.067585 *  0.924350 *  0.415602 *  -2.87073    1.000000    
    223 O2    s    0.913529 *  0.210196 *  0.983774 *  -2.87073    1.000000    
    224 O2    s    0.793318 *  0.704260 *  0.315497 *  -2.87073    1.000000    
    225 O2    s    0.294461 *  0.089167 *  0.649041 *  -2.87073    1.000000    
    226 O2    s    0.092326 *  0.798667 *  0.483492 *  -2.87073    1.000000    
    227 O2    s    0.207994 *  0.297523 *  0.810325 *  -2.87073    1.000000    
    228 O3    s    0.692452 *  0.904144 *  0.148315 *  -3.33043    1.000000    
    229 O2    s    0.205803 *  0.909357 *  0.351389 *  -2.87073    1.000000    
    230 O2    s    0.701878 *  0.793025 *  0.017482 *  -2.87073    1.000000    
    231 O2    s    0.089327 *  0.292594 *  0.682867 *  -2.87073    1.000000    
    232 O2    s    0.793712 *  0.092210 *  0.849652 *  -2.87073    1.000000    
    233 O3    s    0.307160 *  0.212202 *  0.519061 *  -3.33043    1.000000    
    234 O2    s    0.906225 *  0.706275 *  0.183942 *  -2.87073    1.000000    
    235 O2    s    0.325712 *  0.655142 *  0.251395 *  -2.87073    1.000000    
    236 O2    s    0.344682 *  0.674324 *  0.583150 *  -2.87073    1.000000    
    237 O2    s    0.327159 *  0.671867 *  0.916657 *  -2.87073    1.000000    
    238 O2    s    0.670434 *  0.342733 *  0.749472 *  -2.87073    1.000000    
    239 O2    s    0.652243 *  0.327308 *  0.084129 *  -2.87073    1.000000    
    240 O2    s    0.672526 *  0.328365 *  0.416134 *  -2.87073    1.000000    
    241 O3    s    0.384099 *  0.332540 *  0.970453 *  -3.33043    1.000000    
    242 O2    s    0.661395 *  0.037943 *  0.301421 *  -2.87073    1.000000    
    243 O2    s    0.963154 *  0.620460 *  0.635505 *  -2.87073    1.000000    
    244 O2    s    0.622137 *  0.660557 *  0.467850 *  -2.87073    1.000000    
    245 O2    s    0.338636 *  0.962812 *  0.801676 *  -2.87073    1.000000    
    246 O2    s    0.035944 *  0.385502 *  0.135944 *  -2.87073    1.000000    
    247 O2    s    0.338530 *  0.376146 *  0.366296 *  -2.87073    1.000000    
    248 O2    s    0.033798 *  0.662019 *  0.032203 *  -2.87073    1.000000    
    249 O2    s    0.620425 *  0.961415 *  0.698199 *  -2.87073    1.000000    
    250 O2    s    0.658135 *  0.622198 *  0.865243 *  -2.87073    1.000000    
    251 O2    s    0.961747 *  0.344996 *  0.531334 *  -2.87073    1.000000    
    252 O2    s    0.377493 *  0.037971 *  0.199796 *  -2.87073    1.000000    
    253 O2    s    0.777356 *  0.309985 *  0.015736 *  -2.87073    1.000000    
    254 O2    s    0.686237 *  0.465362 *  0.346950 *  -2.87073    1.000000    
    255 O2    s    0.532110 *  0.221703 *  0.680296 *  -2.87073    1.000000    
    256 O2    s    0.224674 *  0.694689 *  0.514393 *  -2.87073    1.000000    
    257 O2    s    0.308792 *  0.534349 *  0.846838 *  -2.87073    1.000000    
    258 O2    s    0.463297 *  0.776137 *  0.182016 *  -2.87073    1.000000    
    259 O2    s    0.312880 *  0.777835 *  0.320680 *  -2.87073    1.000000    
    260 O2    s    0.464613 *  0.688262 *  0.985943 *  -2.87073    1.000000    
    261 O2    s    0.221868 *  0.531479 *  0.651991 *  -2.87073    1.000000    
    262 O2    s    0.686679 *  0.221983 *  0.818754 *  -2.87073    1.000000    
    263 O2    s    0.535977 *  0.312279 *  0.485704 *  -2.87073    1.000000    
    264 O2    s    0.773672 *  0.469297 *  0.153110 *  -2.87073    1.000000    
    265 O2    s    0.785762 *  0.530375 *  0.031282 *  -2.87073    1.000000    
    266 O2    s    0.466279 *  0.256111 *  0.365680 *  -2.87073    1.000000    
    267 O2    s    0.739879 *  0.208695 *  0.696719 *  -2.87073    1.000000    
    268 O2    s    0.210900 *  0.473886 *  0.529781 *  -2.87073    1.000000    
    269 O2    s    0.528416 *  0.734987 *  0.865961 *  -2.87073    1.000000    
    270 O2    s    0.257112 *  0.789742 *  0.199319 *  -2.87073    1.000000    
    271 O2    s    0.533197 *  0.789512 *  0.301875 *  -2.87073    1.000000    
    272 O3    s    0.247227 *  0.479332 *  0.972725 *  -3.33043    1.000000    
    273 O2    s    0.210635 *  0.740887 *  0.636510 *  -2.87073    1.000000    
    274 O2    s    0.465515 *  0.209960 *  0.802033 *  -2.87073    1.000000    
    275 O2    s    0.742136 *  0.531721 *  0.468104 *  -2.87073    1.000000    
    276 O2    s    0.786848 *  0.261473 *  0.137147 *  -2.87073    1.000000    
    277 O3    s    0.228151 *  0.323938 *  0.890935 *  -3.33043    1.000000    
    278 O2    s    0.669514 *  0.911830 *  0.231417 *  -2.87073    1.000000    
    279 O2    s    0.093952 *  0.761847 *  0.566744 *  -2.87073    1.000000    
    280 O2    s    0.756399 *  0.666355 *  0.398109 *  -2.87073    1.000000    
    281 O2    s    0.330952 *  0.089643 *  0.731840 *  -2.87073    1.000000    
    282 O2    s    0.908070 *  0.243774 *  0.067298 *  -2.87073    1.000000    
    283 O2    s    0.330086 *  0.241051 *  0.436110 *  -2.87073    1.000000    
    284 O2    s    0.903213 *  0.669879 *  0.100768 *  -2.87073    1.000000    
    285 O2    s    0.757758 *  0.092253 *  0.766831 *  -2.87073    1.000000    
    286 O2    s    0.661379 *  0.750147 *  0.934380 *  -2.87073    1.000000    
    287 O2    s    0.092349 *  0.333047 *  0.599763 *  -2.87073    1.000000    
    288 O2    s    0.242338 *  0.908316 *  0.269237 *  -2.87073    1.000000    
    289 O2    s    0.576566 *  0.554724 *  0.987378 *  -2.87073    1.000000    
    290 O2    s    0.442778 *  0.024558 *  0.321098 *  -2.87073    1.000000    
    291 O2    s    0.973838 *  0.412574 *  0.652719 *  -2.87073    1.000000    
    292 O2    s    0.417878 *  0.444109 *  0.487928 *  -2.87073    1.000000    
    293 O2    s    0.557889 *  0.974334 *  0.819693 *  -2.87073    1.000000    
    294 O2    s    0.023116 *  0.590507 *  0.153851 *  -2.87073    1.000000    
    295 O2    s    0.556870 *  0.581806 *  0.346352 *  -2.87073    1.000000    
    296 O2    s    0.024252 *  0.445609 *  0.014838 *  -2.87073    1.000000    
    297 O2    s    0.415896 *  0.974884 *  0.679180 *  -2.87073    1.000000    
    298 O2    s    0.441057 *  0.419891 *  0.845987 *  -2.87073    1.000000    
    299 O2    s    0.975833 *  0.563573 *  0.513642 *  -2.87073    1.000000    
    300 O2    s    0.581224 *  0.025205 *  0.179573 *  -2.87073    1.000000    
    301 O2    s    0.579338 *  0.156271 *  0.250336 *  -2.87073    1.000000    
    302 O2    s    0.842854 *  0.422847 *  0.583208 *  -2.87073    1.000000    
    303 O2    s    0.575174 *  0.422134 *  0.915971 *  -2.87073    1.000000    
    304 O2    s    0.419277 *  0.843948 *  0.749759 *  -2.87073    1.000000    
    305 O2    s    0.155182 *  0.585472 *  0.084262 *  -2.87073    1.000000    
    306 O2    s    0.421292 *  0.577925 *  0.417086 *  -2.87073    1.000000    
    307 F     s    0.453891 *  0.904372 *  0.250863 *  -1.56000    1.000000    
    308 F     s    0.096148 *  0.549187 *  0.583523 *  -1.56000    1.000000    
    309 F     s    0.406443 *  0.501788 *  0.923031 *  -1.56000    1.000000    
    310 F     s    0.546082 *  0.095553 *  0.750388 *  -1.56000    1.000000    
    311 F     s    0.899756 *  0.455699 *  0.085612 *  -1.56000    1.000000    
    312 F     s    0.544638 *  0.450040 *  0.417775 *  -1.56000    1.000000    
--------------------------------------------------------------------------------



********************************************************************************
*  General input information                                                   *
********************************************************************************

  Species output for all configurations : 

--------------------------------------------------------------------------------
  Species    Type    Atomic    Atomic    Charge       Radii (Angs)     Library
                     Number     Mass       (e)     Cova   Ionic  VDW   Symbol
--------------------------------------------------------------------------------
    Si       Core       14      28.09   4.000000   1.200  0.000  2.100          
    O1       Core        8      16.00   1.733957   0.730  0.000  1.360          
    O1       Shell       8       0.00  -3.733957   0.730  0.000  1.360          
    O2       Core        8      16.00   0.870733   0.730  0.000  1.360          
    O2       Shell       8       0.00  -2.870733   0.730  0.000  1.360          
    O3       Core        8      16.00   1.330431   0.730  0.000  1.360          
    O3       Shell       8       0.00  -3.330431   0.730  0.000  1.360          
    F        Core        9      19.00   0.560000   0.710  0.000  1.300          
    F        Shell       9       0.00  -1.560000   0.710  0.000  1.300          
    Ge       Core       32      72.61   4.000000   1.170  0.000  1.750          
--------------------------------------------------------------------------------


  Lattice summation method               =    Ewald          (3-D)
                                         =    Parry          (2-D)
                                         =    Saunders et al (1-D)
  Accuracy factor for lattice sums       =   12.000


  Time limit = Infinity

  Maximum range for interatomic potentials =        16.000000 Angstroms

  Taper potentials to zero over   1.0000 Angstroms using polynomial

  General interatomic potentials :

--------------------------------------------------------------------------------
Atom  Types   Potential         A         B         C         D     Cutoffs(Ang)
  1     2                                                            Min    Max 
--------------------------------------------------------------------------------
Si   c O1   s Buckingham    0.132E+04 0.318      10.1      0.00     0.000 16.000
Si   c O2   s Buckingham    0.132E+04 0.318      10.1      0.00     0.000 16.000
Si   c O3   s Buckingham    0.132E+04 0.318      10.1      0.00     0.000 16.000
Ge   c O1   s Buckingham    0.150E+04 0.326      16.8      0.00     0.000 16.000
Ge   c O2   s Buckingham    0.150E+04 0.326      16.8      0.00     0.000 16.000
Ge   c O3   s Buckingham    0.150E+04 0.326      16.8      0.00     0.000 16.000
O1   s O1   s Buckingham    0.228E+05 0.149      10.9      0.00     0.000 16.000
O1   s O2   s Buckingham    0.228E+05 0.149      10.9      0.00     0.000 16.000
O1   s O3   s Buckingham    0.228E+05 0.149      10.9      0.00     0.000 16.000
O2   s O2   s Buckingham    0.228E+05 0.149      10.9      0.00     0.000 16.000
O2   s O3   s Buckingham    0.228E+05 0.149      10.9      0.00     0.000 16.000
O3   s O3   s Buckingham    0.228E+05 0.149      10.9      0.00     0.000 16.000
Si   c F    s Buckingham     977.     0.282      0.00      0.00     0.000 16.000
Ge   c F    s Buckingham     681.     0.320      0.00      0.00     0.000 16.000
F    s F    s Buckingham     540.     0.262      0.00      0.00     0.000 16.000
O1   s F    s Buckingham    0.168E+04 0.268      0.00      0.00     0.000 16.000
O2   s F    s Buckingham    0.168E+04 0.268      0.00      0.00     0.000 16.000
O3   s F    s Buckingham    0.168E+04 0.268      0.00      0.00     0.000 16.000
O2   c O2   s Spring (c-s)   76.0      0.00      0.00      0.00     0.000  0.800
O3   c O3   s Spring (c-s)   128.      0.00      0.00      0.00     0.000  0.800
O1   c O1   s Spring (c-s)   180.      0.00      0.00      0.00     0.000  0.800
F    c F    s Spring (c-s)   33.5      0.00      0.00      0.00     0.000  0.800
--------------------------------------------------------------------------------

  General Three-body potentials :

  Harmonic form:

--------------------------------------------------------------------------------
Atom    Atom    Atom           Force Constants            Theta     Cutoffs  
  1       2       3     (eVrad**-2/eVrad**-3/eVrad**-4)   (deg)  1-2  1-3  2-3
--------------------------------------------------------------------------------
Si    c O1    s O1    s  1.261        0.0000    0.0000   109.470 0.00 0.00 0.00
                                                                 1.90 1.90 3.50
Si    c O1    s O2    s  1.261        0.0000    0.0000   109.470 0.00 0.00 0.00
                                                                 1.90 1.90 3.50
Si    c O2    s O2    s  1.261        0.0000    0.0000   109.470 0.00 0.00 0.00
                                                                 1.90 1.90 3.50
--------------------------------------------------------------------------------

********************************************************************************
*  Output for configuration   1                                                *
********************************************************************************


  Components of energy : 

--------------------------------------------------------------------------------
  Interatomic potentials     =        2060.36659245 eV
  Three-body potentials      =           0.46132248 eV
  Monopole - monopole (real) =       -6611.00165805 eV
  Monopole - monopole (recip)=       -3169.04718672 eV
  Monopole - monopole (total)=       -9780.04884477 eV
  Neutralising energy        =          -6.45533524 eV
--------------------------------------------------------------------------------
  Total lattice energy       =       -7725.67626507 eV
--------------------------------------------------------------------------------
  Total lattice energy       =         -745409.6618 kJ/(mole unit cells)
--------------------------------------------------------------------------------


  Number of variables =      939

  Maximum number of calculations  =          1000
  Maximum Hessian update interval =            10
  Maximum step size               =   1.000000000
  Maximum parameter tolerance     =   0.000010000
  Maximum function  tolerance     =   0.000010000
  Maximum gradient  tolerance     =   0.001000000
  Maximum gradient  component     =   0.010000000

  Symmetry not applied to optimisation

  Cell parameters to be optimised using strains

  Newton-Raphson optimiser to be used

  BFGS hessian update to be used

  Dumpfile to be written after every cycle

  Start of bulk optimisation :

  Cycle:      0 Energy:     -7725.676265  Gnorm:      0.002074  CPU:    1.064
  ** Hessian calculated **
  Cycle:      1 Energy:     -7725.734875  Gnorm:      0.004815  CPU:    3.313
  Cycle:      2 Energy:     -7725.735637  Gnorm:      0.000556  CPU:    4.702
  Cycle:      3 Energy:     -7725.735688  Gnorm:      0.000124  CPU:    6.092


  **** Optimisation achieved ****


  Final energy =   -7725.73568873 eV
  Final Gnorm  =       0.00001694

  Components of energy : 

--------------------------------------------------------------------------------
  Interatomic potentials     =        2060.27815846 eV
  Three-body potentials      =           0.46345031 eV
  Monopole - monopole (real) =       -6612.09286152 eV
  Monopole - monopole (recip)=       -3167.93137392 eV
  Monopole - monopole (total)=       -9780.02423545 eV
  Neutralising energy        =          -6.45306205 eV
--------------------------------------------------------------------------------
  Total lattice energy       =       -7725.73568873 eV
--------------------------------------------------------------------------------
  Total lattice energy       =         -745415.3953 kJ/(mole unit cells)
--------------------------------------------------------------------------------

  Final fractional coordinates of atoms :

--------------------------------------------------------------------------------
   No.  Atomic        x           y          z          Radius
        Label       (Frac)      (Frac)     (Frac)       (Angs) 
--------------------------------------------------------------------------------
     1  Si    c     0.699600    0.375700    0.033890    0.000000
     2  Si    c     0.603680    0.317737    0.366758    0.000000
     3  Si    c     0.652885    0.281465    0.699486    0.000000
     4  Si    c     0.282401    0.617771    0.534266    0.000000
     5  Si    c     0.357370    0.663113    0.867608    0.000000
     6  Si    c     0.309360    0.698390    0.203270    0.000000
     7  Si    c     0.366964    0.699937    0.303227    0.000000
     8  Si    c     0.305754    0.612758    0.970664    0.000000
     9  Si    c     0.275859    0.662603    0.635206    0.000000
    10  Si    c     0.598297    0.282976    0.799932    0.000000
    11  Si    c     0.661487    0.371970    0.466859    0.000000
    12  Si    c     0.690304    0.321934    0.134606    0.000000
    13  Si    c     0.518549    0.399573    0.969067    0.000000
    14  Si    c     0.571100    0.110847    0.301302    0.000000
    15  Si    c     0.864971    0.454013    0.634223    0.000000
    16  Si    c     0.454013    0.578203    0.469802    0.000000
    17  Si    c     0.395037    0.874342    0.802054    0.000000
    18  Si    c     0.101899    0.533505    0.137271    0.000000
    19  Si    c     0.400763    0.525056    0.368503    0.000000
    20  Si    c     0.105381    0.585876    0.035908    0.000000
    21  Si    c     0.445173    0.871124    0.700560    0.000000
    22  Si    c     0.564631    0.456399    0.865203    0.000000
    23  Si    c     0.869080    0.411291    0.532471    0.000000
    24  Si    c     0.517854    0.110678    0.199965    0.000000
    25  Si    c     0.279113    0.382357    0.849415    0.000000
    26  Si    c     0.586431    0.900200    0.186143    0.000000
    27  Si    c     0.080902    0.693547    0.520167    0.000000
    28  Si    c     0.680711    0.597331    0.352479    0.000000
    29  Si    c     0.374102    0.079916    0.685639    0.000000
    30  Si    c     0.902383    0.300954    0.020381    0.000000
    31  Si    c     0.386346    0.298805    0.483907    0.000000
    32  Si    c     0.890109    0.600395    0.149377    0.000000
    33  Si    c     0.676097    0.083158    0.815251    0.000000
    34  Si    c     0.587137    0.683569    0.983855    0.000000
    35  Si    c     0.073667    0.382301    0.647842    0.000000
    36  Si    c     0.290828    0.901350    0.317125    0.000000
    37  Ge    c     0.254658    0.346924    0.949325    0.000000
    38  Si    c     0.648586    0.910359    0.286213    0.000000
    39  Si    c     0.068060    0.734268    0.621107    0.000000
    40  Si    c     0.730787    0.651985    0.452869    0.000000
    41  Si    c     0.316524    0.073887    0.786315    0.000000
    42  Si    c     0.901857    0.254292    0.121836    0.000000
    43  Si    c     0.322894    0.245809    0.384172    0.000000
    44  Si    c     0.901659    0.658795    0.048780    0.000000
    45  Si    c     0.724794    0.073143    0.714731    0.000000
    46  Si    c     0.644249    0.737403    0.881644    0.000000
    47  Si    c     0.070694    0.335754    0.546819    0.000000
    48  Si    c     0.239436    0.907821    0.216894    0.000000
    49  Si    c     0.967152    0.121053    0.966388    0.000000
    50  Si    c     0.864314    0.846583    0.301463    0.000000
    51  Si    c     0.125619    0.010825    0.636038    0.000000
    52  Si    c     0.010376    0.868527    0.467369    0.000000
    53  Si    c     0.100726    0.138282    0.799724    0.000000
    54  Ge    c     0.837511    0.969801    0.134493    0.000000
    55  Si    c     0.106521    0.964915    0.366728    0.000000
    56  Si    c     0.838125    0.873388    0.031186    0.000000
    57  Si    c     0.003695    0.133456    0.699635    0.000000
    58  Si    c     0.860031    0.022931    0.866872    0.000000
    59  Ge    c     0.132988    0.114991    0.533431    0.000000
    60  Si    c     0.960147    0.845830    0.200912    0.000000
    61  O2    c     0.910510    0.989900    0.996106    0.000000
    62  O2    c     0.987775    0.925710    0.333161    0.000000
    63  O2    c     0.045244    0.051904    0.668520    0.000000
    64  O3    c     0.046184    0.991025    0.496940    0.000000
    65  O2    c     0.980443    0.063245    0.833628    0.000000
    66  O3    c     0.928543    0.930073    0.167894    0.000000
    67  O2    c     0.326690    0.576706    0.336380    0.000000
    68  O2    c     0.396821    0.745363    0.668735    0.000000
    69  O2    c     0.231759    0.664302    0.003264    0.000000
    70  O2    c     0.638701    0.407371    0.832031    0.000000
    71  O2    c     0.565720    0.235700    0.167062    0.000000
    72  O2    c     0.746583    0.334483    0.499255    0.000000
    73  O2    c     0.580635    0.332670    0.999322    0.000000
    74  O2    c     0.738571    0.404209    0.666429    0.000000
    75  O2    c     0.644322    0.236753    0.333525    0.000000
    76  O2    c     0.406896    0.656413    0.501997    0.000000
    77  O2    c     0.223704    0.576725    0.170621    0.000000
    78  O2    c     0.320851    0.749385    0.835512    0.000000
    79  O3    c     0.116555    0.201887    0.970672    0.000000
    80  O2    c     0.775142    0.911529    0.306245    0.000000
    81  O2    c     0.065483    0.856912    0.642755    0.000000
    82  O2    c     0.856753    0.775311    0.473450    0.000000
    83  O2    c     0.189354    0.072784    0.805764    0.000000
    84  O3    c     0.902965    0.132570    0.143590    0.000000
    85  O2    c     0.196165    0.120318    0.364103    0.000000
    86  O2    c     0.902383    0.783402    0.027068    0.000000
    87  O2    c     0.849626    0.071570    0.694325    0.000000
    88  O2    c     0.768606    0.866775    0.862480    0.000000
    89  O3    c     0.068326    0.212882    0.525314    0.000000
    90  O2    c     0.114165    0.906882    0.196959    0.000000
    91  O2    c     0.915547    0.857118    0.250932    0.000000
    92  O3    c     0.106423    0.046608    0.586242    0.000000
    93  O2    c     0.911642    0.068668    0.916468    0.000000
    94  O2    c     0.042277    0.120321    0.750135    0.000000
    95  O3    c     0.854603    0.932678    0.080119    0.000000
    96  O2    c     0.048274    0.914907    0.416013    0.000000
    97  O2    c     0.903497    0.207186    0.981770    0.000000
    98  O2    c     0.779461    0.694917    0.314124    0.000000
    99  O2    c     0.278138    0.082341    0.647464    0.000000
   100  O2    c     0.085040    0.793611    0.482139    0.000000
   101  O2    c     0.189587    0.291990    0.807965    0.000000
   102  O3    c     0.675395    0.892745    0.146938    0.000000
   103  O2    c     0.192055    0.899686    0.355097    0.000000
   104  O2    c     0.684764    0.782842    0.021037    0.000000
   105  O2    c     0.074320    0.284509    0.685977    0.000000
   106  O2    c     0.774495    0.087063    0.853419    0.000000
   107  O3    c     0.296197    0.202707    0.523628    0.000000
   108  O2    c     0.886319    0.694588    0.187913    0.000000
   109  O2    c     0.307692    0.640941    0.253631    0.000000
   110  O2    c     0.336792    0.669429    0.585040    0.000000
   111  O2    c     0.305700    0.662153    0.918591    0.000000
   112  O2    c     0.654827    0.339831    0.749486    0.000000
   113  O2    c     0.636079    0.320321    0.083901    0.000000
   114  O2    c     0.661748    0.316733    0.416562    0.000000
   115  O3    c     0.366679    0.308958    0.973933    0.000000
   116  O2    c     0.658662    0.042693    0.304570    0.000000
   117  O2    c     0.934776    0.609995    0.638471    0.000000
   118  O2    c     0.610443    0.663983    0.471965    0.000000
   119  O2    c     0.307674    0.942482    0.805705    0.000000
   120  O2    c     0.032462    0.377810    0.140111    0.000000
   121  O2    c     0.313029    0.368425    0.365795    0.000000
   122  O2    c     0.036556    0.672277    0.032052    0.000000
   123  O2    c     0.601419    0.939919    0.697592    0.000000
   124  O2    c     0.649842    0.613549    0.863009    0.000000
   125  O2    c     0.938429    0.325856    0.529388    0.000000
   126  O2    c     0.361621    0.041004    0.198032    0.000000
   127  O2    c     0.768654    0.300958    0.013178    0.000000
   128  O2    c     0.677616    0.462262    0.344802    0.000000
   129  O2    c     0.509322    0.213630    0.677782    0.000000
   130  O2    c     0.215301    0.694459    0.512791    0.000000
   131  O2    c     0.283710    0.520397    0.845388    0.000000
   132  O2    c     0.452050    0.765261    0.180751    0.000000
   133  O2    c     0.293261    0.769008    0.325525    0.000000
   134  O2    c     0.453152    0.682992    0.989621    0.000000
   135  O2    c     0.206482    0.517319    0.656471    0.000000
   136  O2    c     0.672981    0.215382    0.822533    0.000000
   137  O2    c     0.519169    0.296862    0.489897    0.000000
   138  O2    c     0.756510    0.464874    0.156998    0.000000
   139  O2    c     0.777931    0.532190    0.028550    0.000000
   140  O2    c     0.447253    0.243691    0.364125    0.000000
   141  O2    c     0.725388    0.198738    0.694708    0.000000
   142  O2    c     0.199043    0.462503    0.528225    0.000000
   143  O2    c     0.512598    0.728178    0.864963    0.000000
   144  O2    c     0.237141    0.781029    0.198090    0.000000
   145  O2    c     0.523560    0.782474    0.306259    0.000000
   146  O3    c     0.225693    0.459866    0.977615    0.000000
   147  O2    c     0.193903    0.735657    0.640690    0.000000
   148  O2    c     0.441953    0.201685    0.805267    0.000000
   149  O2    c     0.734204    0.527512    0.471699    0.000000
   150  O2    c     0.772263    0.249115    0.139980    0.000000
   151  O3    c     0.201681    0.299798    0.892603    0.000000
   152  O2    c     0.666697    0.909655    0.231795    0.000000
   153  O2    c     0.074854    0.760392    0.567000    0.000000
   154  O2    c     0.750083    0.671075    0.398666    0.000000
   155  O2    c     0.299502    0.074481    0.732096    0.000000
   156  O2    c     0.903345    0.231931    0.067694    0.000000
   157  O2    c     0.304688    0.225878    0.438688    0.000000
   158  O2    c     0.894167    0.675801    0.102960    0.000000
   159  O2    c     0.745675    0.078378    0.768858    0.000000
   160  O2    c     0.655177    0.745010    0.935722    0.000000
   161  O2    c     0.073389    0.312237    0.601044    0.000000
   162  O2    c     0.220546    0.905553    0.271107    0.000000
   163  O2    c     0.567911    0.542051    0.991048    0.000000
   164  O2    c     0.430271    0.027506    0.325148    0.000000
   165  O2    c     0.946603    0.393265    0.656284    0.000000
   166  O2    c     0.398013    0.437029    0.493281    0.000000
   167  O2    c     0.536984    0.955911    0.824570    0.000000
   168  O2    c     0.017203    0.590918    0.159073    0.000000
   169  O2    c     0.541318    0.582763    0.344647    0.000000
   170  O2    c     0.024491    0.444361    0.013324    0.000000
   171  O2    c     0.388907    0.955228    0.677202    0.000000
   172  O2    c     0.423400    0.404176    0.843593    0.000000
   173  O2    c     0.954877    0.554920    0.510733    0.000000
   174  O2    c     0.573317    0.025878    0.176892    0.000000
   175  O2    c     0.572231    0.164279    0.250447    0.000000
   176  O2    c     0.812878    0.406363    0.583173    0.000000
   177  O2    c     0.565599    0.406370    0.916206    0.000000
   178  O2    c     0.391671    0.818776    0.751625    0.000000
   179  O2    c     0.158491    0.588514    0.086761    0.000000
   180  O2    c     0.400636    0.577713    0.419187    0.000000
   181  F     c     0.441637    0.902360    0.251996    0.000000
   182  F     c     0.076610    0.537904    0.584385    0.000000
   183  F     c     0.400441    0.496685    0.922632    0.000000
   184  F     c     0.523513    0.080063    0.751291    0.000000
   185  F     c     0.894840    0.454694    0.086031    0.000000
   186  F     c     0.528513    0.444820    0.418966    0.000000
   187  O2    s     0.908201    0.990469    0.996971    0.000000
   188  O2    s     0.987224    0.921286    0.333362    0.000000
   189  O2    s     0.049434    0.056591    0.668459    0.000000
   190  O3    s     0.049880    0.988457    0.496902    0.000000
   191  O2    s     0.980438    0.067107    0.833543    0.000000
   192  O3    s     0.924033    0.924390    0.168564    0.000000
   193  O2    s     0.338468    0.584030    0.336279    0.000000
   194  O2    s     0.389449    0.749885    0.668585    0.000000
   195  O2    s     0.226572    0.651323    0.003242    0.000000
   196  O2    s     0.626912    0.399859    0.832206    0.000000
   197  O2    s     0.573500    0.231626    0.167129    0.000000
   198  O2    s     0.750465    0.346314    0.499336    0.000000
   199  O2    s     0.586426    0.344289    0.999708    0.000000
   200  O2    s     0.742696    0.396582    0.666553    0.000000
   201  O2    s     0.632633    0.232201    0.333663    0.000000
   202  O2    s     0.398986    0.644548    0.502029    0.000000
   203  O2    s     0.220040    0.584927    0.170583    0.000000
   204  O2    s     0.332247    0.753051    0.835488    0.000000
   205  O3    s     0.108713    0.202265    0.968816    0.000000
   206  O2    s     0.771589    0.904585    0.303721    0.000000
   207  O2    s     0.072084    0.860380    0.639833    0.000000
   208  O2    s     0.859751    0.772103    0.470626    0.000000
   209  O2    s     0.193265    0.079716    0.803152    0.000000
   210  O3    s     0.897453    0.131320    0.140678    0.000000
   211  O2    s     0.199759    0.116809    0.366435    0.000000
   212  O2    s     0.895542    0.779796    0.029750    0.000000
   213  O2    s     0.852938    0.078259    0.696970    0.000000
   214  O2    s     0.764538    0.868724    0.864952    0.000000
   215  O3    s     0.073915    0.217238    0.528150    0.000000
   216  O2    s     0.111119    0.900446    0.199499    0.000000
   217  O2    s     0.914681    0.854647    0.251127    0.000000
   218  O3    s     0.110839    0.048710    0.587039    0.000000
   219  O2    s     0.911455    0.068816    0.915914    0.000000
   220  O2    s     0.044527    0.123857    0.750019    0.000000
   221  O3    s     0.851313    0.929544    0.079630    0.000000
   222  O2    s     0.050716    0.915432    0.416131    0.000000
   223  O2    s     0.909743    0.208557    0.984350    0.000000
   224  O2    s     0.778263    0.700936    0.316748    0.000000
   225  O2    s     0.272103    0.074692    0.650152    0.000000
   226  O2    s     0.076807    0.791154    0.484532    0.000000
   227  O2    s     0.189214    0.284939    0.811169    0.000000
   228  O3    s     0.680138    0.899817    0.149714    0.000000
   229  O2    s     0.193155    0.906827    0.352405    0.000000
   230  O2    s     0.690017    0.781546    0.018169    0.000000
   231  O2    s     0.066719    0.278443    0.683521    0.000000
   232  O2    s     0.773315    0.079814    0.850860    0.000000
   233  O3    s     0.291260    0.204608    0.520651    0.000000
   234  O2    s     0.894470    0.700909    0.185340    0.000000
   235  O2    s     0.313894    0.652803    0.253542    0.000000
   236  O2    s     0.325098    0.663507    0.584979    0.000000
   237  O2    s     0.311058    0.657396    0.918362    0.000000
   238  O2    s     0.648837    0.328071    0.749572    0.000000
   239  O2    s     0.648009    0.326095    0.084035    0.000000
   240  O2    s     0.655825    0.322474    0.416656    0.000000
   241  O3    s     0.374467    0.321001    0.971677    0.000000
   242  O2    s     0.648675    0.036003    0.302332    0.000000
   243  O2    s     0.941629    0.606933    0.636182    0.000000
   244  O2    s     0.606812    0.653860    0.469739    0.000000
   245  O2    s     0.317569    0.949061    0.803319    0.000000
   246  O2    s     0.025928    0.381207    0.137849    0.000000
   247  O2    s     0.323065    0.371799    0.367993    0.000000
   248  O2    s     0.029488    0.661874    0.034234    0.000000
   249  O2    s     0.598265    0.946817    0.699711    0.000000
   250  O2    s     0.640655    0.610592    0.865172    0.000000
   251  O2    s     0.945068    0.335981    0.531579    0.000000
   252  O2    s     0.365014    0.034292    0.200218    0.000000
   253  O2    s     0.775402    0.308834    0.016156    0.000000
   254  O2    s     0.670305    0.461617    0.347906    0.000000
   255  O2    s     0.509893    0.206554    0.680879    0.000000
   256  O2    s     0.208208    0.686489    0.515805    0.000000
   257  O2    s     0.290893    0.521282    0.848135    0.000000
   258  O2    s     0.451251    0.772518    0.183746    0.000000
   259  O2    s     0.300590    0.775851    0.322324    0.000000
   260  O2    s     0.452591    0.675951    0.987065    0.000000
   261  O2    s     0.199726    0.518168    0.653338    0.000000
   262  O2    s     0.665572    0.208460    0.819399    0.000000
   263  O2    s     0.520043    0.304958    0.486797    0.000000
   264  O2    s     0.763773    0.464471    0.153859    0.000000
   265  O2    s     0.783203    0.529595    0.031264    0.000000
   266  O2    s     0.450270    0.251758    0.366537    0.000000
   267  O2    s     0.717636    0.193636    0.697359    0.000000
   268  O2    s     0.193961    0.465287    0.530842    0.000000
   269  O2    s     0.510594    0.722249    0.867046    0.000000
   270  O2    s     0.245124    0.786297    0.200672    0.000000
   271  O2    s     0.520696    0.787709    0.303812    0.000000
   272  O3    s     0.236140    0.467219    0.974862    0.000000
   273  O2    s     0.188745    0.727748    0.638016    0.000000
   274  O2    s     0.444721    0.196350    0.802722    0.000000
   275  O2    s     0.725999    0.524557    0.469152    0.000000
   276  O2    s     0.777579    0.257443    0.137486    0.000000
   277  O3    s     0.213376    0.311633    0.892055    0.000000
   278  O2    s     0.656815    0.908838    0.232845    0.000000
   279  O2    s     0.074805    0.750772    0.567790    0.000000
   280  O2    s     0.740679    0.661252    0.399553    0.000000
   281  O2    s     0.309162    0.074978    0.732975    0.000000
   282  O2    s     0.903053    0.241287    0.068381    0.000000
   283  O2    s     0.314655    0.235211    0.437612    0.000000
   284  O2    s     0.894495    0.666296    0.102104    0.000000
   285  O2    s     0.736130    0.078331    0.767984    0.000000
   286  O2    s     0.646741    0.737619    0.934877    0.000000
   287  O2    s     0.073198    0.321904    0.600403    0.000000
   288  O2    s     0.230005    0.905363    0.270193    0.000000
   289  O2    s     0.564940    0.543431    0.988082    0.000000
   290  O2    s     0.429925    0.022407    0.321781    0.000000
   291  O2    s     0.951872    0.398573    0.653078    0.000000
   292  O2    s     0.402775    0.437114    0.489828    0.000000
   293  O2    s     0.537044    0.961110    0.821229    0.000000
   294  O2    s     0.012246    0.585761    0.155731    0.000000
   295  O2    s     0.541706    0.578128    0.347997    0.000000
   296  O2    s     0.019629    0.443844    0.016489    0.000000
   297  O2    s     0.393358    0.960043    0.680545    0.000000
   298  O2    s     0.423404    0.407597    0.846510    0.000000
   299  O2    s     0.959667    0.554849    0.514042    0.000000
   300  O2    s     0.568776    0.021149    0.180298    0.000000
   301  O2    s     0.566542    0.153233    0.250531    0.000000
   302  O2    s     0.824056    0.411810    0.583237    0.000000
   303  O2    s     0.560873    0.410982    0.915989    0.000000
   304  O2    s     0.397509    0.829914    0.751601    0.000000
   305  O2    s     0.147201    0.582596    0.086731    0.000000
   306  O2    s     0.406162    0.572315    0.419193    0.000000
   307  F     s     0.441592    0.902038    0.252007    0.000000
   308  F     s     0.076986    0.538070    0.584423    0.000000
   309  F     s     0.391666    0.487880    0.924135    0.000000
   310  F     s     0.523618    0.080367    0.751373    0.000000
   311  F     s     0.894345    0.454752    0.086113    0.000000
   312  F     s     0.528405    0.444465    0.419075    0.000000
--------------------------------------------------------------------------------

  Final Cartesian lattice vectors (Angstroms) :

       12.008835   -0.001407   -0.005917
       -6.059398   10.350003    0.018623
        0.127014    0.209074   29.518920


  Final cell parameters and derivatives :

--------------------------------------------------------------------------------
       a           12.008837 Angstrom     dE/de1(xx)     0.002291 eV/strain
       b           11.993299 Angstrom     dE/de2(yy)     0.001875 eV/strain
       c           29.519933 Angstrom     dE/de3(zz)     0.002325 eV/strain
       alpha       89.685393 Degrees      dE/de4(yz)     0.000157 eV/strain
       beta        89.781753 Degrees      dE/de5(xz)     0.000162 eV/strain
       gamma      120.353510 Degrees      dE/de6(xy)     0.000054 eV/strain
--------------------------------------------------------------------------------

  Primitive cell volume =          3668.667156 Angs**3

  Density of cell =      1.743983 g/cm**3

  Non-primitive cell volume =          3668.667156 Angs**3


  Final internal derivatives :

--------------------------------------------------------------------------------
   No.  Atomic          a             b             c           Radius
        Label          (eV)          (eV)          (eV)        (eV/Angs)
--------------------------------------------------------------------------------
      1 Si    c       0.000000      0.000000      0.000000      0.000000
      2 Si    c      -0.000008     -0.000049      0.000189      0.000000
      3 Si    c       0.000061      0.000015      0.000057      0.000000
      4 Si    c      -0.000188      0.000097     -0.000008      0.000000
      5 Si    c      -0.000005      0.000099     -0.000241      0.000000
      6 Si    c       0.000047      0.000165      0.000252      0.000000
      7 Si    c       0.000051     -0.000054     -0.000009      0.000000
      8 Si    c      -0.000004     -0.000581     -0.000452      0.000000
      9 Si    c      -0.000007      0.000048      0.000039      0.000000
     10 Si    c      -0.000016      0.000093      0.000197      0.000000
     11 Si    c      -0.000013     -0.000063     -0.000319      0.000000
     12 Si    c       0.000341     -0.000035      0.000743      0.000000
     13 Si    c      -0.002884      0.002303     -0.004818      0.000000
     14 Si    c       0.000078      0.000011      0.000190      0.000000
     15 Si    c       0.000169     -0.000113      0.000008      0.000000
     16 Si    c       0.000045     -0.000046     -0.000109      0.000000
     17 Si    c      -0.000021     -0.000053      0.000253      0.000000
     18 Si    c      -0.000099     -0.000135      0.001999      0.000000
     19 Si    c      -0.000063      0.000044     -0.000066      0.000000
     20 Si    c      -0.000296      0.000506     -0.000851      0.000000
     21 Si    c      -0.000004      0.000011      0.000079      0.000000
     22 Si    c       0.000312     -0.000256      0.000323      0.000000
     23 Si    c       0.000074     -0.000102     -0.000071      0.000000
     24 Si    c      -0.000006     -0.000286      0.000193      0.000000
     25 Si    c      -0.000295     -0.000085      0.000392      0.000000
     26 Si    c       0.000131      0.000012     -0.000188      0.000000
     27 Si    c       0.000024      0.000087     -0.000322      0.000000
     28 Si    c      -0.000021      0.000130     -0.000025      0.000000
     29 Si    c      -0.000106     -0.000004     -0.000136      0.000000
     30 Si    c       0.000377     -0.000111     -0.000086      0.000000
     31 Si    c      -0.000042     -0.000047     -0.000006      0.000000
     32 Si    c      -0.000014     -0.000313      0.000381      0.000000
     33 Si    c       0.000029     -0.000003     -0.000010      0.000000
     34 Si    c       0.000497     -0.000501      0.000013      0.000000
     35 Si    c      -0.000076     -0.000063      0.000172      0.000000
     36 Si    c      -0.000046      0.000076      0.000164      0.000000
     37 Ge    c      -0.000172     -0.000751     -0.000131      0.000000
     38 Si    c       0.000081     -0.000036     -0.000057      0.000000
     39 Si    c      -0.000056      0.000109      0.000011      0.000000
     40 Si    c      -0.000024      0.000112     -0.000081      0.000000
     41 Si    c      -0.000109      0.000028      0.000110      0.000000
     42 Si    c      -0.000300      0.000208      0.000946      0.000000
     43 Si    c       0.000017      0.000010      0.000134      0.000000
     44 Si    c      -0.000342      0.000099     -0.001303      0.000000
     45 Si    c       0.000077     -0.000032     -0.000022      0.000000
     46 Si    c       0.000061      0.000273     -0.000642      0.000000
     47 Si    c      -0.000006     -0.000026     -0.000087      0.000000
     48 Si    c       0.000104     -0.000025     -0.000139      0.000000
     49 Si    c       0.001124     -0.001338     -0.001385      0.000000
     50 Si    c      -0.000159      0.000249      0.000044      0.000000
     51 Si    c       0.000095     -0.000057      0.000242      0.000000
     52 Si    c       0.000156     -0.000473      0.000141      0.000000
     53 Si    c       0.000139     -0.000114      0.000685      0.000000
     54 Ge    c      -0.000238     -0.000151      0.001165      0.000000
     55 Si    c      -0.000017      0.000065     -0.001698      0.000000
     56 Si    c      -0.000599      0.000834     -0.002827      0.000000
     57 Si    c      -0.000111      0.000105     -0.000105      0.000000
     58 Si    c       0.000121     -0.000033      0.000842      0.000000
     59 Ge    c      -0.000093      0.000373     -0.000381      0.000000
     60 Si    c      -0.000325      0.000164      0.000326      0.000000
     61 O2    c       0.000287     -0.000693      0.000941      0.000000
     62 O2    c       0.000150     -0.000044      0.000273      0.000000
     63 O2    c      -0.000030      0.000039     -0.000030      0.000000
     64 O3    c      -0.000209      0.000508      0.000507      0.000000
     65 O2    c      -0.000100      0.000166     -0.000334      0.000000
     66 O3    c      -0.000366      0.000275      0.000372      0.000000
     67 O2    c       0.000002     -0.000032      0.000111      0.000000
     68 O2    c       0.000004     -0.000075     -0.000171      0.000000
     69 O2    c       0.000498      0.000009     -0.000621      0.000000
     70 O2    c      -0.000158      0.000203      0.000243      0.000000
     71 O2    c      -0.000257      0.000140      0.000008      0.000000
     72 O2    c       0.000266     -0.000183      0.000371      0.000000
     73 O2    c       0.003692     -0.002724      0.003280      0.000000
     74 O2    c      -0.000235      0.000027      0.000376      0.000000
     75 O2    c       0.000059     -0.000121     -0.000318      0.000000
     76 O2    c       0.000181     -0.000021     -0.000240      0.000000
     77 O2    c      -0.000111     -0.000144     -0.000294      0.000000
     78 O2    c      -0.000012      0.000064      0.000064      0.000000
     79 O3    c       0.000116     -0.000524      0.001261      0.000000
     80 O2    c       0.000289     -0.000219     -0.000042      0.000000
     81 O2    c       0.000036     -0.000081     -0.000083      0.000000
     82 O2    c      -0.000060      0.000010      0.000108      0.000000
     83 O2    c      -0.000205      0.000216     -0.000103      0.000000
     84 O3    c      -0.000019      0.000153      0.000213      0.000000
     85 O2    c      -0.000038      0.000329     -0.000049      0.000000
     86 O2    c       0.001577     -0.001808     -0.000357      0.000000
     87 O2    c      -0.000037     -0.000007      0.000041      0.000000
     88 O2    c      -0.000055      0.000061      0.000172      0.000000
     89 O3    c       0.000086     -0.000159      0.000054      0.000000
     90 O2    c      -0.000061      0.000019     -0.000019      0.000000
     91 O2    c       0.000357     -0.000267     -0.001584      0.000000
     92 O3    c       0.000031     -0.000455      0.001298      0.000000
     93 O2    c      -0.000185      0.000073     -0.001749      0.000000
     94 O2    c       0.000035      0.000035     -0.000167      0.000000
     95 O3    c       0.000649      0.000148      0.003838      0.000000
     96 O2    c      -0.000254     -0.000163      0.001602      0.000000
     97 O2    c      -0.002175      0.002334      0.001862      0.000000
     98 O2    c      -0.000012     -0.000155      0.000065      0.000000
     99 O2    c      -0.000054      0.000007     -0.000001      0.000000
    100 O2    c      -0.000007     -0.000002      0.000041      0.000000
    101 O2    c      -0.000051     -0.000155     -0.000225      0.000000
    102 O3    c       0.000142      0.000042      0.000141      0.000000
    103 O2    c       0.000206     -0.000162      0.000005      0.000000
    104 O2    c      -0.001530     -0.000003     -0.000359      0.000000
    105 O2    c       0.000038     -0.000061      0.000032      0.000000
    106 O2    c       0.000054     -0.000080      0.000085      0.000000
    107 O3    c       0.000212     -0.000027      0.000007      0.000000
    108 O2    c      -0.000039     -0.000035      0.000018      0.000000
    109 O2    c       0.000003     -0.000040      0.000138      0.000000
    110 O2    c       0.000038     -0.000005      0.000197      0.000000
    111 O2    c      -0.000093      0.000007     -0.000195      0.000000
    112 O2    c       0.000016      0.000015      0.000074      0.000000
    113 O2    c       0.000105      0.000188     -0.002315      0.000000
    114 O2    c       0.000021     -0.000026     -0.000004      0.000000
    115 O3    c      -0.000321      0.000116     -0.001195      0.000000
    116 O2    c       0.000039     -0.000024     -0.000015      0.000000
    117 O2    c      -0.000039      0.000056      0.000049      0.000000
    118 O2    c      -0.000049      0.000020      0.000061      0.000000
    119 O2    c       0.000018     -0.000015      0.000024      0.000000
    120 O2    c       0.000122      0.000340      0.000470      0.000000
    121 O2    c      -0.000020     -0.000015     -0.000022      0.000000
    122 O2    c       0.000205     -0.000127     -0.000267      0.000000
    123 O2    c       0.000007     -0.000034     -0.000035      0.000000
    124 O2    c       0.000238     -0.000485     -0.000254      0.000000
    125 O2    c      -0.000019      0.000014      0.000008      0.000000
    126 O2    c       0.000017     -0.000034     -0.000070      0.000000
    127 O2    c      -0.000218      0.000210     -0.000001      0.000000
    128 O2    c       0.000088     -0.000106     -0.000091      0.000000
    129 O2    c      -0.000008      0.000056     -0.000138      0.000000
    130 O2    c       0.000154     -0.000107      0.000025      0.000000
    131 O2    c      -0.000061      0.000086     -0.000083      0.000000
    132 O2    c      -0.000045     -0.000028      0.000053      0.000000
    133 O2    c       0.000012     -0.000064      0.000048      0.000000
    134 O2    c       0.000249     -0.000060      0.000192      0.000000
    135 O2    c       0.000081      0.000029      0.000124      0.000000
    136 O2    c      -0.000002      0.000032     -0.000003      0.000000
    137 O2    c       0.000082     -0.000078      0.000074      0.000000
    138 O2    c       0.000036     -0.000106     -0.000152      0.000000
    139 O2    c      -0.000175     -0.000481     -0.001010      0.000000
    140 O2    c       0.000103     -0.000074     -0.000112      0.000000
    141 O2    c       0.000004      0.000040     -0.000078      0.000000
    142 O2    c       0.000032     -0.000041     -0.000055      0.000000
    143 O2    c      -0.000172      0.000077     -0.000174      0.000000
    144 O2    c      -0.000028     -0.000007     -0.000107      0.000000
    145 O2    c       0.000010     -0.000039      0.000053      0.000000
    146 O3    c       0.000205      0.000740     -0.000054      0.000000
    147 O2    c       0.000002      0.000022      0.000051      0.000000
    148 O2    c       0.000002      0.000024      0.000128      0.000000
    149 O2    c       0.000085     -0.000005      0.000177      0.000000
    150 O2    c      -0.000302      0.000213      0.000303      0.000000
    151 O3    c       0.000492      0.000248      0.001810      0.000000
    152 O2    c       0.000057     -0.000025     -0.000060      0.000000
    153 O2    c      -0.000054      0.000040      0.000383      0.000000
    154 O2    c       0.000010      0.000013     -0.000021      0.000000
    155 O2    c      -0.000019      0.000013     -0.000028      0.000000
    156 O2    c       0.000093     -0.000108     -0.001957      0.000000
    157 O2    c       0.000013      0.000020      0.000074      0.000000
    158 O2    c      -0.000127      0.000145      0.001335      0.000000
    159 O2    c       0.000043     -0.000019      0.000058      0.000000
    160 O2    c      -0.000018     -0.000092      0.001923      0.000000
    161 O2    c       0.000049     -0.000082     -0.000237      0.000000
    162 O2    c      -0.000055      0.000014      0.000018      0.000000
    163 O2    c       0.000192     -0.000505     -0.000272      0.000000
    164 O2    c      -0.000016     -0.000022     -0.000007      0.000000
    165 O2    c      -0.000148      0.000104     -0.000046      0.000000
    166 O2    c      -0.000057      0.000108      0.000043      0.000000
    167 O2    c      -0.000006     -0.000014      0.000010      0.000000
    168 O2    c       0.000071     -0.000147      0.000020      0.000000
    169 O2    c      -0.000004      0.000004     -0.000042      0.000000
    170 O2    c      -0.000182     -0.000195     -0.000019      0.000000
    171 O2    c      -0.000016      0.000008     -0.000043      0.000000
    172 O2    c       0.000073     -0.000051     -0.000158      0.000000
    173 O2    c      -0.000053     -0.000030     -0.000144      0.000000
    174 O2    c      -0.000035      0.000071      0.000048      0.000000
    175 O2    c       0.000025      0.000046      0.000171      0.000000
    176 O2    c      -0.000044      0.000009     -0.000089      0.000000
    177 O2    c      -0.000133      0.000082      0.000123      0.000000
    178 O2    c       0.000012     -0.000025     -0.000036      0.000000
    179 O2    c       0.000247      0.000080     -0.000586      0.000000
    180 O2    c      -0.000016      0.000015      0.000023      0.000000
    181 F     c       0.000019      0.000003     -0.000058      0.000000
    182 F     c       0.000003     -0.000011     -0.000033      0.000000
    183 F     c       0.000046      0.000448     -0.001110      0.000000
    184 F     c       0.000018      0.000000     -0.000013      0.000000
    185 F     c       0.000183     -0.000108      0.001441      0.000000
    186 F     c       0.000014      0.000007      0.000020      0.000000
    187 O2    s      -0.000087      0.000249     -0.000739      0.000000
    188 O2    s      -0.000135     -0.000030     -0.000646      0.000000
    189 O2    s      -0.000017     -0.000041      0.000041      0.000000
    190 O3    s       0.000036     -0.000201     -0.000238      0.000000
    191 O2    s       0.000054      0.000017      0.000056      0.000000
    192 O3    s       0.000293     -0.000165      0.000360      0.000000
    193 O2    s       0.000040     -0.000006      0.000026      0.000000
    194 O2    s      -0.000006      0.000032     -0.000013      0.000000
    195 O2    s      -0.000498      0.000137      0.000538      0.000000
    196 O2    s       0.000128     -0.000096      0.000036      0.000000
    197 O2    s      -0.000120     -0.000159      0.000172      0.000000
    198 O2    s      -0.000044     -0.000003      0.000044      0.000000
    199 O2    s      -0.001963      0.000934     -0.001005      0.000000
    200 O2    s       0.000023      0.000015     -0.000085      0.000000
    201 O2    s       0.000005     -0.000004      0.000005      0.000000
    202 O2    s       0.000018      0.000050      0.000003      0.000000
    203 O2    s       0.000091     -0.000105     -0.000276      0.000000
    204 O2    s      -0.000019     -0.000016     -0.000019      0.000000
    205 O3    s       0.001199      0.000705     -0.000639      0.000000
    206 O2    s      -0.000087      0.000102      0.000157      0.000000
    207 O2    s      -0.000033      0.000037      0.000172      0.000000
    208 O2    s      -0.000077     -0.000049      0.000131      0.000000
    209 O2    s      -0.000043     -0.000019      0.000144      0.000000
    210 O3    s       0.000177     -0.000256      0.000620      0.000000
    211 O2    s      -0.000065      0.000215     -0.000062      0.000000
    212 O2    s       0.000729     -0.000439     -0.000444      0.000000
    213 O2    s       0.000031     -0.000040     -0.000029      0.000000
    214 O2    s       0.000150      0.000016     -0.000419      0.000000
    215 O3    s      -0.000083      0.000152     -0.000229      0.000000
    216 O2    s      -0.000097      0.000112      0.000009      0.000000
    217 O2    s       0.000011      0.000073      0.000318      0.000000
    218 O3    s      -0.000024      0.000166     -0.000375      0.000000
    219 O2    s      -0.000226     -0.000343     -0.001262      0.000000
    220 O2    s       0.000121     -0.000080      0.000108      0.000000
    221 O3    s      -0.000098      0.000445      0.000359      0.000000
    222 O2    s       0.000028      0.000003     -0.000500      0.000000
    223 O2    s      -0.000315     -0.000251     -0.000349      0.000000
    224 O2    s      -0.000049      0.000054      0.000098      0.000000
    225 O2    s       0.000016     -0.000025     -0.000089      0.000000
    226 O2    s       0.000089     -0.000057      0.000013      0.000000
    227 O2    s      -0.000093     -0.000020     -0.000220      0.000000
    228 O3    s      -0.000192     -0.000029     -0.000244      0.000000
    229 O2    s       0.000144     -0.000160     -0.000446      0.000000
    230 O2    s      -0.000785      0.000493     -0.001177      0.000000
    231 O2    s      -0.000026      0.000009      0.000120      0.000000
    232 O2    s       0.000077     -0.000091      0.000307      0.000000
    233 O3    s       0.000006      0.000085      0.000023      0.000000
    234 O2    s       0.000029      0.000045      0.000301      0.000000
    235 O2    s       0.000029     -0.000033      0.000132      0.000000
    236 O2    s       0.000017      0.000038      0.000133      0.000000
    237 O2    s      -0.000138      0.000190     -0.000061      0.000000
    238 O2    s      -0.000033      0.000047     -0.000215      0.000000
    239 O2    s      -0.000640     -0.000126      0.000707      0.000000
    240 O2    s       0.000026     -0.000025     -0.000120      0.000000
    241 O3    s       0.000051     -0.000235      0.002166      0.000000
    242 O2    s      -0.000049      0.000042      0.000159      0.000000
    243 O2    s       0.000020      0.000064      0.000090      0.000000
    244 O2    s      -0.000022      0.000027      0.000008      0.000000
    245 O2    s      -0.000006     -0.000022     -0.000016      0.000000
    246 O2    s       0.000524     -0.000050     -0.000190      0.000000
    247 O2    s      -0.000031      0.000024     -0.000138      0.000000
    248 O2    s       0.000240     -0.000035      0.000657      0.000000
    249 O2    s       0.000025      0.000011     -0.000068      0.000000
    250 O2    s      -0.000036     -0.000021     -0.000232      0.000000
    251 O2    s      -0.000020     -0.000016     -0.000084      0.000000
    252 O2    s      -0.000098      0.000132      0.000092      0.000000
    253 O2    s       0.000468     -0.000390     -0.000358      0.000000
    254 O2    s      -0.000053      0.000056     -0.000059      0.000000
    255 O2    s       0.000030     -0.000016      0.000051      0.000000
    256 O2    s      -0.000017      0.000073     -0.000147      0.000000
    257 O2    s      -0.000028      0.000066     -0.000233      0.000000
    258 O2    s       0.000038     -0.000038     -0.000249      0.000000
    259 O2    s       0.000016      0.000001      0.000064      0.000000
    260 O2    s       0.000048      0.000050      0.000358      0.000000
    261 O2    s       0.000004      0.000031      0.000105      0.000000
    262 O2    s       0.000020     -0.000015      0.000246      0.000000
    263 O2    s      -0.000089      0.000058      0.000133      0.000000
    264 O2    s      -0.000401      0.000475      0.000790      0.000000
    265 O2    s       0.000333     -0.000060      0.001235      0.000000
    266 O2    s      -0.000058      0.000053     -0.000052      0.000000
    267 O2    s      -0.000025      0.000010     -0.000030      0.000000
    268 O2    s      -0.000016     -0.000048     -0.000093      0.000000
    269 O2    s      -0.000093      0.000119     -0.000228      0.000000
    270 O2    s      -0.000033      0.000051     -0.000045      0.000000
    271 O2    s      -0.000066      0.000032      0.000031      0.000000
    272 O3    s      -0.000608     -0.000308      0.001421      0.000000
    273 O2    s      -0.000002     -0.000027     -0.000035      0.000000
    274 O2    s      -0.000070      0.000007     -0.000079      0.000000
    275 O2    s      -0.000107      0.000076     -0.000065      0.000000
    276 O2    s      -0.000118     -0.000410      0.000448      0.000000
    277 O3    s      -0.000666     -0.000344     -0.001328      0.000000
    278 O2    s      -0.000059      0.000034      0.000160      0.000000
    279 O2    s      -0.000007      0.000053      0.000011      0.000000
    280 O2    s      -0.000011     -0.000020     -0.000082      0.000000
    281 O2    s      -0.000004      0.000011     -0.000006      0.000000
    282 O2    s      -0.000269      0.000289     -0.000504      0.000000
    283 O2    s      -0.000060     -0.000030      0.000047      0.000000
    284 O2    s       0.000204     -0.000211     -0.000691      0.000000
    285 O2    s       0.000006     -0.000016     -0.000109      0.000000
    286 O2    s      -0.000150      0.000166     -0.000226      0.000000
    287 O2    s       0.000024     -0.000005     -0.000018      0.000000
    288 O2    s       0.000057      0.000016      0.000036      0.000000
    289 O2    s      -0.000346      0.000655     -0.000164      0.000000
    290 O2    s       0.000038      0.000031      0.000041      0.000000
    291 O2    s       0.000038     -0.000075      0.000258      0.000000
    292 O2    s       0.000028     -0.000013      0.000008      0.000000
    293 O2    s       0.000003     -0.000033      0.000141      0.000000
    294 O2    s       0.000323      0.000116     -0.000540      0.000000
    295 O2    s      -0.000018      0.000018     -0.000034      0.000000
    296 O2    s       0.000273      0.000035      0.000674      0.000000
    297 O2    s       0.000017      0.000006     -0.000050      0.000000
    298 O2    s       0.000231     -0.000025      0.000302      0.000000
    299 O2    s      -0.000021     -0.000037     -0.000091      0.000000
    300 O2    s      -0.000042      0.000034     -0.000132      0.000000
    301 O2    s      -0.000049     -0.000013      0.000108      0.000000
    302 O2    s      -0.000025     -0.000023     -0.000250      0.000000
    303 O2    s      -0.000161      0.000215     -0.002251      0.000000
    304 O2    s      -0.000024      0.000004      0.000082      0.000000
    305 O2    s      -0.000592     -0.000100      0.000234      0.000000
    306 O2    s       0.000005      0.000008      0.000022      0.000000
    307 F     s      -0.000035      0.000020      0.000173      0.000000
    308 F     s      -0.000012      0.000023      0.000058      0.000000
    309 F     s       0.000797      0.000099     -0.000374      0.000000
    310 F     s      -0.000033     -0.000014     -0.000001      0.000000
    311 F     s       0.000044      0.000250     -0.003247      0.000000
    312 F     s      -0.000022      0.000010     -0.000041      0.000000
--------------------------------------------------------------------------------
  Maximum abs         0.003692      0.002724      0.004818      0.000000
--------------------------------------------------------------------------------


  Time to end of optimisation =       7.4822 seconds


  Peak dynamic memory used =      19.13 MB 


  Timing analysis for GULP :

--------------------------------------------------------------------------------
  Task / Subroutine                                          Time (Seconds)
--------------------------------------------------------------------------------
  Calculation of reciprocal space energy and derivatives          0.2950
  Calculation of real space energy and derivatives                6.2648
  Calculation of three-body energy and derivatives                0.6925
  Calculation of matrix inversion                                 0.1920
--------------------------------------------------------------------------------
  Total CPU time                                                  7.4823
--------------------------------------------------------------------------------


  Dump file written as out.res                                                 
  CIF file written as out.cif                                                 


  Job Finished at 21:00.54 25th November   2016                               

