********************************************************************************
*                       GENERAL UTILITY LATTICE PROGRAM                        *
*                                 Julian Gale                                  *
*                      Nanochemistry Research Institute                        *
*                           Department of Chemistry                            *
*                    Curtin University, Western Australia                      *
********************************************************************************
* Version = 4.2.0 * Last modified =  20th January 2014                         *
********************************************************************************
*  optimise     - perform optimisation run                                     *
*  conp         - constant pressure calculation                                *
*  qok          - running with non charge neutral cell is OK                   *
********************************************************************************

  Job Started  at 05:37.48 29th October    2016                               

  Number of CPUs =     1


  Total number of configurations input =   1

********************************************************************************
*  Input for Configuration =   1                                               *
********************************************************************************

  Formula = Ge3Si57O120F6                                               

  Number of irreducible atoms/shells =     312


  Total number atoms/shells =     312

  Dimensionality = 3               :  Bulk   


  Charge on solid   =  -6.000000 =>neutralising background added


  Cartesian lattice vectors (Angstroms) :

       11.966693    0.000000    0.000000
       -6.008697   10.360253    0.000000
       -0.151711   -0.514215   29.494376

  Cell parameters (Angstroms/Degrees):

  a =      11.9667    alpha =  90.7161
  b =      11.9766    beta  =  90.2947
  c =      29.4992    gamma = 120.1127

  Initial cell volume =        3656.652742 Angs**3

  Temperature of configuration =  0.000     K 

  Pressure of configuration =         0.000 GPa 

  Fractional coordinates of asymmetric unit :

--------------------------------------------------------------------------------
   No.  Atomic       x           y          z         Charge      Occupancy
        Label      (Frac)      (Frac)     (Frac)        (e)         (Frac)  
--------------------------------------------------------------------------------
      1 Ge    c    0.699600    0.375700    0.033890     4.00000    1.000000    
      2 Si    c    0.619675 *  0.314418 *  0.367600 *   4.00000    1.000000    
      3 Si    c    0.679069 *  0.297408 *  0.700294 *   4.00000    1.000000    
      4 Si    c    0.304582 *  0.618680 *  0.531605 *   4.00000    1.000000    
      5 Si    c    0.377666 *  0.677030 *  0.864655 *   4.00000    1.000000    
      6 Si    c    0.319706 *  0.707873 *  0.196640 *   4.00000    1.000000    
      7 Si    c    0.373073 *  0.695540 *  0.298282 *   4.00000    1.000000    
      8 Si    c    0.321211 *  0.623109 *  0.964288 *   4.00000    1.000000    
      9 Si    c    0.298939 *  0.672088 *  0.633211 *   4.00000    1.000000    
     10 Si    c    0.623370 *  0.296520 *  0.800714 *   4.00000    1.000000    
     11 Si    c    0.675167 *  0.376291 *  0.470332 *   4.00000    1.000000    
     12 Si    c    0.685714 *  0.320406 *  0.132005 *   4.00000    1.000000    
     13 Si    c    0.528771 *  0.419220 *  0.967508 *   4.00000    1.000000    
     14 Ge    c    0.565243 *  0.091557 *  0.300502 *   4.00000    1.000000    
     15 Si    c    0.888963 *  0.466885 *  0.635265 *   4.00000    1.000000    
     16 Ge    c    0.469095 *  0.565658 *  0.463465 *   4.00000    1.000000    
     17 Si    c    0.418603 *  0.887047 *  0.800217 *   4.00000    1.000000    
     18 Si    c    0.106719 *  0.535259 *  0.129220 *   4.00000    1.000000    
     19 Si    c    0.406741 *  0.524700 *  0.364030 *   4.00000    1.000000    
     20 Si    c    0.103814 *  0.582325 *  0.026195 *   4.00000    1.000000    
     21 Si    c    0.470278 *  0.884904 *  0.698721 *   4.00000    1.000000    
     22 Si    c    0.582323 *  0.468684 *  0.865611 *   4.00000    1.000000    
     23 Si    c    0.890738 *  0.415705 *  0.533866 *   4.00000    1.000000    
     24 Si    c    0.530126 *  0.126832 *  0.202626 *   4.00000    1.000000    
     25 Si    c    0.300749 *  0.398544 *  0.850645 *   4.00000    1.000000    
     26 Si    c    0.603060 *  0.913916 *  0.185437 *   4.00000    1.000000    
     27 Si    c    0.099831 *  0.694819 *  0.519228 *   4.00000    1.000000    
     28 Si    c    0.693924 *  0.596057 *  0.352966 *   4.00000    1.000000    
     29 Si    c    0.399767 *  0.094794 *  0.685223 *   4.00000    1.000000    
     30 Si    c    0.889661 *  0.293774 *  0.012107 *   4.00000    1.000000    
     31 Si    c    0.391770 *  0.294223 *  0.486669 *   4.00000    1.000000    
     32 Si    c    0.892415 *  0.605800 *  0.142722 *   4.00000    1.000000    
     33 Si    c    0.700410 *  0.096081 *  0.815288 *   4.00000    1.000000    
     34 Si    c    0.598664 *  0.701053 *  0.980594 *   4.00000    1.000000    
     35 Si    c    0.097935 *  0.395023 *  0.648642 *   4.00000    1.000000    
     36 Si    c    0.291676 *  0.896247 *  0.319684 *   4.00000    1.000000    
     37 Si    c    0.249495 *  0.342640 *  0.950633 *   4.00000    1.000000    
     38 Si    c    0.661742 *  0.909702 *  0.287253 *   4.00000    1.000000    
     39 Si    c    0.090186 *  0.744696 *  0.619782 *   4.00000    1.000000    
     40 Si    c    0.748499 *  0.662413 *  0.454993 *   4.00000    1.000000    
     41 Si    c    0.341413 *  0.088197 *  0.785530 *   4.00000    1.000000    
     42 Si    c    0.901729 *  0.251956 *  0.115001 *   4.00000    1.000000    
     43 Si    c    0.334046 *  0.245870 *  0.383293 *   4.00000    1.000000    
     44 Si    c    0.898726 *  0.660989 *  0.040346 *   4.00000    1.000000    
     45 Si    c    0.749669 *  0.087580 *  0.714753 *   4.00000    1.000000    
     46 Si    c    0.658607 *  0.748375 *  0.880269 *   4.00000    1.000000    
     47 Si    c    0.091488 *  0.338113 *  0.547670 *   4.00000    1.000000    
     48 Si    c    0.248235 *  0.919638 *  0.217347 *   4.00000    1.000000    
     49 Si    c    0.973104 *  0.120729 *  0.965476 *   4.00000    1.000000    
     50 Si    c    0.874349 *  0.838243 *  0.301311 *   4.00000    1.000000    
     51 Si    c    0.149420 *  0.024060 *  0.635447 *   4.00000    1.000000    
     52 Si    c    0.032383 *  0.873976 *  0.469413 *   4.00000    1.000000    
     53 Si    c    0.121485 *  0.147731 *  0.800218 *   4.00000    1.000000    
     54 Si    c    0.847919 *  0.976747 *  0.133798 *   4.00000    1.000000    
     55 Si    c    0.113775 *  0.962596 *  0.368434 *   4.00000    1.000000    
     56 Si    c    0.848132 *  0.884443 *  0.031983 *   4.00000    1.000000    
     57 Si    c    0.028498 *  0.148045 *  0.699405 *   4.00000    1.000000    
     58 Si    c    0.879419 *  0.025099 *  0.864874 *   4.00000    1.000000    
     59 Si    c    0.148227 *  0.114942 *  0.535306 *   4.00000    1.000000    
     60 Si    c    0.966643 *  0.852688 *  0.199050 *   4.00000    1.000000    
     61 O2    c    0.929986 *  0.009240 *  0.002083 *   0.87073    1.000000    
     62 O2    c    0.993591 *  0.924149 *  0.334771 *   0.87073    1.000000    
     63 O2    c    0.068832 *  0.064373 *  0.668140 *   0.87073    1.000000    
     64 O2    c    0.067008 *  0.993171 *  0.502508 *   0.87073    1.000000    
     65 O2    c    0.000633 *  0.066588 *  0.832585 *   0.87073    1.000000    
     66 O2    c    0.926730 *  0.939470 *  0.169235 *   0.87073    1.000000    
     67 O2    c    0.334867 *  0.566196 *  0.325719 *   0.87073    1.000000    
     68 O2    c    0.422916 *  0.758969 *  0.666199 *   0.87073    1.000000    
     69 O2    c    0.231435 *  0.659076 *  0.995958 *   0.87073    1.000000    
     70 O2    c    0.660285 *  0.419952 *  0.833904 *   0.87073    1.000000    
     71 O2    c    0.573124 *  0.244463 *  0.168269 *   0.87073    1.000000    
     72 O2    c    0.762642 *  0.339428 *  0.501505 *   0.87073    1.000000    
     73 O3    c    0.566442 *  0.337441 *  0.999129 *   1.33043    1.000000    
     74 O2    c    0.764166 *  0.418986 *  0.667793 *   0.87073    1.000000    
     75 O3    c    0.653590 *  0.228544 *  0.337166 *   1.33043    1.000000    
     76 O3    c    0.420304 *  0.654140 *  0.499062 *   1.33043    1.000000    
     77 O2    c    0.233629 *  0.589128 *  0.161870 *   0.87073    1.000000    
     78 O2    c    0.340725 *  0.761742 *  0.831920 *   0.87073    1.000000    
     79 O2    c    0.126616 *  0.214822 *  0.971110 *   0.87073    1.000000    
     80 O2    c    0.781308 *  0.897451 *  0.305855 *   0.87073    1.000000    
     81 O2    c    0.089187 *  0.870574 *  0.640377 *   0.87073    1.000000    
     82 O2    c    0.880491 *  0.781453 *  0.474593 *   0.87073    1.000000    
     83 O2    c    0.214391 *  0.086817 *  0.805373 *   0.87073    1.000000    
     84 O2    c    0.908997 *  0.131711 *  0.136645 *   0.87073    1.000000    
     85 O2    c    0.211484 *  0.115392 *  0.362267 *   0.87073    1.000000    
     86 O2    c    0.915487 *  0.798381 *  0.024881 *   0.87073    1.000000    
     87 O2    c    0.874319 *  0.086555 *  0.693921 *   0.87073    1.000000    
     88 O2    c    0.785033 *  0.871138 *  0.859305 *   0.87073    1.000000    
     89 O2    c    0.091499 *  0.210607 *  0.527987 *   0.87073    1.000000    
     90 O2    c    0.121675 *  0.916777 *  0.196013 *   0.87073    1.000000    
     91 O2    c    0.925213 *  0.850733 *  0.250447 *   0.87073    1.000000    
     92 O2    c    0.131564 *  0.063952 *  0.585742 *   0.87073    1.000000    
     93 O2    c    0.933853 *  0.058235 *  0.915863 *   0.87073    1.000000    
     94 O2    c    0.066649 *  0.134624 *  0.750042 *   0.87073    1.000000    
     95 O2    c    0.859053 *  0.929906 *  0.084240 *   0.87073    1.000000    
     96 O2    c    0.066380 *  0.929456 *  0.419141 *   0.87073    1.000000    
     97 O2    c    0.901878 *  0.202039 *  0.974449 *   0.87073    1.000000    
     98 O2    c    0.793290 *  0.687664 *  0.314113 *   0.87073    1.000000    
     99 O2    c    0.302194 *  0.096063 *  0.646962 *   0.87073    1.000000    
    100 O2    c    0.104610 *  0.794506 *  0.480831 *   0.87073    1.000000    
    101 O2    c    0.202474 *  0.299955 *  0.812149 *   0.87073    1.000000    
    102 O2    c    0.696723 *  0.911640 *  0.146434 *   0.87073    1.000000    
    103 O2    c    0.181786 *  0.879387 *  0.355331 *   0.87073    1.000000    
    104 O2    c    0.696253 *  0.802281 *  0.019342 *   0.87073    1.000000    
    105 O2    c    0.100155 *  0.298810 *  0.686692 *   0.87073    1.000000    
    106 O2    c    0.799335 *  0.097274 *  0.853786 *   0.87073    1.000000    
    107 O2    c    0.299419 *  0.185972 *  0.522739 *   0.87073    1.000000    
    108 O2    c    0.897060 *  0.704939 *  0.181515 *   0.87073    1.000000    
    109 O2    c    0.321825 *  0.652647 *  0.246134 *   0.87073    1.000000    
    110 O2    c    0.355646 *  0.671311 *  0.583476 *   0.87073    1.000000    
    111 O2    c    0.319211 *  0.679529 *  0.914469 *   0.87073    1.000000    
    112 O2    c    0.680447 *  0.354919 *  0.750950 *   0.87073    1.000000    
    113 O3    c    0.613957 *  0.305629 *  0.084982 *   1.33043    1.000000    
    114 O2    c    0.671397 *  0.323506 *  0.419286 *   0.87073    1.000000    
    115 O2    c    0.371587 *  0.334003 *  0.968646 *   0.87073    1.000000    
    116 O3    c    0.679553 *  0.038933 *  0.308941 *   1.33043    1.000000    
    117 O2    c    0.958414 *  0.623440 *  0.638632 *   0.87073    1.000000    
    118 O3    c    0.636160 *  0.682452 *  0.473296 *   1.33043    1.000000    
    119 O2    c    0.331720 *  0.956337 *  0.803586 *   0.87073    1.000000    
    120 O2    c    0.033526 *  0.379796 *  0.132207 *   0.87073    1.000000    
    121 O2    c    0.322640 *  0.366304 *  0.363827 *   0.87073    1.000000    
    122 O2    c    0.032746 *  0.666816 *  0.025268 *   0.87073    1.000000    
    123 O2    c    0.626675 *  0.954507 *  0.696359 *   0.87073    1.000000    
    124 O2    c    0.667605 *  0.624886 *  0.862545 *   0.87073    1.000000    
    125 O2    c    0.956939 *  0.326080 *  0.529691 *   0.87073    1.000000    
    126 O2    c    0.371562 *  0.051734 *  0.201012 *   0.87073    1.000000    
    127 O3    c    0.754399 *  0.282615 *  0.003053 *   1.33043    1.000000    
    128 O2    c    0.690682 *  0.460764 *  0.348091 *   0.87073    1.000000    
    129 O2    c    0.534423 *  0.228380 *  0.678126 *   0.87073    1.000000    
    130 O2    c    0.232168 *  0.693630 *  0.511975 *   0.87073    1.000000    
    131 O2    c    0.302488 *  0.532773 *  0.842059 *   0.87073    1.000000    
    132 O2    c    0.465181 *  0.782598 *  0.177561 *   0.87073    1.000000    
    133 O2    c    0.297923 *  0.763429 *  0.320477 *   0.87073    1.000000    
    134 O2    c    0.464121 *  0.701595 *  0.988035 *   0.87073    1.000000    
    135 O2    c    0.231347 *  0.530485 *  0.656242 *   0.87073    1.000000    
    136 O2    c    0.699641 *  0.229909 *  0.823404 *   0.87073    1.000000    
    137 O2    c    0.530769 *  0.301119 *  0.490706 *   0.87073    1.000000    
    138 O2    c    0.762314 *  0.470177 *  0.151085 *   0.87073    1.000000    
    139 O3    c    0.773391 *  0.545923 *  0.018849 *   1.33043    1.000000    
    140 O2    c    0.464340 *  0.255071 *  0.365274 *   0.87073    1.000000    
    141 O2    c    0.751275 *  0.213900 *  0.695725 *   0.87073    1.000000    
    142 O2    c    0.214741 *  0.461728 *  0.527271 *   0.87073    1.000000    
    143 O2    c    0.533895 *  0.750618 *  0.860616 *   0.87073    1.000000    
    144 O2    c    0.254728 *  0.797234 *  0.197005 *   0.87073    1.000000    
    145 O2    c    0.528151 *  0.783478 *  0.302568 *   0.87073    1.000000    
    146 O2    c    0.245097 *  0.467285 *  0.970309 *   0.87073    1.000000    
    147 O2    c    0.217951 *  0.747161 *  0.638714 *   0.87073    1.000000    
    148 O2    c    0.467092 *  0.215558 *  0.805539 *   0.87073    1.000000    
    149 O2    c    0.739540 *  0.530978 *  0.473430 *   0.87073    1.000000    
    150 O2    c    0.777537 *  0.254754 *  0.134308 *   0.87073    1.000000    
    151 O2    c    0.227697 *  0.325058 *  0.896349 *   0.87073    1.000000    
    152 O2    c    0.672734 *  0.913035 *  0.232144 *   0.87073    1.000000    
    153 O2    c    0.091988 *  0.764479 *  0.565604 *   0.87073    1.000000    
    154 O2    c    0.760839 *  0.670917 *  0.399830 *   0.87073    1.000000    
    155 O2    c    0.324418 *  0.089996 *  0.731265 *   0.87073    1.000000    
    156 O2    c    0.898279 *  0.233863 *  0.060896 *   0.87073    1.000000    
    157 O2    c    0.321009 *  0.233451 *  0.437462 *   0.87073    1.000000    
    158 O2    c    0.892323 *  0.670792 *  0.095694 *   0.87073    1.000000    
    159 O2    c    0.770437 *  0.091024 *  0.769100 *   0.87073    1.000000    
    160 O2    c    0.675269 *  0.769840 *  0.934767 *   0.87073    1.000000    
    161 O2    c    0.094231 *  0.321199 *  0.601906 *   0.87073    1.000000    
    162 O2    c    0.232418 *  0.911546 *  0.271392 *   0.87073    1.000000    
    163 O2    c    0.582762 *  0.562169 *  0.990473 *   0.87073    1.000000    
    164 O3    c    0.422575 *  0.020539 *  0.334303 *   1.33043    1.000000    
    165 O2    c    0.972106 *  0.408197 *  0.657928 *   0.87073    1.000000    
    166 O3    c    0.397344 *  0.425373 *  0.498590 *   1.33043    1.000000    
    167 O2    c    0.560759 *  0.970777 *  0.823720 *   0.87073    1.000000    
    168 O2    c    0.018049 *  0.590010 *  0.149034 *   0.87073    1.000000    
    169 O2    c    0.552594 *  0.578235 *  0.344322 *   0.87073    1.000000    
    170 O2    c    0.011662 *  0.438835 *  0.005904 *   0.87073    1.000000    
    171 O2    c    0.413588 *  0.969373 *  0.675984 *   0.87073    1.000000    
    172 O2    c    0.439707 *  0.410836 *  0.842983 *   0.87073    1.000000    
    173 O2    c    0.972108 *  0.555466 *  0.509963 *   0.87073    1.000000    
    174 O2    c    0.584775 *  0.037088 *  0.180603 *   0.87073    1.000000    
    175 O3    c    0.586174 *  0.186697 *  0.251229 *   1.33043    1.000000    
    176 O2    c    0.834276 *  0.413734 *  0.584175 *   0.87073    1.000000    
    177 O2    c    0.582918 *  0.421231 *  0.916717 *   0.87073    1.000000    
    178 O2    c    0.417528 *  0.833217 *  0.749301 *   0.87073    1.000000    
    179 O2    c    0.150945 *  0.579771 *  0.078071 *   0.87073    1.000000    
    180 O3    c    0.399089 *  0.584490 *  0.411246 *   1.33043    1.000000    
    181 F     c    0.472334 *  0.946529 *  0.260877 *   0.56000    1.000000    
    182 F     c    0.091317 *  0.541937 *  0.584279 *   0.56000    1.000000    
    183 F     c    0.446154 *  0.552535 *  0.916325 *   0.56000    1.000000    
    184 F     c    0.549774 *  0.096100 *  0.750926 *   0.56000    1.000000    
    185 F     c    0.851994 *  0.435595 *  0.070846 *   0.56000    1.000000    
    186 F     c    0.524077 *  0.472678 *  0.426672 *   0.56000    1.000000    
    187 O2    s    0.925467 *  0.007481 *  0.001409 *  -2.87073    1.000000    
    188 O2    s    0.993441 *  0.918709 *  0.334717 *  -2.87073    1.000000    
    189 O2    s    0.073336 *  0.069280 *  0.667987 *  -2.87073    1.000000    
    190 O2    s    0.072322 *  0.993348 *  0.502434 *  -2.87073    1.000000    
    191 O2    s    0.000400 *  0.070896 *  0.832622 *  -2.87073    1.000000    
    192 O2    s    0.922600 *  0.934119 *  0.168654 *  -2.87073    1.000000    
    193 O2    s    0.345857 *  0.576034 *  0.326437 *  -2.87073    1.000000    
    194 O2    s    0.415222 *  0.763262 *  0.666226 *  -2.87073    1.000000    
    195 O2    s    0.226683 *  0.647352 *  0.996061 *  -2.87073    1.000000    
    196 O2    s    0.648465 *  0.412417 *  0.833796 *  -2.87073    1.000000    
    197 O2    s    0.580485 *  0.239929 *  0.168095 *  -2.87073    1.000000    
    198 O2    s    0.766224 *  0.351015 *  0.501440 *  -2.87073    1.000000    
    199 O3    s    0.572702 *  0.348937 *  0.998478 *  -3.33043    1.000000    
    200 O2    s    0.768052 *  0.411331 *  0.667853 *  -2.87073    1.000000    
    201 O3    s    0.643780 *  0.228864 *  0.338094 *  -3.33043    1.000000    
    202 O3    s    0.410988 *  0.644162 *  0.500172 *  -3.33043    1.000000    
    203 O2    s    0.229589 *  0.596026 *  0.162157 *  -2.87073    1.000000    
    204 O2    s    0.352534 *  0.765821 *  0.832066 *  -2.87073    1.000000    
    205 O2    s    0.122531 *  0.217694 *  0.968429 *  -2.87073    1.000000    
    206 O2    s    0.778587 *  0.892051 *  0.303304 *  -2.87073    1.000000    
    207 O2    s    0.095764 *  0.874056 *  0.637751 *  -2.87073    1.000000    
    208 O2    s    0.883242 *  0.778817 *  0.471855 *  -2.87073    1.000000    
    209 O2    s    0.217608 *  0.093436 *  0.802806 *  -2.87073    1.000000    
    210 O2    s    0.901854 *  0.127857 *  0.134146 *  -2.87073    1.000000    
    211 O2    s    0.213696 *  0.112591 *  0.365042 *  -2.87073    1.000000    
    212 O2    s    0.906504 *  0.793656 *  0.027208 *  -2.87073    1.000000    
    213 O2    s    0.877830 *  0.093228 *  0.696642 *  -2.87073    1.000000    
    214 O2    s    0.782017 *  0.874862 *  0.862042 *  -2.87073    1.000000    
    215 O2    s    0.097515 *  0.213439 *  0.530747 *  -2.87073    1.000000    
    216 O2    s    0.118456 *  0.910310 *  0.198533 *  -2.87073    1.000000    
    217 O2    s    0.924290 *  0.849582 *  0.250237 *  -2.87073    1.000000    
    218 O2    s    0.135508 *  0.065269 *  0.585594 *  -2.87073    1.000000    
    219 O2    s    0.932288 *  0.061680 *  0.915859 *  -2.87073    1.000000    
    220 O2    s    0.068617 *  0.137654 *  0.750055 *  -2.87073    1.000000    
    221 O2    s    0.856606 *  0.930449 *  0.084332 *  -2.87073    1.000000    
    222 O2    s    0.068145 *  0.927166 *  0.418784 *  -2.87073    1.000000    
    223 O2    s    0.908393 *  0.202953 *  0.977492 *  -2.87073    1.000000    
    224 O2    s    0.792029 *  0.694554 *  0.316603 *  -2.87073    1.000000    
    225 O2    s    0.295985 *  0.088317 *  0.649645 *  -2.87073    1.000000    
    226 O2    s    0.096410 *  0.793186 *  0.483377 *  -2.87073    1.000000    
    227 O2    s    0.203994 *  0.293876 *  0.814868 *  -2.87073    1.000000    
    228 O2    s    0.702775 *  0.918681 *  0.149178 *  -2.87073    1.000000    
    229 O2    s    0.185933 *  0.889742 *  0.353015 *  -2.87073    1.000000    
    230 O2    s    0.702744 *  0.801023 *  0.016858 *  -2.87073    1.000000    
    231 O2    s    0.092328 *  0.292536 *  0.684196 *  -2.87073    1.000000    
    232 O2    s    0.797898 *  0.089553 *  0.851105 *  -2.87073    1.000000    
    233 O2    s    0.292847 *  0.189438 *  0.520403 *  -2.87073    1.000000    
    234 O2    s    0.904093 *  0.710577 *  0.179344 *  -2.87073    1.000000    
    235 O2    s    0.326737 *  0.662800 *  0.246138 *  -2.87073    1.000000    
    236 O2    s    0.344677 *  0.666184 *  0.583578 *  -2.87073    1.000000    
    237 O2    s    0.325279 *  0.673485 *  0.914582 *  -2.87073    1.000000    
    238 O2    s    0.674530 *  0.343188 *  0.750881 *  -2.87073    1.000000    
    239 O3    s    0.627298 *  0.311972 *  0.086330 *  -3.33043    1.000000    
    240 O2    s    0.666478 *  0.328112 *  0.419350 *  -2.87073    1.000000    
    241 O2    s    0.374009 *  0.343667 *  0.966515 *  -2.87073    1.000000    
    242 O3    s    0.669750 *  0.028817 *  0.306030 *  -3.33043    1.000000    
    243 O2    s    0.964987 *  0.619958 *  0.636312 *  -2.87073    1.000000    
    244 O3    s    0.636847 *  0.672370 *  0.470637 *  -3.33043    1.000000    
    245 O2    s    0.341691 *  0.963027 *  0.801341 *  -2.87073    1.000000    
    246 O2    s    0.027727 *  0.383089 *  0.130126 *  -2.87073    1.000000    
    247 O2    s    0.331961 *  0.369415 *  0.365845 *  -2.87073    1.000000    
    248 O2    s    0.026834 *  0.657278 *  0.026882 *  -2.87073    1.000000    
    249 O2    s    0.623542 *  0.961422 *  0.698567 *  -2.87073    1.000000    
    250 O2    s    0.657825 *  0.621850 *  0.864752 *  -2.87073    1.000000    
    251 O2    s    0.963896 *  0.336490 *  0.531971 *  -2.87073    1.000000    
    252 O2    s    0.373734 *  0.044818 *  0.202950 *  -2.87073    1.000000    
    253 O3    s    0.765077 *  0.290068 *  0.006155 *  -3.33043    1.000000    
    254 O2    s    0.683924 *  0.460845 *  0.350579 *  -2.87073    1.000000    
    255 O2    s    0.535127 *  0.221439 *  0.681185 *  -2.87073    1.000000    
    256 O2    s    0.224780 *  0.686338 *  0.514747 *  -2.87073    1.000000    
    257 O2    s    0.310044 *  0.533517 *  0.845327 *  -2.87073    1.000000    
    258 O2    s    0.464009 *  0.788238 *  0.180404 *  -2.87073    1.000000    
    259 O2    s    0.305130 *  0.769839 *  0.318046 *  -2.87073    1.000000    
    260 O2    s    0.463320 *  0.693586 *  0.984836 *  -2.87073    1.000000    
    261 O2    s    0.224148 *  0.530624 *  0.653063 *  -2.87073    1.000000    
    262 O2    s    0.691966 *  0.222706 *  0.820218 *  -2.87073    1.000000    
    263 O2    s    0.531652 *  0.308277 *  0.488137 *  -2.87073    1.000000    
    264 O2    s    0.768802 *  0.470106 *  0.148287 *  -2.87073    1.000000    
    265 O3    s    0.782894 *  0.548195 *  0.022112 *  -3.33043    1.000000    
    266 O2    s    0.465869 *  0.260262 *  0.367480 *  -2.87073    1.000000    
    267 O2    s    0.743398 *  0.208847 *  0.698260 *  -2.87073    1.000000    
    268 O2    s    0.209852 *  0.463756 *  0.529943 *  -2.87073    1.000000    
    269 O2    s    0.531135 *  0.742577 *  0.863165 *  -2.87073    1.000000    
    270 O2    s    0.261119 *  0.800558 *  0.199112 *  -2.87073    1.000000    
    271 O2    s    0.525247 *  0.787183 *  0.300536 *  -2.87073    1.000000    
    272 O2    s    0.253425 *  0.470196 *  0.967656 *  -2.87073    1.000000    
    273 O2    s    0.212332 *  0.739033 *  0.636117 *  -2.87073    1.000000    
    274 O2    s    0.469722 *  0.210100 *  0.802906 *  -2.87073    1.000000    
    275 O2    s    0.733334 *  0.527887 *  0.471193 *  -2.87073    1.000000    
    276 O2    s    0.782066 *  0.260970 *  0.131988 *  -2.87073    1.000000    
    277 O2    s    0.237567 *  0.334567 *  0.897356 *  -2.87073    1.000000    
    278 O2    s    0.664117 *  0.912816 *  0.232661 *  -2.87073    1.000000    
    279 O2    s    0.092574 *  0.755146 *  0.566477 *  -2.87073    1.000000    
    280 O2    s    0.752419 *  0.662073 *  0.400275 *  -2.87073    1.000000    
    281 O2    s    0.334097 *  0.090300 *  0.732228 *  -2.87073    1.000000    
    282 O2    s    0.897786 *  0.241650 *  0.062056 *  -2.87073    1.000000    
    283 O2    s    0.329276 *  0.240749 *  0.436368 *  -2.87073    1.000000    
    284 O2    s    0.892868 *  0.662511 *  0.095530 *  -2.87073    1.000000    
    285 O2    s    0.760937 *  0.091188 *  0.768219 *  -2.87073    1.000000    
    286 O2    s    0.665579 *  0.760477 *  0.933846 *  -2.87073    1.000000    
    287 O2    s    0.094314 *  0.330761 *  0.601129 *  -2.87073    1.000000    
    288 O2    s    0.239988 *  0.910990 *  0.270172 *  -2.87073    1.000000    
    289 O2    s    0.578791 *  0.562922 *  0.987073 *  -2.87073    1.000000    
    290 O3    s    0.418436 *  0.012031 *  0.330447 *  -3.33043    1.000000    
    291 O2    s    0.977073 *  0.413052 *  0.654572 *  -2.87073    1.000000    
    292 O3    s    0.401769 *  0.420629 *  0.494951 *  -3.33043    1.000000    
    293 O2    s    0.561001 *  0.975718 *  0.820373 *  -2.87073    1.000000    
    294 O2    s    0.014307 *  0.585731 *  0.146248 *  -2.87073    1.000000    
    295 O2    s    0.553372 *  0.574792 *  0.347198 *  -2.87073    1.000000    
    296 O2    s    0.008929 *  0.439508 *  0.008754 *  -2.87073    1.000000    
    297 O2    s    0.418189 *  0.974302 *  0.679365 *  -2.87073    1.000000    
    298 O2    s    0.439638 *  0.415735 *  0.846191 *  -2.87073    1.000000    
    299 O2    s    0.977329 *  0.555801 *  0.513394 *  -2.87073    1.000000    
    300 O2    s    0.581325 *  0.032164 *  0.183316 *  -2.87073    1.000000    
    301 O3    s    0.578782 *  0.173876 *  0.249424 *  -3.33043    1.000000    
    302 O2    s    0.845716 *  0.419417 *  0.584276 *  -2.87073    1.000000    
    303 O2    s    0.577388 *  0.426082 *  0.916475 *  -2.87073    1.000000    
    304 O2    s    0.423093 *  0.844181 *  0.749396 *  -2.87073    1.000000    
    305 O2    s    0.141435 *  0.575182 *  0.078448 *  -2.87073    1.000000    
    306 O3    s    0.404347 *  0.576985 *  0.409603 *  -3.33043    1.000000    
    307 F     s    0.478106 *  0.955827 *  0.263357 *  -1.56000    1.000000    
    308 F     s    0.090841 *  0.541767 *  0.584345 *  -1.56000    1.000000    
    309 F     s    0.445442 *  0.553133 *  0.916415 *  -1.56000    1.000000    
    310 F     s    0.550012 *  0.096632 *  0.751021 *  -1.56000    1.000000    
    311 F     s    0.842412 *  0.431737 *  0.068769 *  -1.56000    1.000000    
    312 F     s    0.520170 *  0.478886 *  0.429041 *  -1.56000    1.000000    
--------------------------------------------------------------------------------



********************************************************************************
*  General input information                                                   *
********************************************************************************

  Species output for all configurations : 

--------------------------------------------------------------------------------
  Species    Type    Atomic    Atomic    Charge       Radii (Angs)     Library
                     Number     Mass       (e)     Cova   Ionic  VDW   Symbol
--------------------------------------------------------------------------------
    Si       Core       14      28.09   4.000000   1.200  0.000  2.100          
    O1       Core        8      16.00   1.733957   0.730  0.000  1.360          
    O1       Shell       8       0.00  -3.733957   0.730  0.000  1.360          
    O2       Core        8      16.00   0.870733   0.730  0.000  1.360          
    O2       Shell       8       0.00  -2.870733   0.730  0.000  1.360          
    O3       Core        8      16.00   1.330431   0.730  0.000  1.360          
    O3       Shell       8       0.00  -3.330431   0.730  0.000  1.360          
    F        Core        9      19.00   0.560000   0.710  0.000  1.300          
    F        Shell       9       0.00  -1.560000   0.710  0.000  1.300          
    Ge       Core       32      72.61   4.000000   1.170  0.000  1.750          
--------------------------------------------------------------------------------


  Lattice summation method               =    Ewald          (3-D)
                                         =    Parry          (2-D)
                                         =    Saunders et al (1-D)
  Accuracy factor for lattice sums       =   12.000


  Time limit = Infinity

  Maximum range for interatomic potentials =        16.000000 Angstroms

  Taper potentials to zero over   1.0000 Angstroms using polynomial

  General interatomic potentials :

--------------------------------------------------------------------------------
Atom  Types   Potential         A         B         C         D     Cutoffs(Ang)
  1     2                                                            Min    Max 
--------------------------------------------------------------------------------
Si   c O1   s Buckingham    0.132E+04 0.318      10.1      0.00     0.000 16.000
Si   c O2   s Buckingham    0.132E+04 0.318      10.1      0.00     0.000 16.000
Si   c O3   s Buckingham    0.132E+04 0.318      10.1      0.00     0.000 16.000
Ge   c O1   s Buckingham    0.150E+04 0.326      16.8      0.00     0.000 16.000
Ge   c O2   s Buckingham    0.150E+04 0.326      16.8      0.00     0.000 16.000
Ge   c O3   s Buckingham    0.150E+04 0.326      16.8      0.00     0.000 16.000
O1   s O1   s Buckingham    0.228E+05 0.149      10.9      0.00     0.000 16.000
O1   s O2   s Buckingham    0.228E+05 0.149      10.9      0.00     0.000 16.000
O1   s O3   s Buckingham    0.228E+05 0.149      10.9      0.00     0.000 16.000
O2   s O2   s Buckingham    0.228E+05 0.149      10.9      0.00     0.000 16.000
O2   s O3   s Buckingham    0.228E+05 0.149      10.9      0.00     0.000 16.000
O3   s O3   s Buckingham    0.228E+05 0.149      10.9      0.00     0.000 16.000
Si   c F    s Buckingham     977.     0.282      0.00      0.00     0.000 16.000
Ge   c F    s Buckingham     681.     0.320      0.00      0.00     0.000 16.000
F    s F    s Buckingham     540.     0.262      0.00      0.00     0.000 16.000
O1   s F    s Buckingham    0.168E+04 0.268      0.00      0.00     0.000 16.000
O2   s F    s Buckingham    0.168E+04 0.268      0.00      0.00     0.000 16.000
O3   s F    s Buckingham    0.168E+04 0.268      0.00      0.00     0.000 16.000
O2   c O2   s Spring (c-s)   76.0      0.00      0.00      0.00     0.000  0.800
O3   c O3   s Spring (c-s)   128.      0.00      0.00      0.00     0.000  0.800
O1   c O1   s Spring (c-s)   180.      0.00      0.00      0.00     0.000  0.800
F    c F    s Spring (c-s)   33.5      0.00      0.00      0.00     0.000  0.800
--------------------------------------------------------------------------------

  General Three-body potentials :

  Harmonic form:

--------------------------------------------------------------------------------
Atom    Atom    Atom           Force Constants            Theta     Cutoffs  
  1       2       3     (eVrad**-2/eVrad**-3/eVrad**-4)   (deg)  1-2  1-3  2-3
--------------------------------------------------------------------------------
Si    c O1    s O1    s  1.261        0.0000    0.0000   109.470 0.00 0.00 0.00
                                                                 1.90 1.90 3.50
Si    c O1    s O2    s  1.261        0.0000    0.0000   109.470 0.00 0.00 0.00
                                                                 1.90 1.90 3.50
Si    c O2    s O2    s  1.261        0.0000    0.0000   109.470 0.00 0.00 0.00
                                                                 1.90 1.90 3.50
--------------------------------------------------------------------------------

********************************************************************************
*  Output for configuration   1                                                *
********************************************************************************


  Components of energy : 

--------------------------------------------------------------------------------
  Interatomic potentials     =        2066.54585921 eV
  Three-body potentials      =           0.48381027 eV
  Monopole - monopole (real) =       -6616.63532983 eV
  Monopole - monopole (recip)=       -3171.37912105 eV
  Monopole - monopole (total)=       -9788.01445088 eV
  Neutralising energy        =          -6.46012178 eV
--------------------------------------------------------------------------------
  Total lattice energy       =       -7727.44490318 eV
--------------------------------------------------------------------------------
  Total lattice energy       =         -745580.3083 kJ/(mole unit cells)
--------------------------------------------------------------------------------


  Number of variables =      939

  Maximum number of calculations  =          5000
  Maximum Hessian update interval =            10
  Maximum step size               =   0.100000000
  Maximum parameter tolerance     =   0.000010000
  Maximum function  tolerance     =   0.000010000
  Maximum gradient  tolerance     =   0.001000000
  Maximum gradient  component     =   0.010000000

  Symmetry not applied to optimisation

  Cell parameters to be optimised using strains

  Newton-Raphson optimiser to be used

  BFGS hessian update to be used

  Dumpfile to be written after every cycle

  Start of bulk optimisation :

  Cycle:      0 Energy:     -7727.444903  Gnorm:      0.005992  CPU:    2.021
  ** Hessian calculated **
  Cycle:      1 Energy:     -7727.467631  Gnorm:      0.005502  CPU:    6.734
  Cycle:      2 Energy:     -7727.501830  Gnorm:      0.004655  CPU:   11.755
  Cycle:      3 Energy:     -7727.537683  Gnorm:      0.003620  CPU:   16.079
  Cycle:      4 Energy:     -7727.572200  Gnorm:      0.002539  CPU:   20.408
  Cycle:      5 Energy:     -7727.584218  Gnorm:      0.001796  CPU:   24.740
  Cycle:      6 Energy:     -7727.587170  Gnorm:      0.001086  CPU:   29.076
  Cycle:      7 Energy:     -7727.587912  Gnorm:      0.000610  CPU:   33.375
  Cycle:      8 Energy:     -7727.588100  Gnorm:      0.000326  CPU:   37.700
  Cycle:      9 Energy:     -7727.588133  Gnorm:      0.000232  CPU:   40.596
  Cycle:     10 Energy:     -7727.588148  Gnorm:      0.000164  CPU:   43.512
  ** Hessian calculated **
  Cycle:     11 Energy:     -7727.588149  Gnorm:      0.000085  CPU:   48.107
  Cycle:     12 Energy:     -7727.588149  Gnorm:      0.000062  CPU:   51.018
  Cycle:     13 Energy:     -7727.588149  Gnorm:      0.000046  CPU:   53.917


  **** Optimisation achieved ****


  Final energy =   -7727.58814877 eV
  Final Gnorm  =       0.00003491

  Components of energy : 

--------------------------------------------------------------------------------
  Interatomic potentials     =        2067.14363879 eV
  Three-body potentials      =           0.47471607 eV
  Monopole - monopole (real) =       -6618.86399158 eV
  Monopole - monopole (recip)=       -3169.88543021 eV
  Monopole - monopole (total)=       -9788.74942179 eV
  Neutralising energy        =          -6.45708184 eV
--------------------------------------------------------------------------------
  Total lattice energy       =       -7727.58814877 eV
--------------------------------------------------------------------------------
  Total lattice energy       =         -745594.1294 kJ/(mole unit cells)
--------------------------------------------------------------------------------

  Final fractional coordinates of atoms :

--------------------------------------------------------------------------------
   No.  Atomic        x           y          z          Radius
        Label       (Frac)      (Frac)     (Frac)       (Angs) 
--------------------------------------------------------------------------------
     1  Ge    c     0.699600    0.375700    0.033890    0.000000
     2  Si    c     0.586376    0.289860    0.368058    0.000000
     3  Si    c     0.652059    0.272357    0.700520    0.000000
     4  Si    c     0.271392    0.591447    0.532005    0.000000
     5  Si    c     0.358754    0.657682    0.865340    0.000000
     6  Si    c     0.297059    0.692879    0.197480    0.000000
     7  Si    c     0.345662    0.676002    0.299240    0.000000
     8  Si    c     0.306847    0.606366    0.965337    0.000000
     9  Si    c     0.270435    0.647689    0.633761    0.000000
    10  Si    c     0.600051    0.275067    0.801127    0.000000
    11  Si    c     0.641646    0.350285    0.470932    0.000000
    12  Si    c     0.666294    0.306575    0.131610    0.000000
    13  Si    c     0.516277    0.404338    0.968108    0.000000
    14  Ge    c     0.536986    0.070587    0.300523    0.000000
    15  Si    c     0.860647    0.442155    0.635667    0.000000
    16  Ge    c     0.435664    0.538922    0.463865    0.000000
    17  Si    c     0.396184    0.866148    0.800824    0.000000
    18  Si    c     0.087043    0.520008    0.130309    0.000000
    19  Si    c     0.373748    0.499907    0.364327    0.000000
    20  Si    c     0.092749    0.572734    0.027484    0.000000
    21  Si    c     0.444368    0.860944    0.699102    0.000000
    22  Si    c     0.563983    0.451072    0.865586    0.000000
    23  Si    c     0.857771    0.388670    0.534318    0.000000
    24  Si    c     0.506938    0.111610    0.202386    0.000000
    25  Si    c     0.282366    0.379795    0.851057    0.000000
    26  Si    c     0.579703    0.898263    0.186121    0.000000
    27  Si    c     0.066749    0.667365    0.519779    0.000000
    28  Si    c     0.660516    0.571175    0.353134    0.000000
    29  Si    c     0.373241    0.070397    0.685535    0.000000
    30  Si    c     0.880118    0.284552    0.011806    0.000000
    31  Si    c     0.358214    0.267671    0.487001    0.000000
    32  Si    c     0.873922    0.591630    0.143421    0.000000
    33  Si    c     0.677501    0.074738    0.815922    0.000000
    34  Si    c     0.584636    0.685555    0.980940    0.000000
    35  Si    c     0.069244    0.370516    0.649063    0.000000
    36  Si    c     0.264158    0.876417    0.320519    0.000000
    37  Si    c     0.236557    0.326695    0.951561    0.000000
    38  Si    c     0.634246    0.889626    0.288327    0.000000
    39  Si    c     0.060988    0.719620    0.620328    0.000000
    40  Si    c     0.715045    0.636363    0.455311    0.000000
    41  Si    c     0.318472    0.066621    0.786125    0.000000
    42  Si    c     0.882697    0.237726    0.115128    0.000000
    43  Si    c     0.300935    0.221196    0.383468    0.000000
    44  Si    c     0.892645    0.657665    0.041237    0.000000
    45  Si    c     0.723620    0.063442    0.715142    0.000000
    46  Si    c     0.639975    0.730150    0.880221    0.000000
    47  Si    c     0.058673    0.311079    0.548119    0.000000
    48  Si    c     0.225014    0.904146    0.217843    0.000000
    49  Si    c     0.959111    0.108056    0.965724    0.000000
    50  Si    c     0.843519    0.813767    0.302010    0.000000
    51  Si    c     0.121702    0.999267    0.636341    0.000000
    52  Si    c     0.999224    0.847179    0.470207    0.000000
    53  Si    c     0.100742    0.128893    0.800990    0.000000
    54  Si    c     0.825660    0.961783    0.134959    0.000000
    55  Si    c     0.082736    0.937779    0.369345    0.000000
    56  Si    c     0.832697    0.873640    0.033102    0.000000
    57  Si    c     0.002814    0.124822    0.700348    0.000000
    58  Si    c     0.859317    0.007375    0.865790    0.000000
    59  Si    c     0.115325    0.087869    0.536026    0.000000
    60  Si    c     0.942680    0.835672    0.200255    0.000000
    61  O2    c     0.911875    0.999975    0.003837    0.000000
    62  O2    c     0.961101    0.896250    0.336273    0.000000
    63  O2    c     0.043220    0.040239    0.669721    0.000000
    64  O2    c     0.032937    0.964657    0.504013    0.000000
    65  O2    c     0.981061    0.050015    0.833897    0.000000
    66  O2    c     0.902536    0.923260    0.170881    0.000000
    67  O2    c     0.304555    0.544895    0.326067    0.000000
    68  O2    c     0.394918    0.734692    0.666562    0.000000
    69  O2    c     0.220812    0.645946    0.997481    0.000000
    70  O2    c     0.639304    0.399848    0.833697    0.000000
    71  O2    c     0.552117    0.228815    0.167401    0.000000
    72  O2    c     0.729123    0.313212    0.502180    0.000000
    73  O3    c     0.562359    0.330039    0.999488    0.000000
    74  O2    c     0.736208    0.394337    0.668164    0.000000
    75  O3    c     0.622706    0.206319    0.337537    0.000000
    76  O3    c     0.386793    0.626961    0.499382    0.000000
    77  O2    c     0.212683    0.573019    0.163244    0.000000
    78  O2    c     0.319624    0.741255    0.832809    0.000000
    79  O2    c     0.113063    0.197517    0.971299    0.000000
    80  O2    c     0.752615    0.875210    0.306675    0.000000
    81  O2    c     0.061083    0.845756    0.641022    0.000000
    82  O2    c     0.847141    0.755495    0.474578    0.000000
    83  O2    c     0.192144    0.066336    0.805978    0.000000
    84  O2    c     0.887764    0.116697    0.137201    0.000000
    85  O2    c     0.178396    0.090643    0.362642    0.000000
    86  O2    c     0.908194    0.794867    0.026661    0.000000
    87  O2    c     0.848624    0.062292    0.694824    0.000000
    88  O2    c     0.766331    0.853676    0.859639    0.000000
    89  O2    c     0.058012    0.183095    0.528678    0.000000
    90  O2    c     0.097722    0.901481    0.197253    0.000000
    91  O2    c     0.897696    0.828898    0.251491    0.000000
    92  O2    c     0.101832    0.039365    0.586819    0.000000
    93  O2    c     0.914208    0.041305    0.916877    0.000000
    94  O2    c     0.043368    0.115009    0.751118    0.000000
    95  O2    c     0.837543    0.915022    0.085504    0.000000
    96  O2    c     0.036650    0.905016    0.420250    0.000000
    97  O2    c     0.894279    0.195614    0.973780    0.000000
    98  O2    c     0.759520    0.662821    0.314102    0.000000
    99  O2    c     0.274593    0.070429    0.647362    0.000000
   100  O2    c     0.070194    0.766477    0.481344    0.000000
   101  O2    c     0.183368    0.280918    0.812818    0.000000
   102  O2    c     0.674599    0.897442    0.147364    0.000000
   103  O2    c     0.152927    0.857090    0.355873    0.000000
   104  O2    c     0.682519    0.787162    0.019421    0.000000
   105  O2    c     0.073233    0.274937    0.687061    0.000000
   106  O2    c     0.777608    0.077738    0.854421    0.000000
   107  O2    c     0.265726    0.158459    0.522752    0.000000
   108  O2    c     0.875548    0.688978    0.182145    0.000000
   109  O2    c     0.298043    0.636141    0.246749    0.000000
   110  O2    c     0.324341    0.645133    0.583682    0.000000
   111  O2    c     0.301927    0.660872    0.915371    0.000000
   112  O2    c     0.654886    0.331107    0.750979    0.000000
   113  O3    c     0.604254    0.300160    0.083754    0.000000
   114  O2    c     0.637525    0.297916    0.419828    0.000000
   115  O2    c     0.358905    0.318593    0.969777    0.000000
   116  O3    c     0.652012    0.018806    0.309678    0.000000
   117  O2    c     0.929613    0.598489    0.639264    0.000000
   118  O3    c     0.602570    0.655738    0.473675    0.000000
   119  O2    c     0.308898    0.934911    0.804345    0.000000
   120  O2    c     0.013299    0.364800    0.133264    0.000000
   121  O2    c     0.289330    0.341522    0.363805    0.000000
   122  O2    c     0.026268    0.661897    0.026938    0.000000
   123  O2    c     0.600715    0.930431    0.696647    0.000000
   124  O2    c     0.649185    0.607184    0.862125    0.000000
   125  O2    c     0.923996    0.299056    0.530217    0.000000
   126  O2    c     0.348109    0.035747    0.200832    0.000000
   127  O3    c     0.747366    0.277559    0.002700    0.000000
   128  O2    c     0.657112    0.436028    0.348464    0.000000
   129  O2    c     0.507686    0.203561    0.678199    0.000000
   130  O2    c     0.198723    0.666005    0.512242    0.000000
   131  O2    c     0.283288    0.513656    0.842778    0.000000
   132  O2    c     0.441776    0.767940    0.177935    0.000000
   133  O2    c     0.269500    0.743158    0.320913    0.000000
   134  O2    c     0.450123    0.685561    0.988543    0.000000
   135  O2    c     0.202604    0.505816    0.656567    0.000000
   136  O2    c     0.676390    0.208308    0.823673    0.000000
   137  O2    c     0.497290    0.274908    0.491208    0.000000
   138  O2    c     0.744211    0.455893    0.151319    0.000000
   139  O3    c     0.769831    0.543303    0.018028    0.000000
   140  O2    c     0.431144    0.230372    0.365505    0.000000
   141  O2    c     0.724593    0.189180    0.695777    0.000000
   142  O2    c     0.181552    0.434645    0.527607    0.000000
   143  O2    c     0.514812    0.731774    0.860710    0.000000
   144  O2    c     0.231306    0.781641    0.197619    0.000000
   145  O2    c     0.500403    0.764275    0.304027    0.000000
   146  O2    c     0.231255    0.450552    0.971622    0.000000
   147  O2    c     0.188991    0.722089    0.639010    0.000000
   148  O2    c     0.444057    0.193824    0.806101    0.000000
   149  O2    c     0.705896    0.504828    0.473870    0.000000
   150  O2    c     0.757733    0.240277    0.133370    0.000000
   151  O2    c     0.212548    0.307726    0.897353    0.000000
   152  O2    c     0.646194    0.894210    0.233187    0.000000
   153  O2    c     0.060697    0.738180    0.566079    0.000000
   154  O2    c     0.726979    0.645284    0.400103    0.000000
   155  O2    c     0.299796    0.067209    0.731847    0.000000
   156  O2    c     0.884585    0.223006    0.060927    0.000000
   157  O2    c     0.287752    0.208241    0.437655    0.000000
   158  O2    c     0.877317    0.659306    0.096417    0.000000
   159  O2    c     0.745487    0.068020    0.769507    0.000000
   160  O2    c     0.658792    0.752931    0.934644    0.000000
   161  O2    c     0.063314    0.295541    0.602406    0.000000
   162  O2    c     0.208799    0.895872    0.271903    0.000000
   163  O2    c     0.569434    0.547396    0.990856    0.000000
   164  O3    c     0.395258    0.999309    0.335113    0.000000
   165  O2    c     0.943744    0.383652    0.658640    0.000000
   166  O3    c     0.363797    0.398526    0.499069    0.000000
   167  O2    c     0.538079    0.949771    0.824470    0.000000
   168  O2    c     0.999287    0.575814    0.149973    0.000000
   169  O2    c     0.519220    0.553082    0.344560    0.000000
   170  O2    c     0.000221    0.430898    0.006434    0.000000
   171  O2    c     0.387117    0.945065    0.676442    0.000000
   172  O2    c     0.421410    0.393209    0.843007    0.000000
   173  O2    c     0.938983    0.528441    0.510465    0.000000
   174  O2    c     0.562377    0.021908    0.181225    0.000000
   175  O3    c     0.560156    0.168590    0.251406    0.000000
   176  O2    c     0.803542    0.387742    0.584873    0.000000
   177  O2    c     0.566586    0.405179    0.916715    0.000000
   178  O2    c     0.393576    0.810740    0.750020    0.000000
   179  O2    c     0.135363    0.566294    0.079588    0.000000
   180  O3    c     0.365446    0.558262    0.411669    0.000000
   181  F     c     0.446049    0.928112    0.261142    0.000000
   182  F     c     0.059559    0.515713    0.584703    0.000000
   183  F     c     0.429636    0.535316    0.916773    0.000000
   184  F     c     0.524503    0.072482    0.751201    0.000000
   185  F     c     0.844265    0.429782    0.071371    0.000000
   186  F     c     0.490266    0.446397    0.427016    0.000000
   187  O2    s     0.908023    0.997518    0.002945    0.000000
   188  O2    s     0.961347    0.891516    0.336065    0.000000
   189  O2    s     0.047486    0.045153    0.669414    0.000000
   190  O2    s     0.038478    0.965232    0.503774    0.000000
   191  O2    s     0.980622    0.053981    0.833840    0.000000
   192  O2    s     0.898624    0.917983    0.170194    0.000000
   193  O2    s     0.315599    0.554547    0.326853    0.000000
   194  O2    s     0.387427    0.738945    0.666600    0.000000
   195  O2    s     0.215481    0.634171    0.997551    0.000000
   196  O2    s     0.627530    0.392406    0.833655    0.000000
   197  O2    s     0.559272    0.224536    0.167353    0.000000
   198  O2    s     0.732788    0.324705    0.502089    0.000000
   199  O3    s     0.567358    0.341489    0.998579    0.000000
   200  O2    s     0.740180    0.386575    0.668211    0.000000
   201  O3    s     0.612732    0.206372    0.338422    0.000000
   202  O3    s     0.377543    0.616975    0.500486    0.000000
   203  O2    s     0.208502    0.580174    0.163438    0.000000
   204  O2    s     0.331547    0.745432    0.832902    0.000000
   205  O2    s     0.108852    0.200857    0.968730    0.000000
   206  O2    s     0.749748    0.869820    0.304129    0.000000
   207  O2    s     0.067581    0.849210    0.638414    0.000000
   208  O2    s     0.849901    0.752760    0.471968    0.000000
   209  O2    s     0.195424    0.073023    0.803431    0.000000
   210  O2    s     0.880729    0.112887    0.134720    0.000000
   211  O2    s     0.180831    0.087863    0.365447    0.000000
   212  O2    s     0.898591    0.789074    0.028843    0.000000
   213  O2    s     0.852090    0.069065    0.697488    0.000000
   214  O2    s     0.763205    0.857337    0.862399    0.000000
   215  O2    s     0.064148    0.186011    0.531401    0.000000
   216  O2    s     0.094554    0.894824    0.199687    0.000000
   217  O2    s     0.896820    0.828019    0.251272    0.000000
   218  O2    s     0.105635    0.040373    0.586608    0.000000
   219  O2    s     0.913296    0.045171    0.916824    0.000000
   220  O2    s     0.045362    0.117719    0.751087    0.000000
   221  O2    s     0.835665    0.915970    0.085541    0.000000
   222  O2    s     0.037886    0.902433    0.419836    0.000000
   223  O2    s     0.899871    0.195700    0.977019    0.000000
   224  O2    s     0.758645    0.669755    0.316665    0.000000
   225  O2    s     0.268494    0.062915    0.650079    0.000000
   226  O2    s     0.062246    0.765359    0.483931    0.000000
   227  O2    s     0.184796    0.274911    0.815516    0.000000
   228  O2    s     0.680539    0.904251    0.150095    0.000000
   229  O2    s     0.157005    0.867472    0.353623    0.000000
   230  O2    s     0.689000    0.786407    0.017078    0.000000
   231  O2    s     0.065324    0.268636    0.684621    0.000000
   232  O2    s     0.776244    0.070031    0.851788    0.000000
   233  O2    s     0.259254    0.162093    0.520506    0.000000
   234  O2    s     0.882680    0.694711    0.180030    0.000000
   235  O2    s     0.302790    0.646293    0.246820    0.000000
   236  O2    s     0.313507    0.640124    0.583862    0.000000
   237  O2    s     0.308146    0.654932    0.915481    0.000000
   238  O2    s     0.648981    0.319386    0.750982    0.000000
   239  O3    s     0.617136    0.305730    0.085744    0.000000
   240  O2    s     0.632708    0.302595    0.419889    0.000000
   241  O2    s     0.361144    0.328072    0.967593    0.000000
   242  O3    s     0.642286    0.008547    0.306748    0.000000
   243  O2    s     0.936249    0.595079    0.636907    0.000000
   244  O3    s     0.603348    0.645758    0.471004    0.000000
   245  O2    s     0.318870    0.941650    0.802068    0.000000
   246  O2    s     0.007706    0.368200    0.131090    0.000000
   247  O2    s     0.298656    0.344631    0.365858    0.000000
   248  O2    s     0.019804    0.652226    0.028442    0.000000
   249  O2    s     0.597551    0.937253    0.698853    0.000000
   250  O2    s     0.639454    0.604134    0.864399    0.000000
   251  O2    s     0.930934    0.309423    0.532464    0.000000
   252  O2    s     0.350263    0.029026    0.202803    0.000000
   253  O3    s     0.758571    0.284911    0.005850    0.000000
   254  O2    s     0.650404    0.436184    0.350948    0.000000
   255  O2    s     0.508303    0.196579    0.681288    0.000000
   256  O2    s     0.191414    0.658772    0.515063    0.000000
   257  O2    s     0.290954    0.514373    0.846006    0.000000
   258  O2    s     0.440757    0.773509    0.180862    0.000000
   259  O2    s     0.276935    0.749652    0.318571    0.000000
   260  O2    s     0.449285    0.677504    0.985377    0.000000
   261  O2    s     0.195501    0.506082    0.653421    0.000000
   262  O2    s     0.668729    0.201132    0.820536    0.000000
   263  O2    s     0.498197    0.282051    0.488634    0.000000
   264  O2    s     0.750721    0.456167    0.148546    0.000000
   265  O3    s     0.778951    0.545056    0.021546    0.000000
   266  O2    s     0.432675    0.235585    0.367731    0.000000
   267  O2    s     0.716780    0.184096    0.698360    0.000000
   268  O2    s     0.176695    0.436632    0.530299    0.000000
   269  O2    s     0.512205    0.723790    0.863297    0.000000
   270  O2    s     0.237765    0.785071    0.199730    0.000000
   271  O2    s     0.497498    0.767782    0.301919    0.000000
   272  O2    s     0.239567    0.453548    0.968928    0.000000
   273  O2    s     0.183462    0.714008    0.636467    0.000000
   274  O2    s     0.446713    0.188453    0.803462    0.000000
   275  O2    s     0.699746    0.501746    0.471645    0.000000
   276  O2    s     0.762525    0.246517    0.131214    0.000000
   277  O2    s     0.222358    0.317281    0.898261    0.000000
   278  O2    s     0.637796    0.894208    0.233637    0.000000
   279  O2    s     0.061325    0.728869    0.566985    0.000000
   280  O2    s     0.718657    0.636483    0.400536    0.000000
   281  O2    s     0.309467    0.067474    0.732773    0.000000
   282  O2    s     0.883947    0.230545    0.062066    0.000000
   283  O2    s     0.296033    0.215491    0.436569    0.000000
   284  O2    s     0.878380    0.651591    0.096178    0.000000
   285  O2    s     0.736053    0.068237    0.768664    0.000000
   286  O2    s     0.649068    0.743519    0.933805    0.000000
   287  O2    s     0.063434    0.305087    0.601594    0.000000
   288  O2    s     0.216028    0.894940    0.270701    0.000000
   289  O2    s     0.565554    0.548413    0.987487    0.000000
   290  O3    s     0.390694    0.990739    0.331236    0.000000
   291  O2    s     0.948744    0.388477    0.655228    0.000000
   292  O3    s     0.368214    0.393771    0.495412    0.000000
   293  O2    s     0.538410    0.954751    0.821103    0.000000
   294  O2    s     0.995415    0.571435    0.147176    0.000000
   295  O2    s     0.520052    0.549717    0.347430    0.000000
   296  O2    s     0.997834    0.431424    0.009304    0.000000
   297  O2    s     0.391771    0.949978    0.679794    0.000000
   298  O2    s     0.421272    0.397979    0.846245    0.000000
   299  O2    s     0.944207    0.528695    0.513894    0.000000
   300  O2    s     0.558737    0.016942    0.183860    0.000000
   301  O3    s     0.552912    0.156013    0.249418    0.000000
   302  O2    s     0.815039    0.393442    0.584866    0.000000
   303  O2    s     0.561223    0.410045    0.916435    0.000000
   304  O2    s     0.399107    0.821693    0.750025    0.000000
   305  O2    s     0.125788    0.561906    0.079836    0.000000
   306  O3    s     0.370790    0.550855    0.409988    0.000000
   307  F     s     0.452149    0.937881    0.263793    0.000000
   308  F     s     0.058979    0.515523    0.584768    0.000000
   309  F     s     0.428884    0.535917    0.916856    0.000000
   310  F     s     0.524656    0.072916    0.751272    0.000000
   311  F     s     0.833844    0.425969    0.068817    0.000000
   312  F     s     0.486321    0.452629    0.429413    0.000000
--------------------------------------------------------------------------------

  Final Cartesian lattice vectors (Angstroms) :

       11.978750    0.004490   -0.009133
       -6.010864   10.370079    0.016994
       -0.174568   -0.479547   29.471522


  Final cell parameters and derivatives :

--------------------------------------------------------------------------------
       a           11.978755 Angstrom     dE/de1(xx)     0.001255 eV/strain
       b           11.986213 Angstrom     dE/de2(yy)     0.000846 eV/strain
       c           29.475940 Angstrom     dE/de3(zz)     0.001293 eV/strain
       alpha       90.555088 Degrees      dE/de4(yz)    -0.000377 eV/strain
       beta        90.383359 Degrees      dE/de5(xz)    -0.000052 eV/strain
       gamma      120.076650 Degrees      dE/de6(xy)     0.000690 eV/strain
--------------------------------------------------------------------------------

  Primitive cell volume =          3661.819747 Angs**3

  Density of cell =      1.747244 g/cm**3

  Non-primitive cell volume =          3661.819747 Angs**3


  Final internal derivatives :

--------------------------------------------------------------------------------
   No.  Atomic          a             b             c           Radius
        Label          (eV)          (eV)          (eV)        (eV/Angs)
--------------------------------------------------------------------------------
      1 Ge    c       0.000000      0.000000      0.000000      0.000000
      2 Si    c       0.000395      0.000573      0.000265      0.000000
      3 Si    c      -0.000174      0.000101     -0.000604      0.000000
      4 Si    c       0.000260      0.000338      0.000182      0.000000
      5 Si    c       0.000790     -0.000303      0.000329      0.000000
      6 Si    c       0.000349      0.000284      0.000563      0.000000
      7 Si    c       0.000489      0.000893     -0.000179      0.000000
      8 Si    c       0.001277     -0.000625     -0.000540      0.000000
      9 Si    c       0.000030      0.000190     -0.000111      0.000000
     10 Si    c      -0.000539     -0.000388     -0.001082      0.000000
     11 Si    c       0.000044      0.000184     -0.000049      0.000000
     12 Si    c       0.001333      0.000372      0.007291      0.000000
     13 Si    c      -0.001339      0.001365     -0.004288      0.000000
     14 Ge    c      -0.000260     -0.000841     -0.001185      0.000000
     15 Si    c      -0.000167     -0.000100      0.000270      0.000000
     16 Ge    c       0.000549      0.000087     -0.000001      0.000000
     17 Si    c       0.000167     -0.000058     -0.000081      0.000000
     18 Si    c       0.000802      0.000169      0.001496      0.000000
     19 Si    c       0.000822      0.000137      0.001188      0.000000
     20 Si    c       0.000292     -0.000859      0.000357      0.000000
     21 Si    c       0.000183      0.000229      0.000585      0.000000
     22 Si    c      -0.000707      0.000827     -0.000799      0.000000
     23 Si    c       0.000457      0.000386     -0.000010      0.000000
     24 Si    c      -0.000265     -0.001057      0.001170      0.000000
     25 Si    c       0.000557     -0.000064      0.000679      0.000000
     26 Si    c      -0.000215      0.000136     -0.000181      0.000000
     27 Si    c       0.000546      0.000078      0.000344      0.000000
     28 Si    c       0.000541      0.000376      0.000555      0.000000
     29 Si    c      -0.000067      0.000156      0.000176      0.000000
     30 Si    c       0.000946      0.001202      0.001064      0.000000
     31 Si    c       0.000253      0.000046     -0.000210      0.000000
     32 Si    c       0.000715      0.000017     -0.000615      0.000000
     33 Si    c      -0.000226     -0.000347     -0.000201      0.000000
     34 Si    c      -0.000253      0.000083     -0.001226      0.000000
     35 Si    c      -0.000028      0.000391     -0.000797      0.000000
     36 Si    c       0.000730      0.000208     -0.000198      0.000000
     37 Si    c       0.000158     -0.000094     -0.000769      0.000000
     38 Si    c      -0.000268      0.000631     -0.000502      0.000000
     39 Si    c       0.000068     -0.000358     -0.000563      0.000000
     40 Si    c       0.000347      0.000170     -0.000216      0.000000
     41 Si    c      -0.000115      0.000272     -0.000240      0.000000
     42 Si    c       0.000873     -0.000169      0.000303      0.000000
     43 Si    c       0.000672      0.000309      0.000724      0.000000
     44 Si    c       0.000183     -0.001920     -0.004022      0.000000
     45 Si    c      -0.000175     -0.000127      0.000075      0.000000
     46 Si    c       0.000069      0.000197      0.000476      0.000000
     47 Si    c       0.000332      0.000761      0.000246      0.000000
     48 Si    c       0.000495     -0.000394      0.000538      0.000000
     49 Si    c      -0.000093      0.001139     -0.000581      0.000000
     50 Si    c       0.000581      0.000092      0.000291      0.000000
     51 Si    c       0.000143      0.000129     -0.000053      0.000000
     52 Si    c       0.000120      0.000124     -0.000114      0.000000
     53 Si    c       0.000221      0.000007      0.000457      0.000000
     54 Si    c      -0.000462      0.000123      0.001501      0.000000
     55 Si    c       0.000322      0.000340      0.000750      0.000000
     56 Si    c      -0.000117     -0.000157      0.001085      0.000000
     57 Si    c      -0.000171      0.000181     -0.000373      0.000000
     58 Si    c       0.000198      0.000089     -0.001885      0.000000
     59 Si    c       0.000461      0.000565      0.000012      0.000000
     60 Si    c       0.000777     -0.000280     -0.000482      0.000000
     61 O2    c       0.001363     -0.001370      0.001381      0.000000
     62 O2    c       0.000710      0.001177     -0.000221      0.000000
     63 O2    c      -0.000038      0.000082     -0.000107      0.000000
     64 O2    c       0.000053      0.000315      0.000300      0.000000
     65 O2    c       0.000053      0.000114     -0.000235      0.000000
     66 O2    c       0.000048     -0.000051     -0.000167      0.000000
     67 O2    c       0.000412      0.000255      0.000348      0.000000
     68 O2    c      -0.000328      0.000136     -0.000046      0.000000
     69 O2    c       0.000768      0.000074     -0.000607      0.000000
     70 O2    c       0.000052      0.000119     -0.000453      0.000000
     71 O2    c      -0.000496     -0.000792      0.002344      0.000000
     72 O2    c       0.000470      0.000499     -0.000071      0.000000
     73 O3    c      -0.002596     -0.001046      0.001712      0.000000
     74 O2    c       0.000109     -0.000271      0.000060      0.000000
     75 O3    c      -0.000040      0.000108     -0.000606      0.000000
     76 O3    c       0.000167      0.000106      0.000168      0.000000
     77 O2    c       0.000246     -0.000075      0.000028      0.000000
     78 O2    c       0.000244      0.000206     -0.000517      0.000000
     79 O2    c       0.002212      0.000004     -0.000812      0.000000
     80 O2    c       0.000077      0.000786     -0.000129      0.000000
     81 O2    c       0.000049     -0.000013     -0.000463      0.000000
     82 O2    c       0.000299     -0.000062     -0.000279      0.000000
     83 O2    c       0.000070      0.000223     -0.000539      0.000000
     84 O2    c      -0.000097     -0.000485      0.000559      0.000000
     85 O2    c       0.000619      0.000625      0.000633      0.000000
     86 O2    c       0.003204     -0.001270     -0.003625      0.000000
     87 O2    c      -0.000176      0.000099      0.000285      0.000000
     88 O2    c       0.000018      0.000037      0.000832      0.000000
     89 O2    c       0.000447      0.000626      0.000379      0.000000
     90 O2    c       0.000629     -0.000249      0.000654      0.000000
     91 O2    c       0.000530      0.000171     -0.000132      0.000000
     92 O2    c      -0.000006      0.000133      0.000215      0.000000
     93 O2    c       0.000037     -0.000802     -0.006594      0.000000
     94 O2    c       0.000103      0.000117      0.000873      0.000000
     95 O2    c      -0.000428      0.001327      0.005098      0.000000
     96 O2    c       0.000221      0.000183     -0.000578      0.000000
     97 O2    c      -0.002747      0.001915     -0.001084      0.000000
     98 O2    c       0.000346     -0.000437      0.001389      0.000000
     99 O2    c      -0.000171     -0.000162      0.000449      0.000000
    100 O2    c       0.000613      0.000311      0.000678      0.000000
    101 O2    c       0.000342      0.000138      0.000365      0.000000
    102 O2    c       0.000212      0.000173     -0.000036      0.000000
    103 O2    c       0.000757     -0.000122      0.000188      0.000000
    104 O2    c      -0.002880      0.000327     -0.000178      0.000000
    105 O2    c      -0.000233      0.000306     -0.000637      0.000000
    106 O2    c      -0.000330     -0.000001     -0.000445      0.000000
    107 O2    c       0.000144      0.000318     -0.000698      0.000000
    108 O2    c       0.000493     -0.000765      0.000747      0.000000
    109 O2    c      -0.000246      0.000363     -0.000995      0.000000
    110 O2    c      -0.000106      0.000286      0.000001      0.000000
    111 O2    c       0.001063     -0.000734     -0.000921      0.000000
    112 O2    c      -0.000094     -0.000138     -0.000820      0.000000
    113 O3    c      -0.001019     -0.002222      0.001264      0.000000
    114 O2    c      -0.000010      0.000419     -0.000193      0.000000
    115 O2    c      -0.001600      0.000363     -0.000693      0.000000
    116 O3    c       0.000034      0.000399     -0.001103      0.000000
    117 O2    c       0.000330      0.000028     -0.000637      0.000000
    118 O3    c       0.000673     -0.000359     -0.000885      0.000000
    119 O2    c       0.000015      0.000098     -0.000572      0.000000
    120 O2    c       0.000974      0.000075      0.001080      0.000000
    121 O2    c       0.000795      0.000106      0.000604      0.000000
    122 O2    c       0.001957      0.001204     -0.001739      0.000000
    123 O2    c      -0.000308      0.000147      0.000386      0.000000
    124 O2    c      -0.000318      0.000200      0.000753      0.000000
    125 O2    c       0.000636      0.000647      0.000447      0.000000
    126 O2    c       0.000603     -0.000485      0.000238      0.000000
    127 O3    c       0.001043     -0.000799     -0.000844      0.000000
    128 O2    c       0.000218      0.000672      0.000707      0.000000
    129 O2    c      -0.000077     -0.000223      0.000443      0.000000
    130 O2    c       0.000400      0.000202      0.000647      0.000000
    131 O2    c       0.000607      0.000078      0.000652      0.000000
    132 O2    c       0.000172      0.000060      0.000923      0.000000
    133 O2    c       0.000608      0.000432     -0.000507      0.000000
    134 O2    c       0.001008     -0.000903     -0.000441      0.000000
    135 O2    c      -0.000227      0.000188     -0.000801      0.000000
    136 O2    c      -0.000082     -0.000124     -0.000732      0.000000
    137 O2    c       0.000478      0.000357     -0.000759      0.000000
    138 O2    c       0.000448      0.000887      0.000693      0.000000
    139 O3    c      -0.002504     -0.002295     -0.003542      0.000000
    140 O2    c       0.000779      0.000523      0.000696      0.000000
    141 O2    c      -0.000289     -0.000143      0.000326      0.000000
    142 O2    c       0.000119      0.000463      0.000754      0.000000
    143 O2    c       0.000353     -0.000502      0.000727      0.000000
    144 O2    c       0.000673     -0.000340      0.000702      0.000000
    145 O2    c       0.000166      0.000833     -0.000372      0.000000
    146 O2    c       0.000752     -0.000248     -0.000664      0.000000
    147 O2    c      -0.000122      0.000021     -0.000517      0.000000
    148 O2    c      -0.000045     -0.000040     -0.000594      0.000000
    149 O2    c       0.000068      0.000223     -0.000520      0.000000
    150 O2    c       0.000037     -0.000853      0.001577      0.000000
    151 O2    c       0.000514     -0.000001      0.000492      0.000000
    152 O2    c      -0.000089      0.000565      0.000849      0.000000
    153 O2    c       0.000367     -0.000008      0.000495      0.000000
    154 O2    c       0.000273      0.000032      0.000487      0.000000
    155 O2    c       0.000040     -0.000044      0.000374      0.000000
    156 O2    c       0.000137     -0.000540     -0.002769      0.000000
    157 O2    c       0.000522      0.000323     -0.000415      0.000000
    158 O2    c       0.001142      0.001330      0.009668      0.000000
    159 O2    c      -0.000298      0.000066     -0.000574      0.000000
    160 O2    c       0.000007     -0.000425     -0.000213      0.000000
    161 O2    c      -0.000014      0.000428     -0.000708      0.000000
    162 O2    c       0.000377     -0.000339     -0.000975      0.000000
    163 O2    c      -0.000174      0.000152     -0.001008      0.000000
    164 O3    c       0.000629      0.000240     -0.001666      0.000000
    165 O2    c       0.000008      0.000205     -0.000892      0.000000
    166 O3    c       0.000565      0.000142     -0.001591      0.000000
    167 O2    c       0.000039      0.000032     -0.000768      0.000000
    168 O2    c       0.000462     -0.000420      0.000236      0.000000
    169 O2    c       0.000866      0.000048      0.000853      0.000000
    170 O2    c       0.001238     -0.000962     -0.000879      0.000000
    171 O2    c      -0.000022     -0.000091      0.000270      0.000000
    172 O2    c       0.000007      0.000473      0.000996      0.000000
    173 O2    c       0.000618      0.000268      0.000546      0.000000
    174 O2    c       0.000262     -0.000273      0.000163      0.000000
    175 O3    c       0.000672     -0.000399     -0.000089      0.000000
    176 O2    c       0.000564      0.000140     -0.000374      0.000000
    177 O2    c      -0.000335      0.000735     -0.004115      0.000000
    178 O2    c      -0.000052      0.000129     -0.000403      0.000000
    179 O2    c       0.001062     -0.000054      0.002080      0.000000
    180 O3    c       0.000928     -0.000161      0.000715      0.000000
    181 F     c       0.000445      0.000303      0.001256      0.000000
    182 F     c       0.000198      0.000259     -0.000185      0.000000
    183 F     c       0.000555     -0.000422      0.000304      0.000000
    184 F     c      -0.000195     -0.000103     -0.000180      0.000000
    185 F     c      -0.000992      0.000403     -0.003318      0.000000
    186 F     c       0.000240      0.000375      0.000326      0.000000
    187 O2    s       0.002667     -0.002154      0.001507      0.000000
    188 O2    s       0.000426      0.001972      0.000042      0.000000
    189 O2    s      -0.000123      0.000247     -0.000392      0.000000
    190 O2    s       0.000377      0.000244     -0.000109      0.000000
    191 O2    s      -0.000307      0.000509     -0.000880      0.000000
    192 O2    s       0.000273     -0.000305     -0.000025      0.000000
    193 O2    s       0.001291      0.000204      0.000197      0.000000
    194 O2    s      -0.000533      0.000292     -0.000068      0.000000
    195 O2    s       0.000677     -0.000029     -0.001849      0.000000
    196 O2    s      -0.000094      0.000092      0.000073      0.000000
    197 O2    s       0.000213     -0.000631      0.005898      0.000000
    198 O2    s       0.000331      0.000780     -0.000265      0.000000
    199 O3    s       0.000733     -0.000049      0.000085      0.000000
    200 O2    s       0.000142     -0.000419     -0.000202      0.000000
    201 O3    s       0.000079      0.000492      0.000673      0.000000
    202 O3    s       0.000516      0.000142      0.000873      0.000000
    203 O2    s       0.000523     -0.000325      0.000301      0.000000
    204 O2    s       0.000245      0.000367      0.000112      0.000000
    205 O2    s       0.002403      0.000731     -0.002415      0.000000
    206 O2    s      -0.000006      0.000523     -0.001308      0.000000
    207 O2    s       0.000196     -0.000102     -0.000776      0.000000
    208 O2    s       0.000388     -0.000223     -0.000847      0.000000
    209 O2    s       0.000262     -0.000033     -0.000604      0.000000
    210 O2    s       0.000499     -0.000335      0.002445      0.000000
    211 O2    s       0.001139      0.000513      0.000670      0.000000
    212 O2    s       0.003062     -0.002109     -0.004963      0.000000
    213 O2    s      -0.000262      0.000237      0.000432      0.000000
    214 O2    s       0.000123      0.000104      0.000308      0.000000
    215 O2    s       0.000696      0.000590      0.000303      0.000000
    216 O2    s       0.000418      0.000217      0.000586      0.000000
    217 O2    s       0.000337      0.000817     -0.000164      0.000000
    218 O2    s       0.000356      0.000246      0.000271      0.000000
    219 O2    s      -0.000091     -0.000915     -0.005340      0.000000
    220 O2    s      -0.000192      0.000567      0.000613      0.000000
    221 O2    s       0.000317      0.000461      0.004416      0.000000
    222 O2    s       0.000536      0.000244     -0.000201      0.000000
    223 O2    s      -0.002778      0.002930     -0.001436      0.000000
    224 O2    s       0.000186     -0.000248      0.001860      0.000000
    225 O2    s       0.000116     -0.000260      0.000346      0.000000
    226 O2    s       0.000551      0.000383      0.000931      0.000000
    227 O2    s      -0.000015      0.000592      0.000241      0.000000
    228 O2    s       0.000330     -0.000472      0.001986      0.000000
    229 O2    s       0.000780      0.000126      0.000507      0.000000
    230 O2    s      -0.003249     -0.000626     -0.000450      0.000000
    231 O2    s      -0.000585      0.000414     -0.000553      0.000000
    232 O2    s      -0.000268     -0.000006     -0.001327      0.000000
    233 O2    s       0.000341      0.000360     -0.000475      0.000000
    234 O2    s       0.000722     -0.000318      0.000780      0.000000
    235 O2    s       0.000660     -0.000077     -0.001348      0.000000
    236 O2    s       0.000026      0.000537      0.000256      0.000000
    237 O2    s       0.000532      0.000289     -0.001234      0.000000
    238 O2    s       0.000005     -0.000497     -0.000396      0.000000
    239 O3    s      -0.000341      0.001548     -0.000030      0.000000
    240 O2    s       0.000187      0.000610      0.000701      0.000000
    241 O2    s      -0.000950     -0.000002     -0.001398      0.000000
    242 O3    s       0.000376     -0.000067     -0.000626      0.000000
    243 O2    s       0.000232     -0.000191     -0.000953      0.000000
    244 O3    s       0.000589     -0.000007     -0.000197      0.000000
    245 O2    s       0.000265      0.000008     -0.000579      0.000000
    246 O2    s       0.001054      0.000018      0.002016      0.000000
    247 O2    s       0.001243      0.000142      0.000796      0.000000
    248 O2    s       0.000809      0.000341     -0.004467      0.000000
    249 O2    s      -0.000380      0.000293      0.000603      0.000000
    250 O2    s       0.000565     -0.000320     -0.000214      0.000000
    251 O2    s       0.000620      0.000704      0.000247      0.000000
    252 O2    s       0.000582      0.000210      0.000968      0.000000
    253 O3    s       0.001981      0.000029     -0.002103      0.000000
    254 O2    s       0.000554      0.000550      0.000732      0.000000
    255 O2    s       0.000182     -0.000313      0.000864      0.000000
    256 O2    s       0.000361      0.000408      0.000511      0.000000
    257 O2    s       0.000003      0.000467      0.000056      0.000000
    258 O2    s       0.000650     -0.000609      0.001427      0.000000
    259 O2    s       0.000832      0.000518      0.000274      0.000000
    260 O2    s       0.000297     -0.000277     -0.000856      0.000000
    261 O2    s      -0.000407      0.000454     -0.000754      0.000000
    262 O2    s      -0.000500     -0.000143     -0.001086      0.000000
    263 O2    s       0.000326      0.000323     -0.000876      0.000000
    264 O2    s       0.000321     -0.000643      0.002096      0.000000
    265 O3    s      -0.001542     -0.000767     -0.004521      0.000000
    266 O2    s       0.000511      0.000744      0.000389      0.000000
    267 O2    s      -0.000401     -0.000075      0.000483      0.000000
    268 O2    s       0.000518      0.000544      0.000445      0.000000
    269 O2    s       0.000013      0.000418      0.000336      0.000000
    270 O2    s       0.000504      0.000016      0.000259      0.000000
    271 O2    s       0.000623      0.000232     -0.001060      0.000000
    272 O2    s       0.000098      0.000253     -0.001378      0.000000
    273 O2    s      -0.000102     -0.000019     -0.000483      0.000000
    274 O2    s       0.000396     -0.000565     -0.000807      0.000000
    275 O2    s       0.000391      0.000097     -0.000689      0.000000
    276 O2    s       0.000078     -0.000219      0.005748      0.000000
    277 O2    s      -0.000181      0.000301     -0.000040      0.000000
    278 O2    s       0.000770     -0.000438      0.000355      0.000000
    279 O2    s       0.000394      0.000105      0.000020      0.000000
    280 O2    s       0.000432      0.000388      0.000250      0.000000
    281 O2    s       0.000437     -0.000294      0.000251      0.000000
    282 O2    s       0.000554      0.000022     -0.001339      0.000000
    283 O2    s       0.001053      0.000203     -0.000382      0.000000
    284 O2    s       0.000951      0.001210      0.008237      0.000000
    285 O2    s      -0.000675      0.000106     -0.000369      0.000000
    286 O2    s       0.000421     -0.000661     -0.000026      0.000000
    287 O2    s       0.000221      0.000677     -0.000391      0.000000
    288 O2    s       0.000218      0.000368     -0.000740      0.000000
    289 O2    s       0.000058     -0.000193     -0.001541      0.000000
    290 O3    s      -0.000056      0.000706     -0.001883      0.000000
    291 O2    s      -0.000071      0.000307     -0.001138      0.000000
    292 O3    s       0.000766     -0.000004     -0.000763      0.000000
    293 O2    s      -0.000440      0.000333     -0.000891      0.000000
    294 O2    s       0.000553     -0.000967      0.000824      0.000000
    295 O2    s       0.000679      0.000557      0.001590      0.000000
    296 O2    s       0.001087     -0.000932     -0.000682      0.000000
    297 O2    s       0.000010      0.000034      0.000984      0.000000
    298 O2    s       0.000480     -0.000080     -0.000445      0.000000
    299 O2    s       0.000608      0.000425      0.000962      0.000000
    300 O2    s       0.000064     -0.000178      0.000916      0.000000
    301 O3    s      -0.000368     -0.000313     -0.000193      0.000000
    302 O2    s       0.000529      0.000460      0.000082      0.000000
    303 O2    s       0.000811     -0.000073     -0.003463      0.000000
    304 O2    s      -0.000144      0.000360      0.000428      0.000000
    305 O2    s       0.000890     -0.000160      0.001497      0.000000
    306 O3    s       0.001297      0.000206      0.000084      0.000000
    307 F     s       0.000759      0.000821      0.002058      0.000000
    308 F     s       0.000241      0.000313     -0.000234      0.000000
    309 F     s       0.000542     -0.000318      0.000355      0.000000
    310 F     s      -0.000213     -0.000119     -0.000079      0.000000
    311 F     s      -0.000858     -0.000311     -0.005006      0.000000
    312 F     s       0.000239      0.000476      0.000590      0.000000
--------------------------------------------------------------------------------
  Maximum abs         0.003249      0.002930      0.009668      0.000000
--------------------------------------------------------------------------------


  Time to end of optimisation =      56.8149 seconds


  Peak dynamic memory used =      19.13 MB 


  Timing analysis for GULP :

--------------------------------------------------------------------------------
  Task / Subroutine                                          Time (Seconds)
--------------------------------------------------------------------------------
  Calculation of reciprocal space energy and derivatives          1.4336
  Calculation of real space energy and derivatives               49.6754
  Calculation of three-body energy and derivatives                4.8686
  Calculation of matrix inversion                                 0.7436
--------------------------------------------------------------------------------
  Total CPU time                                                 56.8150
--------------------------------------------------------------------------------


  Dump file written as out.res                                                 
  CIF file written as out.cif                                                 


  Job Finished at 05:38.44 29th October    2016                               

