********************************************************************************
*                       GENERAL UTILITY LATTICE PROGRAM                        *
*                                 Julian Gale                                  *
*                      Nanochemistry Research Institute                        *
*                           Department of Chemistry                            *
*                    Curtin University, Western Australia                      *
********************************************************************************
* Version = 4.2.0 * Last modified =  20th January 2014                         *
********************************************************************************
*  optimise     - perform optimisation run                                     *
*  conp         - constant pressure calculation                                *
*  qok          - running with non charge neutral cell is OK                   *
********************************************************************************

  Job Started  at 11:44.36 29th October    2016                               

  Number of CPUs =     1


  Total number of configurations input =   1

********************************************************************************
*  Input for Configuration =   1                                               *
********************************************************************************

  Formula = Ge3Si57O120F6                                               

  Number of irreducible atoms/shells =     312


  Total number atoms/shells =     312

  Dimensionality = 3               :  Bulk   


  Charge on solid   =  -6.000000 =>neutralising background added


  Cartesian lattice vectors (Angstroms) :

       11.967614    0.000000    0.000000
       -6.081004   10.368052    0.000000
       -0.394583   -0.374238   29.444822

  Cell parameters (Angstroms/Degrees):

  a =      11.9676    alpha =  90.2397
  b =      12.0198    beta  =  90.7677
  c =      29.4498    gamma = 120.3922

  Initial cell volume =        3653.538472 Angs**3

  Temperature of configuration =  0.000     K 

  Pressure of configuration =         0.000 GPa 

  Fractional coordinates of asymmetric unit :

--------------------------------------------------------------------------------
   No.  Atomic       x           y          z         Charge      Occupancy
        Label      (Frac)      (Frac)     (Frac)        (e)         (Frac)  
--------------------------------------------------------------------------------
      1 Ge    c    0.699600    0.375700    0.033890     4.00000    1.000000    
      2 Si    c    0.623311 *  0.314973 *  0.366019 *   4.00000    1.000000    
      3 Si    c    0.684840 *  0.299384 *  0.700596 *   4.00000    1.000000    
      4 Si    c    0.298322 *  0.620781 *  0.532092 *   4.00000    1.000000    
      5 Si    c    0.366152 *  0.671248 *  0.865820 *   4.00000    1.000000    
      6 Si    c    0.318857 *  0.703644 *  0.199841 *   4.00000    1.000000    
      7 Si    c    0.374557 *  0.695384 *  0.301925 *   4.00000    1.000000    
      8 Si    c    0.317138 *  0.618547 *  0.965873 *   4.00000    1.000000    
      9 Si    c    0.299090 *  0.675650 *  0.632942 *   4.00000    1.000000    
     10 Si    c    0.628142 *  0.308694 *  0.802533 *   4.00000    1.000000    
     11 Si    c    0.674901 *  0.377184 *  0.467728 *   4.00000    1.000000    
     12 Si    c    0.684584 *  0.317817 *  0.132002 *   4.00000    1.000000    
     13 Si    c    0.529243 *  0.419390 *  0.966161 *   4.00000    1.000000    
     14 Ge    c    0.567555 *  0.090882 *  0.301132 *   4.00000    1.000000    
     15 Si    c    0.890645 *  0.469098 *  0.634364 *   4.00000    1.000000    
     16 Si    c    0.467062 *  0.579820 *  0.466586 *   4.00000    1.000000    
     17 Si    c    0.410811 *  0.880734 *  0.803233 *   4.00000    1.000000    
     18 Si    c    0.105926 *  0.532670 *  0.131677 *   4.00000    1.000000    
     19 Si    c    0.417599 *  0.522723 *  0.365000 *   4.00000    1.000000    
     20 Si    c    0.103839 *  0.582292 *  0.028541 *   4.00000    1.000000    
     21 Si    c    0.472460 *  0.882558 *  0.700649 *   4.00000    1.000000    
     22 Si    c    0.578202 *  0.477502 *  0.864641 *   4.00000    1.000000    
     23 Si    c    0.887400 *  0.416036 *  0.532643 *   4.00000    1.000000    
     24 Si    c    0.530110 *  0.122687 *  0.202701 *   4.00000    1.000000    
     25 Si    c    0.293882 *  0.396477 *  0.850410 *   4.00000    1.000000    
     26 Si    c    0.602510 *  0.910306 *  0.186668 *   4.00000    1.000000    
     27 Si    c    0.095833 *  0.696893 *  0.517539 *   4.00000    1.000000    
     28 Si    c    0.698189 *  0.593865 *  0.351987 *   4.00000    1.000000    
     29 Si    c    0.401426 *  0.094895 *  0.685172 *   4.00000    1.000000    
     30 Si    c    0.890515 *  0.293892 *  0.012827 *   4.00000    1.000000    
     31 Si    c    0.396579 *  0.300762 *  0.480959 *   4.00000    1.000000    
     32 Si    c    0.891785 *  0.602796 *  0.143975 *   4.00000    1.000000    
     33 Ge    c    0.686101 *  0.097521 *  0.809875 *   4.00000    1.000000    
     34 Si    c    0.597209 *  0.699790 *  0.980046 *   4.00000    1.000000    
     35 Si    c    0.099415 *  0.397299 *  0.648232 *   4.00000    1.000000    
     36 Si    c    0.293377 *  0.895299 *  0.321580 *   4.00000    1.000000    
     37 Si    c    0.247770 *  0.339648 *  0.950674 *   4.00000    1.000000    
     38 Si    c    0.663400 *  0.909543 *  0.288811 *   4.00000    1.000000    
     39 Si    c    0.090848 *  0.747707 *  0.618374 *   4.00000    1.000000    
     40 Si    c    0.745552 *  0.656132 *  0.452666 *   4.00000    1.000000    
     41 Si    c    0.340159 *  0.089674 *  0.786468 *   4.00000    1.000000    
     42 Si    c    0.900670 *  0.249791 *  0.115905 *   4.00000    1.000000    
     43 Si    c    0.340962 *  0.245313 *  0.379874 *   4.00000    1.000000    
     44 Si    c    0.899611 *  0.661503 *  0.041578 *   4.00000    1.000000    
     45 Si    c    0.758010 *  0.086272 *  0.714292 *   4.00000    1.000000    
     46 Si    c    0.652328 *  0.755108 *  0.879503 *   4.00000    1.000000    
     47 Si    c    0.088912 *  0.339133 *  0.547265 *   4.00000    1.000000    
     48 Si    c    0.247989 *  0.915526 *  0.218787 *   4.00000    1.000000    
     49 Si    c    0.970455 *  0.119966 *  0.964571 *   4.00000    1.000000    
     50 Si    c    0.875603 *  0.837767 *  0.300697 *   4.00000    1.000000    
     51 Si    c    0.154089 *  0.027737 *  0.632805 *   4.00000    1.000000    
     52 Si    c    0.025322 *  0.875937 *  0.468095 *   4.00000    1.000000    
     53 Si    c    0.117207 *  0.146481 *  0.799524 *   4.00000    1.000000    
     54 Si    c    0.846043 *  0.974172 *  0.133792 *   4.00000    1.000000    
     55 Si    c    0.115544 *  0.963882 *  0.367682 *   4.00000    1.000000    
     56 Si    c    0.847152 *  0.883349 *  0.031837 *   4.00000    1.000000    
     57 Si    c    0.033283 *  0.149859 *  0.697209 *   4.00000    1.000000    
     58 Si    c    0.873684 *  0.033701 *  0.863001 *   4.00000    1.000000    
     59 Si    c    0.150833 *  0.122118 *  0.532416 *   4.00000    1.000000    
     60 Si    c    0.966363 *  0.850003 *  0.198762 *   4.00000    1.000000    
     61 O2    c    0.925882 *  0.005954 *  0.000566 *   0.87073    1.000000    
     62 O2    c    0.998117 *  0.925524 *  0.332739 *   0.87073    1.000000    
     63 O2    c    0.078002 *  0.071906 *  0.665335 *   0.87073    1.000000    
     64 O2    c    0.067492 *  0.997265 *  0.501036 *   0.87073    1.000000    
     65 O2    c    0.996046 *  0.065174 *  0.831269 *   0.87073    1.000000    
     66 O2    c    0.928128 *  0.935977 *  0.167588 *   0.87073    1.000000    
     67 O2    c    0.339329 *  0.569973 *  0.331740 *   0.87073    1.000000    
     68 O2    c    0.422290 *  0.759542 *  0.666801 *   0.87073    1.000000    
     69 O2    c    0.232210 *  0.657013 *  0.998446 *   0.87073    1.000000    
     70 O2    c    0.657374 *  0.435946 *  0.830934 *   0.87073    1.000000    
     71 O2    c    0.570974 *  0.239145 *  0.167681 *   0.87073    1.000000    
     72 O2    c    0.759162 *  0.338421 *  0.500737 *   0.87073    1.000000    
     73 O3    c    0.568851 *  0.337932 *  0.997381 *   1.33043    1.000000    
     74 O2    c    0.766681 *  0.419884 *  0.667229 *   0.87073    1.000000    
     75 O3    c    0.658796 *  0.229071 *  0.336585 *   1.33043    1.000000    
     76 O2    c    0.418888 *  0.657213 *  0.498845 *   0.87073    1.000000    
     77 O2    c    0.231755 *  0.584621 *  0.165237 *   0.87073    1.000000    
     78 O2    c    0.322899 *  0.751728 *  0.832672 *   0.87073    1.000000    
     79 O2    c    0.125134 *  0.211440 *  0.971143 *   0.87073    1.000000    
     80 O2    c    0.782198 *  0.895259 *  0.307237 *   0.87073    1.000000    
     81 O2    c    0.089630 *  0.873751 *  0.637870 *   0.87073    1.000000    
     82 O2    c    0.871491 *  0.783636 *  0.473720 *   0.87073    1.000000    
     83 O2    c    0.213740 *  0.089121 *  0.805217 *   0.87073    1.000000    
     84 O2    c    0.906313 *  0.128683 *  0.137622 *   0.87073    1.000000    
     85 O2    c    0.214075 *  0.115865 *  0.360163 *   0.87073    1.000000    
     86 O2    c    0.916889 *  0.799433 *  0.026415 *   0.87073    1.000000    
     87 O2    c    0.879291 *  0.088201 *  0.688789 *   0.87073    1.000000    
     88 O2    c    0.774445 *  0.878754 *  0.857717 *   0.87073    1.000000    
     89 O2    c    0.087501 *  0.212454 *  0.527147 *   0.87073    1.000000    
     90 O2    c    0.121576 *  0.912308 *  0.196723 *   0.87073    1.000000    
     91 O2    c    0.923162 *  0.852391 *  0.249436 *   0.87073    1.000000    
     92 O2    c    0.143019 *  0.071490 *  0.582875 *   0.87073    1.000000    
     93 O2    c    0.931239 *  0.062159 *  0.914478 *   0.87073    1.000000    
     94 O2    c    0.068909 *  0.132172 *  0.747863 *   0.87073    1.000000    
     95 O2    c    0.855676 *  0.931164 *  0.083593 *   0.87073    1.000000    
     96 O2    c    0.061660 *  0.932354 *  0.418003 *   0.87073    1.000000    
     97 O2    c    0.903135 *  0.203804 *  0.975050 *   0.87073    1.000000    
     98 O2    c    0.798347 *  0.687218 *  0.313471 *   0.87073    1.000000    
     99 O2    c    0.306749 *  0.094561 *  0.645519 *   0.87073    1.000000    
    100 O2    c    0.096523 *  0.794959 *  0.479421 *   0.87073    1.000000    
    101 O2    c    0.197157 *  0.298638 *  0.811240 *   0.87073    1.000000    
    102 O2    c    0.695145 *  0.906846 *  0.147632 *   0.87073    1.000000    
    103 O2    c    0.184361 *  0.880346 *  0.357391 *   0.87073    1.000000    
    104 O2    c    0.694968 *  0.798039 *  0.019313 *   0.87073    1.000000    
    105 O2    c    0.104379 *  0.302257 *  0.686240 *   0.87073    1.000000    
    106 O3    c    0.801494 *  0.107949 *  0.851909 *   1.33043    1.000000    
    107 O2    c    0.301279 *  0.203549 *  0.519296 *   0.87073    1.000000    
    108 O2    c    0.895857 *  0.701238 *  0.182587 *   0.87073    1.000000    
    109 O2    c    0.322017 *  0.649313 *  0.249790 *   0.87073    1.000000    
    110 O2    c    0.357060 *  0.677840 *  0.582812 *   0.87073    1.000000    
    111 O2    c    0.311176 *  0.673857 *  0.916011 *   0.87073    1.000000    
    112 O2    c    0.683667 *  0.354079 *  0.750882 *   0.87073    1.000000    
    113 O3    c    0.612970 *  0.304712 *  0.084666 *   1.33043    1.000000    
    114 O2    c    0.675041 *  0.319856 *  0.418063 *   0.87073    1.000000    
    115 O2    c    0.371666 *  0.332594 *  0.968030 *   0.87073    1.000000    
    116 O3    c    0.682739 *  0.039130 *  0.309753 *   1.33043    1.000000    
    117 O2    c    0.959854 *  0.625482 *  0.637496 *   0.87073    1.000000    
    118 O2    c    0.624061 *  0.667623 *  0.470543 *   0.87073    1.000000    
    119 O2    c    0.330191 *  0.957121 *  0.803164 *   0.87073    1.000000    
    120 O2    c    0.032567 *  0.377154 *  0.133862 *   0.87073    1.000000    
    121 O2    c    0.328854 *  0.366463 *  0.361345 *   0.87073    1.000000    
    122 O2    c    0.033991 *  0.667424 *  0.026817 *   0.87073    1.000000    
    123 O2    c    0.628698 *  0.952375 *  0.698106 *   0.87073    1.000000    
    124 O2    c    0.662878 *  0.632974 *  0.861866 *   0.87073    1.000000    
    125 O2    c    0.955447 *  0.328648 *  0.529167 *   0.87073    1.000000    
    126 O2    c    0.371097 *  0.046724 *  0.201503 *   0.87073    1.000000    
    127 O3    c    0.755489 *  0.283771 *  0.003565 *   1.33043    1.000000    
    128 O2    c    0.697705 *  0.460724 *  0.345351 *   0.87073    1.000000    
    129 O2    c    0.538007 *  0.226558 *  0.680003 *   0.87073    1.000000    
    130 O2    c    0.229393 *  0.695866 *  0.510353 *   0.87073    1.000000    
    131 O2    c    0.291055 *  0.528197 *  0.842723 *   0.87073    1.000000    
    132 O2    c    0.463791 *  0.778223 *  0.180094 *   0.87073    1.000000    
    133 O2    c    0.297708 *  0.761773 *  0.323102 *   0.87073    1.000000    
    134 O2    c    0.461719 *  0.696738 *  0.988594 *   0.87073    1.000000    
    135 O2    c    0.232809 *  0.533544 *  0.655444 *   0.87073    1.000000    
    136 O3    c    0.703137 *  0.247932 *  0.826942 *   1.33043    1.000000    
    137 O2    c    0.531856 *  0.304282 *  0.489879 *   0.87073    1.000000    
    138 O2    c    0.760717 *  0.466785 *  0.151592 *   0.87073    1.000000    
    139 O3    c    0.774052 *  0.546783 *  0.019690 *   1.33043    1.000000    
    140 O2    c    0.465843 *  0.246697 *  0.360171 *   0.87073    1.000000    
    141 O2    c    0.750851 *  0.211193 *  0.696943 *   0.87073    1.000000    
    142 O2    c    0.214499 *  0.464673 *  0.527822 *   0.87073    1.000000    
    143 O2    c    0.522279 *  0.748948 *  0.860556 *   0.87073    1.000000    
    144 O2    c    0.253511 *  0.792136 *  0.199833 *   0.87073    1.000000    
    145 O2    c    0.529630 *  0.784954 *  0.305350 *   0.87073    1.000000    
    146 O2    c    0.242940 *  0.462814 *  0.970966 *   0.87073    1.000000    
    147 O2    c    0.219920 *  0.752301 *  0.637854 *   0.87073    1.000000    
    148 O2    c    0.470455 *  0.214903 *  0.804518 *   0.87073    1.000000    
    149 O2    c    0.748709 *  0.533306 *  0.472847 *   0.87073    1.000000    
    150 O2    c    0.776083 *  0.252299 *  0.134515 *   0.87073    1.000000    
    151 O2    c    0.223724 *  0.321319 *  0.896277 *   0.87073    1.000000    
    152 O2    c    0.673130 *  0.911165 *  0.233601 *   0.87073    1.000000    
    153 O2    c    0.091457 *  0.766451 *  0.564099 *   0.87073    1.000000    
    154 O2    c    0.767906 *  0.672970 *  0.398461 *   0.87073    1.000000    
    155 O2    c    0.330991 *  0.091088 *  0.731713 *   0.87073    1.000000    
    156 O2    c    0.898665 *  0.233301 *  0.061750 *   0.87073    1.000000    
    157 O2    c    0.323361 *  0.227848 *  0.434199 *   0.87073    1.000000    
    158 O2    c    0.893980 *  0.670069 *  0.096973 *   0.87073    1.000000    
    159 O3    c    0.787799 *  0.090404 *  0.766858 *   1.33043    1.000000    
    160 O2    c    0.670215 *  0.773138 *  0.934230 *   0.87073    1.000000    
    161 O2    c    0.092981 *  0.322806 *  0.601523 *   0.87073    1.000000    
    162 O2    c    0.233097 *  0.909726 *  0.273006 *   0.87073    1.000000    
    163 O2    c    0.584330 *  0.561940 *  0.988834 *   0.87073    1.000000    
    164 O3    c    0.425819 *  0.018372 *  0.335735 *   1.33043    1.000000    
    165 O2    c    0.973921 *  0.410736 *  0.657261 *   0.87073    1.000000    
    166 O2    c    0.407399 *  0.438739 *  0.489440 *   0.87073    1.000000    
    167 O3    c    0.546950 *  0.957251 *  0.829252 *   1.33043    1.000000    
    168 O2    c    0.016868 *  0.586427 *  0.151162 *   0.87073    1.000000    
    169 O2    c    0.558916 *  0.581922 *  0.341944 *   0.87073    1.000000    
    170 O2    c    0.012811 *  0.439697 *  0.007625 *   0.87073    1.000000    
    171 O2    c    0.421408 *  0.973493 *  0.679780 *   0.87073    1.000000    
    172 O2    c    0.434528 *  0.413634 *  0.841735 *   0.87073    1.000000    
    173 O2    c    0.970359 *  0.556121 *  0.509054 *   0.87073    1.000000    
    174 O2    c    0.584041 *  0.032812 *  0.181007 *   0.87073    1.000000    
    175 O3    c    0.587764 *  0.184109 *  0.251002 *   1.33043    1.000000    
    176 O2    c    0.835157 *  0.415883 *  0.583433 *   0.87073    1.000000    
    177 O2    c    0.581361 *  0.424135 *  0.914818 *   0.87073    1.000000    
    178 O2    c    0.419207 *  0.834570 *  0.751295 *   0.87073    1.000000    
    179 O2    c    0.151265 *  0.579908 *  0.080654 *   0.87073    1.000000    
    180 O2    c    0.414901 *  0.579538 *  0.415108 *   0.87073    1.000000    
    181 F     c    0.472982 *  0.944931 *  0.262194 *   0.56000    1.000000    
    182 F     c    0.096567 *  0.547938 *  0.583740 *   0.56000    1.000000    
    183 F     c    0.441762 *  0.549764 *  0.915411 *   0.56000    1.000000    
    184 F     c    0.578081 *  0.094107 *  0.761070 *   0.56000    1.000000    
    185 F     c    0.852159 *  0.435391 *  0.071728 *   0.56000    1.000000    
    186 F     c    0.544589 *  0.452976 *  0.416788 *   0.56000    1.000000    
    187 O2    s    0.921793 *  0.004542 *  0.000180 *  -2.87073    1.000000    
    188 O2    s    0.997458 *  0.919817 *  0.333050 *  -2.87073    1.000000    
    189 O2    s    0.081703 *  0.075578 *  0.665176 *  -2.87073    1.000000    
    190 O2    s    0.072194 *  0.997721 *  0.500871 *  -2.87073    1.000000    
    191 O2    s    0.997195 *  0.071134 *  0.830929 *  -2.87073    1.000000    
    192 O2    s    0.923444 *  0.930815 *  0.167323 *  -2.87073    1.000000    
    193 O2    s    0.350751 *  0.578672 *  0.331815 *  -2.87073    1.000000    
    194 O2    s    0.414886 *  0.763838 *  0.666863 *  -2.87073    1.000000    
    195 O2    s    0.226954 *  0.645184 *  0.998406 *  -2.87073    1.000000    
    196 O2    s    0.646123 *  0.426690 *  0.831370 *  -2.87073    1.000000    
    197 O2    s    0.578736 *  0.235111 *  0.167601 *  -2.87073    1.000000    
    198 O2    s    0.763922 *  0.350546 *  0.500679 *  -2.87073    1.000000    
    199 O3    s    0.574692 *  0.349367 *  0.996887 *  -3.33043    1.000000    
    200 O2    s    0.770846 *  0.412402 *  0.667350 *  -2.87073    1.000000    
    201 O3    s    0.648589 *  0.229012 *  0.337395 *  -3.33043    1.000000    
    202 O2    s    0.411347 *  0.645617 *  0.499006 *  -2.87073    1.000000    
    203 O2    s    0.227913 *  0.591708 *  0.165409 *  -2.87073    1.000000    
    204 O2    s    0.336041 *  0.756718 *  0.833013 *  -2.87073    1.000000    
    205 O2    s    0.121277 *  0.214905 *  0.968358 *  -2.87073    1.000000    
    206 O2    s    0.779579 *  0.890284 *  0.304478 *  -2.87073    1.000000    
    207 O2    s    0.096647 *  0.877212 *  0.635350 *  -2.87073    1.000000    
    208 O2    s    0.875094 *  0.780417 *  0.470964 *  -2.87073    1.000000    
    209 O2    s    0.217285 *  0.095101 *  0.802667 *  -2.87073    1.000000    
    210 O2    s    0.899430 *  0.124990 *  0.135018 *  -2.87073    1.000000    
    211 O2    s    0.216630 *  0.112999 *  0.362965 *  -2.87073    1.000000    
    212 O2    s    0.907671 *  0.794460 *  0.028512 *  -2.87073    1.000000    
    213 O2    s    0.883371 *  0.094509 *  0.692164 *  -2.87073    1.000000    
    214 O2    s    0.771311 *  0.881055 *  0.860562 *  -2.87073    1.000000    
    215 O2    s    0.094345 *  0.215939 *  0.529750 *  -2.87073    1.000000    
    216 O2    s    0.118277 *  0.906025 *  0.199221 *  -2.87073    1.000000    
    217 O2    s    0.922774 *  0.850444 *  0.249347 *  -2.87073    1.000000    
    218 O2    s    0.145174 *  0.072188 *  0.582899 *  -2.87073    1.000000    
    219 O2    s    0.929738 *  0.065819 *  0.914869 *  -2.87073    1.000000    
    220 O2    s    0.070227 *  0.135762 *  0.747836 *  -2.87073    1.000000    
    221 O2    s    0.853663 *  0.931002 *  0.083808 *  -2.87073    1.000000    
    222 O2    s    0.063713 *  0.929588 *  0.417899 *  -2.87073    1.000000    
    223 O2    s    0.909060 *  0.204373 *  0.977972 *  -2.87073    1.000000    
    224 O2    s    0.796658 *  0.694067 *  0.315918 *  -2.87073    1.000000    
    225 O2    s    0.300787 *  0.087586 *  0.648392 *  -2.87073    1.000000    
    226 O2    s    0.089007 *  0.793487 *  0.482086 *  -2.87073    1.000000    
    227 O2    s    0.198566 *  0.292437 *  0.814022 *  -2.87073    1.000000    
    228 O2    s    0.701259 *  0.914201 *  0.150217 *  -2.87073    1.000000    
    229 O2    s    0.188199 *  0.890465 *  0.354838 *  -2.87073    1.000000    
    230 O2    s    0.701422 *  0.797312 *  0.016705 *  -2.87073    1.000000    
    231 O2    s    0.096452 *  0.296066 *  0.683482 *  -2.87073    1.000000    
    232 O3    s    0.802062 *  0.098945 *  0.850439 *  -3.33043    1.000000    
    233 O2    s    0.294815 *  0.204755 *  0.516794 *  -2.87073    1.000000    
    234 O2    s    0.903006 *  0.706994 *  0.180300 *  -2.87073    1.000000    
    235 O2    s    0.326885 *  0.659546 *  0.249745 *  -2.87073    1.000000    
    236 O2    s    0.345282 *  0.671858 *  0.582751 *  -2.87073    1.000000    
    237 O2    s    0.317341 *  0.667894 *  0.916028 *  -2.87073    1.000000    
    238 O2    s    0.678493 *  0.343997 *  0.750569 *  -2.87073    1.000000    
    239 O3    s    0.626337 *  0.310986 *  0.085975 *  -3.33043    1.000000    
    240 O2    s    0.669821 *  0.325529 *  0.418163 *  -2.87073    1.000000    
    241 O2    s    0.373881 *  0.342216 *  0.965896 *  -2.87073    1.000000    
    242 O3    s    0.672818 *  0.028744 *  0.306911 *  -3.33043    1.000000    
    243 O2    s    0.966439 *  0.622198 *  0.635174 *  -2.87073    1.000000    
    244 O2    s    0.620537 *  0.657362 *  0.468256 *  -2.87073    1.000000    
    245 O2    s    0.339339 *  0.963565 *  0.801388 *  -2.87073    1.000000    
    246 O2    s    0.026783 *  0.380508 *  0.131794 *  -2.87073    1.000000    
    247 O2    s    0.339162 *  0.370175 *  0.363614 *  -2.87073    1.000000    
    248 O2    s    0.028054 *  0.657828 *  0.028459 *  -2.87073    1.000000    
    249 O2    s    0.625370 *  0.958574 *  0.700020 *  -2.87073    1.000000    
    250 O2    s    0.652762 *  0.629309 *  0.864036 *  -2.87073    1.000000    
    251 O2    s    0.962488 *  0.338738 *  0.531440 *  -2.87073    1.000000    
    252 O2    s    0.373300 *  0.039928 *  0.203509 *  -2.87073    1.000000    
    253 O3    s    0.766033 *  0.290976 *  0.006638 *  -3.33043    1.000000    
    254 O2    s    0.690345 *  0.460731 *  0.348152 *  -2.87073    1.000000    
    255 O2    s    0.538441 *  0.219884 *  0.682699 *  -2.87073    1.000000    
    256 O2    s    0.222455 *  0.688285 *  0.513358 *  -2.87073    1.000000    
    257 O2    s    0.299107 *  0.529006 *  0.845969 *  -2.87073    1.000000    
    258 O2    s    0.462744 *  0.783935 *  0.182864 *  -2.87073    1.000000    
    259 O2    s    0.305261 *  0.768274 *  0.320714 *  -2.87073    1.000000    
    260 O2    s    0.460769 *  0.689011 *  0.985353 *  -2.87073    1.000000    
    261 O2    s    0.225525 *  0.533810 *  0.652310 *  -2.87073    1.000000    
    262 O3    s    0.694123 *  0.243800 *  0.823183 *  -3.33043    1.000000    
    263 O2    s    0.532203 *  0.311447 *  0.486627 *  -2.87073    1.000000    
    264 O2    s    0.767333 *  0.466826 *  0.148823 *  -2.87073    1.000000    
    265 O3    s    0.783573 *  0.549025 *  0.022934 *  -3.33043    1.000000    
    266 O2    s    0.467611 *  0.253482 *  0.362893 *  -2.87073    1.000000    
    267 O2    s    0.744419 *  0.207801 *  0.699104 *  -2.87073    1.000000    
    268 O2    s    0.209540 *  0.467406 *  0.530356 *  -2.87073    1.000000    
    269 O2    s    0.519884 *  0.741258 *  0.863137 *  -2.87073    1.000000    
    270 O2    s    0.260042 *  0.795641 *  0.201837 *  -2.87073    1.000000    
    271 O2    s    0.526482 *  0.788187 *  0.303278 *  -2.87073    1.000000    
    272 O2    s    0.251197 *  0.466119 *  0.968338 *  -2.87073    1.000000    
    273 O2    s    0.214116 *  0.743875 *  0.635281 *  -2.87073    1.000000    
    274 O2    s    0.471737 *  0.210273 *  0.802354 *  -2.87073    1.000000    
    275 O2    s    0.740592 *  0.530412 *  0.470156 *  -2.87073    1.000000    
    276 O2    s    0.780671 *  0.258548 *  0.132243 *  -2.87073    1.000000    
    277 O2    s    0.233567 *  0.331126 *  0.897166 *  -2.87073    1.000000    
    278 O2    s    0.664499 *  0.910931 *  0.234067 *  -2.87073    1.000000    
    279 O2    s    0.091837 *  0.757136 *  0.564979 *  -2.87073    1.000000    
    280 O2    s    0.758306 *  0.662996 *  0.399320 *  -2.87073    1.000000    
    281 O2    s    0.339536 *  0.091348 *  0.732452 *  -2.87073    1.000000    
    282 O2    s    0.898033 *  0.240979 *  0.062916 *  -2.87073    1.000000    
    283 O2    s    0.332937 *  0.237405 *  0.433419 *  -2.87073    1.000000    
    284 O2    s    0.894194 *  0.661656 *  0.096766 *  -2.87073    1.000000    
    285 O3    s    0.777919 *  0.090419 *  0.764128 *  -3.33043    1.000000    
    286 O2    s    0.660719 *  0.763615 *  0.933333 *  -2.87073    1.000000    
    287 O2    s    0.093226 *  0.332372 *  0.600642 *  -2.87073    1.000000    
    288 O2    s    0.240612 *  0.909007 *  0.271814 *  -2.87073    1.000000    
    289 O2    s    0.579845 *  0.562452 *  0.985545 *  -2.87073    1.000000    
    290 O3    s    0.421145 *  0.009799 *  0.331895 *  -3.33043    1.000000    
    291 O2    s    0.978817 *  0.415555 *  0.653915 *  -2.87073    1.000000    
    292 O2    s    0.412616 *  0.438686 *  0.486144 *  -2.87073    1.000000    
    293 O3    s    0.543147 *  0.959874 *  0.825190 *  -3.33043    1.000000    
    294 O2    s    0.013210 *  0.582298 *  0.148323 *  -2.87073    1.000000    
    295 O2    s    0.558858 *  0.576909 *  0.345367 *  -2.87073    1.000000    
    296 O2    s    0.009958 *  0.440264 *  0.010439 *  -2.87073    1.000000    
    297 O2    s    0.424695 *  0.977522 *  0.682582 *  -2.87073    1.000000    
    298 O2    s    0.434398 *  0.418574 *  0.845072 *  -2.87073    1.000000    
    299 O2    s    0.975515 *  0.556832 *  0.512416 *  -2.87073    1.000000    
    300 O2    s    0.580702 *  0.027958 *  0.183752 *  -2.87073    1.000000    
    301 O3    s    0.580210 *  0.171244 *  0.249222 *  -3.33043    1.000000    
    302 O2    s    0.846368 *  0.421490 *  0.583543 *  -2.87073    1.000000    
    303 O2    s    0.575803 *  0.429274 *  0.914726 *  -2.87073    1.000000    
    304 O2    s    0.424070 *  0.844165 *  0.751002 *  -2.87073    1.000000    
    305 O2    s    0.141613 *  0.575019 *  0.080979 *  -2.87073    1.000000    
    306 O2    s    0.420486 *  0.573758 *  0.415242 *  -2.87073    1.000000    
    307 F     s    0.478894 *  0.954351 *  0.264632 *  -1.56000    1.000000    
    308 F     s    0.096916 *  0.548227 *  0.583839 *  -1.56000    1.000000    
    309 F     s    0.441029 *  0.550089 *  0.915394 *  -1.56000    1.000000    
    310 F     s    0.585007 *  0.094394 *  0.764041 *  -1.56000    1.000000    
    311 F     s    0.842719 *  0.431656 *  0.069679 *  -1.56000    1.000000    
    312 F     s    0.544455 *  0.453394 *  0.416844 *  -1.56000    1.000000    
--------------------------------------------------------------------------------



********************************************************************************
*  General input information                                                   *
********************************************************************************

  Species output for all configurations : 

--------------------------------------------------------------------------------
  Species    Type    Atomic    Atomic    Charge       Radii (Angs)     Library
                     Number     Mass       (e)     Cova   Ionic  VDW   Symbol
--------------------------------------------------------------------------------
    Si       Core       14      28.09   4.000000   1.200  0.000  2.100          
    O1       Core        8      16.00   1.733957   0.730  0.000  1.360          
    O1       Shell       8       0.00  -3.733957   0.730  0.000  1.360          
    O2       Core        8      16.00   0.870733   0.730  0.000  1.360          
    O2       Shell       8       0.00  -2.870733   0.730  0.000  1.360          
    O3       Core        8      16.00   1.330431   0.730  0.000  1.360          
    O3       Shell       8       0.00  -3.330431   0.730  0.000  1.360          
    F        Core        9      19.00   0.560000   0.710  0.000  1.300          
    F        Shell       9       0.00  -1.560000   0.710  0.000  1.300          
    Ge       Core       32      72.61   4.000000   1.170  0.000  1.750          
--------------------------------------------------------------------------------


  Lattice summation method               =    Ewald          (3-D)
                                         =    Parry          (2-D)
                                         =    Saunders et al (1-D)
  Accuracy factor for lattice sums       =   12.000


  Time limit = Infinity

  Maximum range for interatomic potentials =        16.000000 Angstroms

  Taper potentials to zero over   1.0000 Angstroms using polynomial

  General interatomic potentials :

--------------------------------------------------------------------------------
Atom  Types   Potential         A         B         C         D     Cutoffs(Ang)
  1     2                                                            Min    Max 
--------------------------------------------------------------------------------
Si   c O1   s Buckingham    0.132E+04 0.318      10.1      0.00     0.000 16.000
Si   c O2   s Buckingham    0.132E+04 0.318      10.1      0.00     0.000 16.000
Si   c O3   s Buckingham    0.132E+04 0.318      10.1      0.00     0.000 16.000
Ge   c O1   s Buckingham    0.150E+04 0.326      16.8      0.00     0.000 16.000
Ge   c O2   s Buckingham    0.150E+04 0.326      16.8      0.00     0.000 16.000
Ge   c O3   s Buckingham    0.150E+04 0.326      16.8      0.00     0.000 16.000
O1   s O1   s Buckingham    0.228E+05 0.149      10.9      0.00     0.000 16.000
O1   s O2   s Buckingham    0.228E+05 0.149      10.9      0.00     0.000 16.000
O1   s O3   s Buckingham    0.228E+05 0.149      10.9      0.00     0.000 16.000
O2   s O2   s Buckingham    0.228E+05 0.149      10.9      0.00     0.000 16.000
O2   s O3   s Buckingham    0.228E+05 0.149      10.9      0.00     0.000 16.000
O3   s O3   s Buckingham    0.228E+05 0.149      10.9      0.00     0.000 16.000
Si   c F    s Buckingham     977.     0.282      0.00      0.00     0.000 16.000
Ge   c F    s Buckingham     681.     0.320      0.00      0.00     0.000 16.000
F    s F    s Buckingham     540.     0.262      0.00      0.00     0.000 16.000
O1   s F    s Buckingham    0.168E+04 0.268      0.00      0.00     0.000 16.000
O2   s F    s Buckingham    0.168E+04 0.268      0.00      0.00     0.000 16.000
O3   s F    s Buckingham    0.168E+04 0.268      0.00      0.00     0.000 16.000
O2   c O2   s Spring (c-s)   76.0      0.00      0.00      0.00     0.000  0.800
O3   c O3   s Spring (c-s)   128.      0.00      0.00      0.00     0.000  0.800
O1   c O1   s Spring (c-s)   180.      0.00      0.00      0.00     0.000  0.800
F    c F    s Spring (c-s)   33.5      0.00      0.00      0.00     0.000  0.800
--------------------------------------------------------------------------------

  General Three-body potentials :

  Harmonic form:

--------------------------------------------------------------------------------
Atom    Atom    Atom           Force Constants            Theta     Cutoffs  
  1       2       3     (eVrad**-2/eVrad**-3/eVrad**-4)   (deg)  1-2  1-3  2-3
--------------------------------------------------------------------------------
Si    c O1    s O1    s  1.261        0.0000    0.0000   109.470 0.00 0.00 0.00
                                                                 1.90 1.90 3.50
Si    c O1    s O2    s  1.261        0.0000    0.0000   109.470 0.00 0.00 0.00
                                                                 1.90 1.90 3.50
Si    c O2    s O2    s  1.261        0.0000    0.0000   109.470 0.00 0.00 0.00
                                                                 1.90 1.90 3.50
--------------------------------------------------------------------------------

********************************************************************************
*  Output for configuration   1                                                *
********************************************************************************


  Components of energy : 

--------------------------------------------------------------------------------
  Interatomic potentials     =        2066.36893412 eV
  Three-body potentials      =           0.48593862 eV
  Monopole - monopole (real) =       -6615.38347055 eV
  Monopole - monopole (recip)=       -3172.28696560 eV
  Monopole - monopole (total)=       -9787.67043615 eV
  Neutralising energy        =          -6.46195680 eV
--------------------------------------------------------------------------------
  Total lattice energy       =       -7727.27752020 eV
--------------------------------------------------------------------------------
  Total lattice energy       =         -745564.1584 kJ/(mole unit cells)
--------------------------------------------------------------------------------


  Number of variables =      939

  Maximum number of calculations  =          5000
  Maximum Hessian update interval =            10
  Maximum step size               =   0.100000000
  Maximum parameter tolerance     =   0.000010000
  Maximum function  tolerance     =   0.000010000
  Maximum gradient  tolerance     =   0.001000000
  Maximum gradient  component     =   0.010000000

  Symmetry not applied to optimisation

  Cell parameters to be optimised using strains

  Newton-Raphson optimiser to be used

  BFGS hessian update to be used

  Dumpfile to be written after every cycle

  Start of bulk optimisation :

  Cycle:      0 Energy:     -7727.277520  Gnorm:      0.012639  CPU:    2.047
  ** Hessian calculated **
  Cycle:      1 Energy:     -7727.277854  Gnorm:      0.003828  CPU:    5.242
  Cycle:      2 Energy:     -7727.277962  Gnorm:      0.002456  CPU:    8.053
  Cycle:      3 Energy:     -7727.278218  Gnorm:      0.002303  CPU:   12.887
  Cycle:      4 Energy:     -7727.278615  Gnorm:      0.004447  CPU:   17.723
  Cycle:      5 Energy:     -7727.279094  Gnorm:      0.006674  CPU:   21.884
  Cycle:      6 Energy:     -7727.279725  Gnorm:      0.008835  CPU:   26.045
  Cycle:      7 Energy:     -7727.280590  Gnorm:      0.011354  CPU:   30.206
  Cycle:      8 Energy:     -7727.281787  Gnorm:      0.014206  CPU:   34.366
  Cycle:      9 Energy:     -7727.283413  Gnorm:      0.016939  CPU:   38.527
  Cycle:     10 Energy:     -7727.285576  Gnorm:      0.019736  CPU:   42.688
  ** Hessian calculated **
  Cycle:     11 Energy:     -7727.286934  Gnorm:      0.006941  CPU:   47.887
  Cycle:     12 Energy:     -7727.287815  Gnorm:      0.005511  CPU:   52.051
  Cycle:     13 Energy:     -7727.288524  Gnorm:      0.004715  CPU:   55.536
  Cycle:     14 Energy:     -7727.289002  Gnorm:      0.005044  CPU:   59.021
  Cycle:     15 Energy:     -7727.289332  Gnorm:      0.003933  CPU:   62.507
  Cycle:     16 Energy:     -7727.289607  Gnorm:      0.003197  CPU:   65.993
  Cycle:     17 Energy:     -7727.289964  Gnorm:      0.003420  CPU:   70.154
  Cycle:     18 Energy:     -7727.290401  Gnorm:      0.004100  CPU:   74.316
  Cycle:     19 Energy:     -7727.290994  Gnorm:      0.005423  CPU:   78.488
  Cycle:     20 Energy:     -7727.291832  Gnorm:      0.006761  CPU:   82.651
  ** Hessian calculated **
  Cycle:     21 Energy:     -7727.292827  Gnorm:      0.006736  CPU:   88.548
  Cycle:     22 Energy:     -7727.294510  Gnorm:      0.006696  CPU:   93.394
  Cycle:     23 Energy:     -7727.297112  Gnorm:      0.006632  CPU:   98.241
  Cycle:     24 Energy:     -7727.301016  Gnorm:      0.006535  CPU:  103.078
  Cycle:     25 Energy:     -7727.305829  Gnorm:      0.006413  CPU:  107.250
  Cycle:     26 Energy:     -7727.313810  Gnorm:      0.006204  CPU:  112.096
  Cycle:     27 Energy:     -7727.325715  Gnorm:      0.005879  CPU:  116.941
  Cycle:     28 Energy:     -7727.339814  Gnorm:      0.005468  CPU:  121.115
  Cycle:     29 Energy:     -7727.361448  Gnorm:      0.004767  CPU:  125.961
  Cycle:     30 Energy:     -7727.384842  Gnorm:      0.003885  CPU:  130.129
  ** Hessian calculated **
  Cycle:     31 Energy:     -7727.410541  Gnorm:      0.002555  CPU:  136.015
  Cycle:     32 Energy:     -7727.422198  Gnorm:      0.001726  CPU:  140.177
  Cycle:     33 Energy:     -7727.425038  Gnorm:      0.001049  CPU:  144.340
  Cycle:     34 Energy:     -7727.425746  Gnorm:      0.000578  CPU:  148.502
  Cycle:     35 Energy:     -7727.425924  Gnorm:      0.000304  CPU:  152.665
  Cycle:     36 Energy:     -7727.425955  Gnorm:      0.000215  CPU:  155.477
  Cycle:     37 Energy:     -7727.425969  Gnorm:      0.000151  CPU:  158.290
  Cycle:     38 Energy:     -7727.425977  Gnorm:      0.000106  CPU:  161.102
  Cycle:     39 Energy:     -7727.425980  Gnorm:      0.000075  CPU:  163.914
  Cycle:     40 Energy:     -7727.425982  Gnorm:      0.000052  CPU:  166.734
  ** Hessian calculated **
  Cycle:     41 Energy:     -7727.425982  Gnorm:      0.000029  CPU:  171.271


  **** Optimisation achieved ****


  Final energy =   -7727.42598211 eV
  Final Gnorm  =       0.00002191

  Components of energy : 

--------------------------------------------------------------------------------
  Interatomic potentials     =        2067.33387108 eV
  Three-body potentials      =           0.49895832 eV
  Monopole - monopole (real) =       -6616.59642135 eV
  Monopole - monopole (recip)=       -3172.20060506 eV
  Monopole - monopole (total)=       -9788.79702640 eV
  Neutralising energy        =          -6.46178510 eV
--------------------------------------------------------------------------------
  Total lattice energy       =       -7727.42598211 eV
--------------------------------------------------------------------------------
  Total lattice energy       =         -745578.4827 kJ/(mole unit cells)
--------------------------------------------------------------------------------

  Final fractional coordinates of atoms :

--------------------------------------------------------------------------------
   No.  Atomic        x           y          z          Radius
        Label       (Frac)      (Frac)     (Frac)       (Angs) 
--------------------------------------------------------------------------------
     1  Ge    c     0.699600    0.375700    0.033890    0.000000
     2  Si    c     0.593507    0.293105    0.367614    0.000000
     3  Si    c     0.666911    0.285174    0.702377    0.000000
     4  Si    c     0.273172    0.600713    0.533639    0.000000
     5  Si    c     0.346425    0.655624    0.866792    0.000000
     6  Si    c     0.296900    0.689885    0.201184    0.000000
     7  Si    c     0.350430    0.678238    0.303515    0.000000
     8  Si    c     0.301237    0.605755    0.967057    0.000000
     9  Si    c     0.280632    0.659508    0.634613    0.000000
    10  Si    c     0.612064    0.295943    0.804402    0.000000
    11  Si    c     0.648057    0.356791    0.469510    0.000000
    12  Si    c     0.663452    0.303640    0.131633    0.000000
    13  Si    c     0.517954    0.410514    0.967670    0.000000
    14  Ge    c     0.543486    0.072849    0.301848    0.000000
    15  Si    c     0.872477    0.453191    0.636480    0.000000
    16  Si    c     0.439506    0.558639    0.467841    0.000000
    17  Si    c     0.395496    0.867656    0.804912    0.000000
    18  Si    c     0.085164    0.518344    0.132980    0.000000
    19  Si    c     0.387521    0.500453    0.366180    0.000000
    20  Si    c     0.090124    0.572610    0.029868    0.000000
    21  Si    c     0.455319    0.869072    0.701924    0.000000
    22  Si    c     0.561022    0.465569    0.865354    0.000000
    23  Si    c     0.862726    0.396574    0.534585    0.000000
    24  Si    c     0.507836    0.108408    0.203006    0.000000
    25  Si    c     0.275682    0.382134    0.851476    0.000000
    26  Si    c     0.579960    0.895763    0.187809    0.000000
    27  Si    c     0.070881    0.676963    0.519413    0.000000
    28  Si    c     0.667413    0.571143    0.353012    0.000000
    29  Si    c     0.383516    0.080912    0.686674    0.000000
    30  Si    c     0.878965    0.283619    0.012593    0.000000
    31  Si    c     0.369896    0.280610    0.482339    0.000000
    32  Si    c     0.871413    0.588790    0.144581    0.000000
    33  Ge    c     0.670630    0.085513    0.811597    0.000000
    34  Si    c     0.582263    0.689972    0.980736    0.000000
    35  Si    c     0.081380    0.381520    0.650192    0.000000
    36  Si    c     0.270467    0.878494    0.323302    0.000000
    37  Si    c     0.235244    0.328598    0.952243    0.000000
    38  Si    c     0.639203    0.891867    0.290449    0.000000
    39  Si    c     0.071762    0.731125    0.620351    0.000000
    40  Si    c     0.718000    0.635417    0.453819    0.000000
    41  Si    c     0.324514    0.076435    0.788298    0.000000
    42  Si    c     0.880728    0.236235    0.116352    0.000000
    43  Si    c     0.311434    0.223869    0.381215    0.000000
    44  Si    c     0.890930    0.658296    0.042305    0.000000
    45  Si    c     0.740946    0.073032    0.715864    0.000000
    46  Si    c     0.633453    0.742397    0.879764    0.000000
    47  Si    c     0.064602    0.319595    0.549090    0.000000
    48  Si    c     0.225870    0.901210    0.220139    0.000000
    49  Si    c     0.958248    0.109229    0.965484    0.000000
    50  Si    c     0.847002    0.814356    0.301971    0.000000
    51  Si    c     0.134066    0.010664    0.634540    0.000000
    52  Si    c     0.998396    0.854977    0.469735    0.000000
    53  Si    c     0.099908    0.130559    0.801131    0.000000
    54  Si    c     0.824525    0.960804    0.135578    0.000000
    55  Si    c     0.088809    0.941822    0.369187    0.000000
    56  Si    c     0.832317    0.875269    0.033439    0.000000
    57  Si    c     0.015028    0.133832    0.698733    0.000000
    58  Si    c     0.857488    0.019856    0.864314    0.000000
    59  Si    c     0.125107    0.101805    0.533877    0.000000
    60  Si    c     0.942672    0.833589    0.200357    0.000000
    61  O2    c     0.911927    0.999707    0.003311    0.000000
    62  O2    c     0.970019    0.898524    0.334301    0.000000
    63  O2    c     0.057424    0.054478    0.666734    0.000000
    64  O2    c     0.040698    0.976891    0.502450    0.000000
    65  O2    c     0.979244    0.048782    0.832900    0.000000
    66  O2    c     0.905367    0.922118    0.170034    0.000000
    67  O2    c     0.311965    0.551013    0.332766    0.000000
    68  O2    c     0.404834    0.745629    0.668146    0.000000
    69  O2    c     0.218482    0.645496    0.000053    0.000000
    70  O2    c     0.640386    0.423689    0.832075    0.000000
    71  O2    c     0.549350    0.223611    0.167134    0.000000
    72  O2    c     0.733340    0.319333    0.502862    0.000000
    73  O3    c     0.563937    0.334073    0.998196    0.000000
    74  O2    c     0.749208    0.405786    0.669267    0.000000
    75  O3    c     0.631465    0.209855    0.337956    0.000000
    76  O2    c     0.392387    0.636554    0.500002    0.000000
    77  O2    c     0.210160    0.569948    0.166987    0.000000
    78  O2    c     0.305101    0.738051    0.833634    0.000000
    79  O2    c     0.112897    0.199270    0.972340    0.000000
    80  O2    c     0.756996    0.875498    0.308743    0.000000
    81  O2    c     0.071941    0.857313    0.640116    0.000000
    82  O2    c     0.844393    0.762892    0.474787    0.000000
    83  O2    c     0.198216    0.075474    0.807138    0.000000
    84  O2    c     0.885002    0.115132    0.138751    0.000000
    85  O2    c     0.184352    0.094145    0.361547    0.000000
    86  O2    c     0.906870    0.795759    0.028179    0.000000
    87  O2    c     0.861429    0.074553    0.690198    0.000000
    88  O2    c     0.755178    0.866096    0.858091    0.000000
    89  O2    c     0.061385    0.191955    0.529201    0.000000
    90  O2    c     0.098017    0.897338    0.198826    0.000000
    91  O2    c     0.895081    0.829346    0.250802    0.000000
    92  O2    c     0.119729    0.050976    0.584270    0.000000
    93  O2    c     0.915802    0.046191    0.916038    0.000000
    94  O2    c     0.050435    0.114094    0.749359    0.000000
    95  O2    c     0.835888    0.918052    0.085538    0.000000
    96  O2    c     0.035311    0.910300    0.419515    0.000000
    97  O2    c     0.893355    0.195915    0.974633    0.000000
    98  O2    c     0.766155    0.663666    0.314115    0.000000
    99  O2    c     0.287208    0.079809    0.647166    0.000000
   100  O2    c     0.069424    0.774124    0.481299    0.000000
   101  O2    c     0.177911    0.282640    0.812695    0.000000
   102  O2    c     0.673533    0.893716    0.148972    0.000000
   103  O2    c     0.161399    0.862106    0.359114    0.000000
   104  O2    c     0.681362    0.789356    0.019646    0.000000
   105  O2    c     0.087748    0.286415    0.688044    0.000000
   106  O3    c     0.787743    0.096667    0.853485    0.000000
   107  O2    c     0.275063    0.183455    0.520663    0.000000
   108  O2    c     0.873607    0.686270    0.183002    0.000000
   109  O2    c     0.300504    0.634754    0.250959    0.000000
   110  O2    c     0.335319    0.659296    0.584117    0.000000
   111  O2    c     0.291616    0.658861    0.916965    0.000000
   112  O2    c     0.666441    0.340360    0.752602    0.000000
   113  O3    c     0.602088    0.298338    0.083303    0.000000
   114  O2    c     0.646187    0.298446    0.419802    0.000000
   115  O2    c     0.360126    0.323475    0.969884    0.000000
   116  O3    c     0.659563    0.021986    0.311008    0.000000
   117  O2    c     0.941577    0.609227    0.639656    0.000000
   118  O2    c     0.596559    0.646519    0.471614    0.000000
   119  O2    c     0.315348    0.944387    0.804854    0.000000
   120  O2    c     0.011431    0.363198    0.135268    0.000000
   121  O2    c     0.298091    0.344281    0.362387    0.000000
   122  O2    c     0.024861    0.662262    0.028718    0.000000
   123  O2    c     0.611454    0.939641    0.699372    0.000000
   124  O2    c     0.644294    0.620761    0.862131    0.000000
   125  O2    c     0.930611    0.309140    0.531202    0.000000
   126  O2    c     0.348458    0.031685    0.202063    0.000000
   127  O3    c     0.745854    0.276946    0.003196    0.000000
   128  O2    c     0.667054    0.438369    0.346759    0.000000
   129  O2    c     0.520069    0.212301    0.681438    0.000000
   130  O2    c     0.203882    0.675572    0.511781    0.000000
   131  O2    c     0.270585    0.512654    0.843563    0.000000
   132  O2    c     0.440842    0.764679    0.180864    0.000000
   133  O2    c     0.273251    0.744299    0.324279    0.000000
   134  O2    c     0.446561    0.685945    0.989406    0.000000
   135  O2    c     0.215173    0.517635    0.657242    0.000000
   136  O3    c     0.687823    0.235805    0.828948    0.000000
   137  O2    c     0.505292    0.284334    0.491606    0.000000
   138  O2    c     0.741035    0.452547    0.151759    0.000000
   139  O3    c     0.768773    0.543723    0.018376    0.000000
   140  O2    c     0.436005    0.224774    0.361628    0.000000
   141  O2    c     0.733557    0.197799    0.698539    0.000000
   142  O2    c     0.189339    0.444691    0.529234    0.000000
   143  O2    c     0.502316    0.734232    0.860839    0.000000
   144  O2    c     0.230727    0.777612    0.201259    0.000000
   145  O2    c     0.505411    0.768328    0.307479    0.000000
   146  O2    c     0.228144    0.450259    0.972737    0.000000
   147  O2    c     0.201380    0.735764    0.639457    0.000000
   148  O2    c     0.454577    0.201631    0.806570    0.000000
   149  O2    c     0.721379    0.512723    0.474025    0.000000
   150  O2    c     0.755385    0.238365    0.133748    0.000000
   151  O2    c     0.208533    0.308220    0.897833    0.000000
   152  O2    c     0.648531    0.894011    0.235120    0.000000
   153  O2    c     0.069062    0.747975    0.565944    0.000000
   154  O2    c     0.737937    0.650957    0.399450    0.000000
   155  O2    c     0.314745    0.078006    0.733429    0.000000
   156  O2    c     0.883370    0.222354    0.062056    0.000000
   157  O2    c     0.295024    0.207043    0.435661    0.000000
   158  O2    c     0.875395    0.657645    0.097535    0.000000
   159  O3    c     0.771676    0.077646    0.768514    0.000000
   160  O2    c     0.652679    0.761917    0.934510    0.000000
   161  O2    c     0.072015    0.305641    0.603474    0.000000
   162  O2    c     0.212484    0.896431    0.274467    0.000000
   163  O2    c     0.570971    0.553405    0.989805    0.000000
   164  O3    c     0.403536    0.000118    0.337411    0.000000
   165  O2    c     0.956630    0.395671    0.659570    0.000000
   166  O2    c     0.380639    0.418212    0.491058    0.000000
   167  O3    c     0.531943    0.944893    0.830998    0.000000
   168  O2    c     0.996752    0.573006    0.152011    0.000000
   169  O2    c     0.527908    0.558459    0.342860    0.000000
   170  O2    c     0.998246    0.431313    0.008141    0.000000
   171  O2    c     0.403445    0.959630    0.681156    0.000000
   172  O2    c     0.416749    0.401023    0.842530    0.000000
   173  O2    c     0.945097    0.536417    0.510988    0.000000
   174  O2    c     0.562195    0.018524    0.182053    0.000000
   175  O3    c     0.564422    0.167932    0.251692    0.000000
   176  O2    c     0.814198    0.398274    0.585746    0.000000
   177  O2    c     0.566102    0.414825    0.915746    0.000000
   178  O2    c     0.404068    0.822379    0.752823    0.000000
   179  O2    c     0.133654    0.566128    0.082253    0.000000
   180  O2    c     0.385372    0.557119    0.416353    0.000000
   181  F     c     0.449759    0.928792    0.263155    0.000000
   182  F     c     0.075795    0.530431    0.585490    0.000000
   183  F     c     0.422838    0.537944    0.916257    0.000000
   184  F     c     0.562781    0.082423    0.762812    0.000000
   185  F     c     0.843183    0.429614    0.072205    0.000000
   186  F     c     0.514133    0.430573    0.418066    0.000000
   187  O2    s     0.907838    0.997464    0.002606    0.000000
   188  O2    s     0.969473    0.893777    0.334570    0.000000
   189  O2    s     0.061484    0.058354    0.666623    0.000000
   190  O2    s     0.045441    0.977260    0.502313    0.000000
   191  O2    s     0.980373    0.055062    0.832539    0.000000
   192  O2    s     0.900692    0.916761    0.169593    0.000000
   193  O2    s     0.323457    0.559534    0.332928    0.000000
   194  O2    s     0.397365    0.749650    0.668217    0.000000
   195  O2    s     0.212898    0.633692    0.999978    0.000000
   196  O2    s     0.629219    0.414381    0.832532    0.000000
   197  O2    s     0.556949    0.219883    0.167172    0.000000
   198  O2    s     0.738097    0.331230    0.502747    0.000000
   199  O3    s     0.568801    0.345493    0.997454    0.000000
   200  O2    s     0.753245    0.398045    0.669369    0.000000
   201  O3    s     0.621169    0.209492    0.338713    0.000000
   202  O2    s     0.384916    0.624944    0.500199    0.000000
   203  O2    s     0.206308    0.577217    0.167064    0.000000
   204  O2    s     0.318289    0.742912    0.834034    0.000000
   205  O2    s     0.108811    0.202799    0.969589    0.000000
   206  O2    s     0.754065    0.870388    0.305973    0.000000
   207  O2    s     0.078562    0.860671    0.637512    0.000000
   208  O2    s     0.847935    0.759645    0.472106    0.000000
   209  O2    s     0.201508    0.081268    0.804538    0.000000
   210  O2    s     0.878228    0.111407    0.136143    0.000000
   211  O2    s     0.187219    0.091265    0.364337    0.000000
   212  O2    s     0.897374    0.789970    0.030188    0.000000
   213  O2    s     0.865580    0.080664    0.693605    0.000000
   214  O2    s     0.752408    0.868293    0.861025    0.000000
   215  O2    s     0.068441    0.195552    0.531713    0.000000
   216  O2    s     0.094830    0.890977    0.201188    0.000000
   217  O2    s     0.895190    0.828175    0.250734    0.000000
   218  O2    s     0.121987    0.052105    0.584338    0.000000
   219  O2    s     0.914680    0.050711    0.916398    0.000000
   220  O2    s     0.051944    0.118206    0.749357    0.000000
   221  O2    s     0.834206    0.918368    0.085664    0.000000
   222  O2    s     0.037269    0.907663    0.419421    0.000000
   223  O2    s     0.898792    0.196163    0.977789    0.000000
   224  O2    s     0.765041    0.670665    0.316663    0.000000
   225  O2    s     0.281390    0.072707    0.650010    0.000000
   226  O2    s     0.062118    0.772752    0.483952    0.000000
   227  O2    s     0.179654    0.276641    0.815457    0.000000
   228  O2    s     0.679570    0.900871    0.151575    0.000000
   229  O2    s     0.164857    0.872011    0.356532    0.000000
   230  O2    s     0.687765    0.788676    0.017228    0.000000
   231  O2    s     0.079553    0.280252    0.685296    0.000000
   232  O3    s     0.787973    0.087348    0.852002    0.000000
   233  O2    s     0.268553    0.184601    0.518156    0.000000
   234  O2    s     0.880859    0.691995    0.180833    0.000000
   235  O2    s     0.305123    0.644921    0.250977    0.000000
   236  O2    s     0.323563    0.653440    0.584148    0.000000
   237  O2    s     0.298133    0.653084    0.917002    0.000000
   238  O2    s     0.661265    0.330249    0.752301    0.000000
   239  O3    s     0.614948    0.303849    0.085398    0.000000
   240  O2    s     0.641114    0.304164    0.419910    0.000000
   241  O2    s     0.362002    0.332754    0.967694    0.000000
   242  O3    s     0.649589    0.011466    0.308162    0.000000
   243  O2    s     0.948148    0.605967    0.637291    0.000000
   244  O2    s     0.593093    0.636310    0.469350    0.000000
   245  O2    s     0.324361    0.950848    0.803074    0.000000
   246  O2    s     0.005832    0.366608    0.133085    0.000000
   247  O2    s     0.308557    0.348096    0.364679    0.000000
   248  O2    s     0.018385    0.652575    0.030201    0.000000
   249  O2    s     0.608103    0.945661    0.701317    0.000000
   250  O2    s     0.634304    0.617093    0.864341    0.000000
   251  O2    s     0.937666    0.319209    0.533429    0.000000
   252  O2    s     0.350705    0.025119    0.204100    0.000000
   253  O3    s     0.757052    0.284288    0.006333    0.000000
   254  O2    s     0.659774    0.438493    0.349553    0.000000
   255  O2    s     0.520459    0.205647    0.684168    0.000000
   256  O2    s     0.197016    0.668084    0.514845    0.000000
   257  O2    s     0.278918    0.513616    0.846826    0.000000
   258  O2    s     0.440018    0.770321    0.183735    0.000000
   259  O2    s     0.281018    0.750881    0.321980    0.000000
   260  O2    s     0.445635    0.678141    0.986196    0.000000
   261  O2    s     0.207821    0.517924    0.654128    0.000000
   262  O3    s     0.678732    0.231691    0.825154    0.000000
   263  O2    s     0.505649    0.291422    0.488321    0.000000
   264  O2    s     0.747688    0.453003    0.149037    0.000000
   265  O3    s     0.777999    0.545675    0.021947    0.000000
   266  O2    s     0.437870    0.231638    0.364341    0.000000
   267  O2    s     0.727069    0.194306    0.700719    0.000000
   268  O2    s     0.184439    0.447399    0.531828    0.000000
   269  O2    s     0.500233    0.726744    0.863482    0.000000
   270  O2    s     0.237402    0.781250    0.203241    0.000000
   271  O2    s     0.502221    0.771327    0.305313    0.000000
   272  O2    s     0.236475    0.453681    0.970054    0.000000
   273  O2    s     0.195527    0.727346    0.636922    0.000000
   274  O2    s     0.455836    0.197046    0.804359    0.000000
   275  O2    s     0.713281    0.509790    0.471391    0.000000
   276  O2    s     0.760222    0.244558    0.131641    0.000000
   277  O2    s     0.218355    0.318132    0.898655    0.000000
   278  O2    s     0.640144    0.894007    0.235536    0.000000
   279  O2    s     0.069533    0.738716    0.566848    0.000000
   280  O2    s     0.728536    0.641080    0.400346    0.000000
   281  O2    s     0.323172    0.078150    0.734138    0.000000
   282  O2    s     0.882656    0.229786    0.063163    0.000000
   283  O2    s     0.304636    0.216583    0.434828    0.000000
   284  O2    s     0.876428    0.650025    0.097270    0.000000
   285  O3    s     0.761783    0.077637    0.765753    0.000000
   286  O2    s     0.643270    0.752337    0.933683    0.000000
   287  O2    s     0.072203    0.315088    0.602568    0.000000
   288  O2    s     0.219596    0.895280    0.273261    0.000000
   289  O2    s     0.566612    0.554058    0.986560    0.000000
   290  O3    s     0.398348    0.991485    0.333525    0.000000
   291  O2    s     0.961356    0.400301    0.656170    0.000000
   292  O2    s     0.385781    0.418108    0.487696    0.000000
   293  O3    s     0.528040    0.947409    0.826927    0.000000
   294  O2    s     0.992983    0.568736    0.149186    0.000000
   295  O2    s     0.528035    0.553675    0.346334    0.000000
   296  O2    s     0.995906    0.431679    0.010983    0.000000
   297  O2    s     0.406802    0.963641    0.683952    0.000000
   298  O2    s     0.416607    0.405830    0.845868    0.000000
   299  O2    s     0.950296    0.537065    0.514349    0.000000
   300  O2    s     0.558735    0.013663    0.184748    0.000000
   301  O3    s     0.556957    0.155298    0.249764    0.000000
   302  O2    s     0.825325    0.403836    0.585740    0.000000
   303  O2    s     0.560709    0.419817    0.915577    0.000000
   304  O2    s     0.408707    0.831738    0.752484    0.000000
   305  O2    s     0.124020    0.561616    0.082463    0.000000
   306  O2    s     0.391120    0.551473    0.416469    0.000000
   307  F     s     0.456016    0.938641    0.265741    0.000000
   308  F     s     0.076195    0.530762    0.585571    0.000000
   309  F     s     0.421843    0.538344    0.916219    0.000000
   310  F     s     0.569888    0.082778    0.765848    0.000000
   311  F     s     0.832519    0.425734    0.069517    0.000000
   312  F     s     0.513830    0.430910    0.418113    0.000000
--------------------------------------------------------------------------------

  Final Cartesian lattice vectors (Angstroms) :

       11.973928   -0.003078   -0.034269
       -6.086879   10.384189    0.016257
       -0.479011   -0.377946   29.391747


  Final cell parameters and derivatives :

--------------------------------------------------------------------------------
       a           11.973977 Angstrom     dE/de1(xx)     0.001120 eV/strain
       b           12.036684 Angstrom     dE/de2(yy)     0.000723 eV/strain
       c           29.398079 Angstrom     dE/de3(zz)     0.000772 eV/strain
       alpha       90.086004 Degrees      dE/de4(yz)     0.000016 eV/strain
       beta        91.097394 Degrees      dE/de5(xz)     0.000296 eV/strain
       gamma      120.392284 Degrees      dE/de6(xy)     0.000329 eV/strain
--------------------------------------------------------------------------------

  Primitive cell volume =          3653.829711 Angs**3

  Density of cell =      1.751065 g/cm**3

  Non-primitive cell volume =          3653.829711 Angs**3


  Final internal derivatives :

--------------------------------------------------------------------------------
   No.  Atomic          a             b             c           Radius
        Label          (eV)          (eV)          (eV)        (eV/Angs)
--------------------------------------------------------------------------------
      1 Ge    c       0.000000      0.000000      0.000000      0.000000
      2 Si    c       0.000129      0.000983      0.000498      0.000000
      3 Si    c      -0.000696     -0.000610      0.000127      0.000000
      4 Si    c      -0.000034      0.000136      0.000336      0.000000
      5 Si    c       0.000208     -0.000155      0.000438      0.000000
      6 Si    c       0.000203      0.000163     -0.000008      0.000000
      7 Si    c       0.000249      0.000515     -0.000280      0.000000
      8 Si    c       0.000817      0.000223      0.000433      0.000000
      9 Si    c      -0.000117      0.000054      0.001227      0.000000
     10 Si    c      -0.000179     -0.000947      0.000664      0.000000
     11 Si    c      -0.000260     -0.000157      0.000434      0.000000
     12 Si    c       0.001278      0.000509      0.008508      0.000000
     13 Si    c      -0.000794     -0.000080     -0.000897      0.000000
     14 Ge    c      -0.000070     -0.000253      0.000512      0.000000
     15 Si    c       0.000023      0.000054     -0.000786      0.000000
     16 Si    c       0.000178     -0.000143      0.000277      0.000000
     17 Si    c      -0.000179      0.000119      0.000439      0.000000
     18 Si    c       0.000432     -0.000060      0.000881      0.000000
     19 Si    c       0.000734      0.000272      0.000392      0.000000
     20 Si    c       0.000235     -0.000262     -0.001236      0.000000
     21 Si    c      -0.000165      0.000289      0.000198      0.000000
     22 Si    c      -0.000058     -0.000096     -0.000172      0.000000
     23 Si    c       0.000005      0.000086     -0.001454      0.000000
     24 Si    c      -0.000043     -0.000271      0.001092      0.000000
     25 Si    c      -0.000146     -0.000213      0.000014      0.000000
     26 Si    c      -0.000172     -0.000164      0.000498      0.000000
     27 Si    c       0.000227      0.000115      0.000356      0.000000
     28 Si    c       0.000666      0.000599      0.000745      0.000000
     29 Si    c       0.000096      0.000071     -0.000313      0.000000
     30 Si    c       0.001546      0.000774     -0.001285      0.000000
     31 Si    c      -0.000125     -0.000402     -0.001020      0.000000
     32 Si    c       0.000570     -0.000315      0.000445      0.000000
     33 Ge    c      -0.000374     -0.000547     -0.001010      0.000000
     34 Si    c       0.000415      0.000564      0.000169      0.000000
     35 Si    c      -0.000204      0.000073      0.000210      0.000000
     36 Si    c       0.000126      0.000113     -0.001297      0.000000
     37 Si    c       0.000011     -0.000024      0.000740      0.000000
     38 Si    c      -0.000020      0.000216      0.000687      0.000000
     39 Si    c       0.000042     -0.000131      0.000670      0.000000
     40 Si    c       0.000654      0.000393      0.000822      0.000000
     41 Si    c       0.000155      0.000288      0.000191      0.000000
     42 Si    c       0.001196      0.000085      0.000814      0.000000
     43 Si    c       0.000203     -0.000027     -0.000504      0.000000
     44 Si    c       0.000658     -0.000153     -0.003621      0.000000
     45 Si    c      -0.000803     -0.000260     -0.000510      0.000000
     46 Si    c       0.000250      0.000354     -0.000207      0.000000
     47 Si    c       0.000249      0.000510     -0.000502      0.000000
     48 Si    c       0.000159      0.000069     -0.000443      0.000000
     49 Si    c       0.000195      0.000562     -0.000491      0.000000
     50 Si    c       0.001086      0.000506     -0.000466      0.000000
     51 Si    c       0.000211      0.000172      0.000450      0.000000
     52 Si    c       0.000154     -0.000163      0.000612      0.000000
     53 Si    c       0.000070      0.000208     -0.000605      0.000000
     54 Si    c      -0.000106      0.000049      0.001219      0.000000
     55 Si    c       0.000513      0.000128      0.000053      0.000000
     56 Si    c      -0.000715     -0.000190      0.000572      0.000000
     57 Si    c      -0.000342     -0.000160     -0.000075      0.000000
     58 Si    c       0.000060      0.000627     -0.000071      0.000000
     59 Si    c       0.000005     -0.000057     -0.000105      0.000000
     60 Si    c       0.000404      0.000058     -0.001581      0.000000
     61 O2    c      -0.000092     -0.000619      0.001066      0.000000
     62 O2    c      -0.000344      0.000564     -0.000123      0.000000
     63 O2    c       0.000208      0.000115     -0.000111      0.000000
     64 O2    c       0.000025      0.000155      0.000106      0.000000
     65 O2    c       0.000088      0.000234     -0.000162      0.000000
     66 O2    c       0.000024     -0.000019      0.000057      0.000000
     67 O2    c      -0.000166      0.000012      0.000040      0.000000
     68 O2    c      -0.000112     -0.000007     -0.000056      0.000000
     69 O2    c       0.000467      0.000100      0.000395      0.000000
     70 O2    c       0.000288      0.000284     -0.000145      0.000000
     71 O2    c      -0.000413     -0.000114      0.000431      0.000000
     72 O2    c       0.000131     -0.000111     -0.000106      0.000000
     73 O3    c      -0.000305     -0.001376     -0.000275      0.000000
     74 O2    c      -0.000293      0.000074      0.000215      0.000000
     75 O3    c       0.000571     -0.000072     -0.000272      0.000000
     76 O2    c      -0.000021      0.000244     -0.000184      0.000000
     77 O2    c       0.000312     -0.000189      0.000254      0.000000
     78 O2    c      -0.000219     -0.000164      0.000733      0.000000
     79 O2    c      -0.000008      0.000061     -0.000220      0.000000
     80 O2    c       0.000100      0.000202      0.000078      0.000000
     81 O2    c      -0.000292      0.000206      0.000058      0.000000
     82 O2    c       0.000177      0.000144      0.000066      0.000000
     83 O2    c      -0.000340     -0.000094     -0.000045      0.000000
     84 O2    c       0.000091     -0.000717     -0.000217      0.000000
     85 O2    c       0.000230      0.000172      0.000313      0.000000
     86 O2    c       0.000885      0.000246     -0.000831      0.000000
     87 O2    c       0.000323      0.000044      0.000330      0.000000
     88 O2    c       0.000137     -0.000071      0.000476      0.000000
     89 O2    c      -0.000000      0.000175     -0.000212      0.000000
     90 O2    c      -0.000112      0.000086      0.000331      0.000000
     91 O2    c       0.000202      0.000061      0.000184      0.000000
     92 O2    c      -0.000100      0.000108      0.000101      0.000000
     93 O2    c      -0.000467      0.000131     -0.002163      0.000000
     94 O2    c      -0.000026      0.000282     -0.000433      0.000000
     95 O2    c      -0.000269      0.000771      0.001431      0.000000
     96 O2    c       0.000197     -0.000002      0.000013      0.000000
     97 O2    c      -0.000137      0.000010     -0.000367      0.000000
     98 O2    c       0.000373     -0.000364      0.000765      0.000000
     99 O2    c      -0.000104     -0.000219      0.000289      0.000000
    100 O2    c       0.000107      0.000442     -0.000437      0.000000
    101 O2    c       0.000120      0.000014     -0.000248      0.000000
    102 O2    c       0.000385     -0.000021     -0.001180      0.000000
    103 O2    c       0.000061     -0.000363      0.000390      0.000000
    104 O2    c      -0.000134      0.000186     -0.000590      0.000000
    105 O2    c      -0.000018     -0.000172      0.000218      0.000000
    106 O3    c      -0.000087     -0.000120      0.000730      0.000000
    107 O2    c       0.000255     -0.000062     -0.000058      0.000000
    108 O2    c       0.000208     -0.000294      0.000803      0.000000
    109 O2    c      -0.000136     -0.000157     -0.000635      0.000000
    110 O2    c      -0.000181      0.000299      0.000099      0.000000
    111 O2    c       0.000251     -0.000090     -0.000062      0.000000
    112 O2    c       0.000180      0.000172     -0.001138      0.000000
    113 O3    c      -0.003929     -0.001416     -0.000285      0.000000
    114 O2    c      -0.000330      0.000462     -0.000558      0.000000
    115 O2    c      -0.000263      0.000044     -0.000722      0.000000
    116 O3    c      -0.000440      0.000379     -0.001093      0.000000
    117 O2    c      -0.000005     -0.000365     -0.000828      0.000000
    118 O2    c       0.000053     -0.000197     -0.000536      0.000000
    119 O2    c      -0.000102     -0.000223     -0.000156      0.000000
    120 O2    c       0.000521      0.000003      0.000486      0.000000
    121 O2    c       0.000410     -0.000002      0.000228      0.000000
    122 O2    c       0.000790      0.000596     -0.000033      0.000000
    123 O2    c      -0.000340     -0.000039      0.000235      0.000000
    124 O2    c       0.000103     -0.000002      0.000642      0.000000
    125 O2    c       0.000193      0.000224      0.000793      0.000000
    126 O2    c       0.000523     -0.000051      0.000014      0.000000
    127 O3    c       0.000538     -0.000481     -0.001572      0.000000
    128 O2    c       0.000127      0.000385      0.000750      0.000000
    129 O2    c       0.000222     -0.000049     -0.000084      0.000000
    130 O2    c       0.000028      0.000062      0.000832      0.000000
    131 O2    c       0.000088      0.000385      0.000679      0.000000
    132 O2    c       0.000257      0.000042      0.000320      0.000000
    133 O2    c      -0.000243      0.000085      0.000556      0.000000
    134 O2    c       0.000307      0.000006     -0.000340      0.000000
    135 O2    c      -0.000299      0.000086     -0.000645      0.000000
    136 O3    c       0.000041     -0.000134      0.000223      0.000000
    137 O2    c      -0.000151      0.000209     -0.001020      0.000000
    138 O2    c       0.000216     -0.000072     -0.000290      0.000000
    139 O3    c      -0.000936     -0.000991     -0.001750      0.000000
    140 O2    c       0.000246      0.000271      0.000581      0.000000
    141 O2    c       0.000140      0.000153     -0.000075      0.000000
    142 O2    c      -0.000076      0.000214      0.000088      0.000000
    143 O2    c       0.000495      0.000065      0.000989      0.000000
    144 O2    c       0.000150     -0.000011      0.000372      0.000000
    145 O2    c      -0.000106      0.000089     -0.000040      0.000000
    146 O2    c       0.000027     -0.000369     -0.000503      0.000000
    147 O2    c      -0.000180     -0.000135     -0.001035      0.000000
    148 O2    c      -0.000024     -0.000177     -0.000653      0.000000
    149 O2    c      -0.000163     -0.000219     -0.000731      0.000000
    150 O2    c       0.000021     -0.000293      0.000276      0.000000
    151 O2    c       0.000154      0.000082     -0.000029      0.000000
    152 O2    c      -0.000301      0.000463      0.000420      0.000000
    153 O2    c       0.000318     -0.000462     -0.000236      0.000000
    154 O2    c      -0.000047     -0.000282     -0.000501      0.000000
    155 O2    c      -0.000152     -0.000151      0.000713      0.000000
    156 O2    c       0.000389     -0.000594     -0.002081      0.000000
    157 O2    c       0.000322      0.000048      0.000776      0.000000
    158 O2    c       0.000252      0.000428      0.005756      0.000000
    159 O3    c      -0.000057      0.000143      0.000079      0.000000
    160 O2    c      -0.000074     -0.000058      0.000110      0.000000
    161 O2    c      -0.000427      0.000281     -0.000909      0.000000
    162 O2    c      -0.000004     -0.000092     -0.000346      0.000000
    163 O2    c       0.000053     -0.000243     -0.000703      0.000000
    164 O3    c      -0.000110     -0.000199     -0.000533      0.000000
    165 O2    c      -0.000282     -0.000013     -0.001399      0.000000
    166 O2    c       0.000123     -0.000194     -0.000581      0.000000
    167 O3    c      -0.000460      0.000056     -0.000389      0.000000
    168 O2    c       0.000185      0.000258      0.000354      0.000000
    169 O2    c       0.000560      0.000100      0.000972      0.000000
    170 O2    c       0.000803      0.000092      0.000162      0.000000
    171 O2    c      -0.000229     -0.000203     -0.000076      0.000000
    172 O2    c       0.000485      0.000060      0.000743      0.000000
    173 O2    c       0.000347      0.000161      0.001205      0.000000
    174 O2    c       0.000166      0.000092      0.000954      0.000000
    175 O3    c       0.000387     -0.000642     -0.000104      0.000000
    176 O2    c       0.000227      0.000000      0.000091      0.000000
    177 O2    c       0.000047     -0.000001     -0.000902      0.000000
    178 O2    c      -0.000078     -0.000124     -0.000284      0.000000
    179 O2    c       0.000552      0.000034     -0.000107      0.000000
    180 O2    c       0.000434     -0.000176      0.000257      0.000000
    181 F     c       0.000426      0.000473      0.000320      0.000000
    182 F     c      -0.000354      0.000101     -0.000138      0.000000
    183 F     c       0.000230     -0.000128     -0.000177      0.000000
    184 F     c      -0.000133     -0.000202      0.000822      0.000000
    185 F     c       0.000342      0.000314     -0.001737      0.000000
    186 F     c       0.000236      0.000049     -0.000007      0.000000
    187 O2    s       0.000889     -0.001075      0.000211      0.000000
    188 O2    s      -0.000465      0.001018     -0.001385      0.000000
    189 O2    s       0.000214      0.000141     -0.000136      0.000000
    190 O2    s      -0.000302      0.000044      0.000285      0.000000
    191 O2    s       0.000167      0.000493     -0.000055      0.000000
    192 O2    s       0.000250     -0.000344     -0.000301      0.000000
    193 O2    s       0.000288      0.000442     -0.000216      0.000000
    194 O2    s      -0.000191     -0.000420     -0.000330      0.000000
    195 O2    s       0.000025      0.000217      0.000672      0.000000
    196 O2    s       0.000167     -0.000109     -0.000333      0.000000
    197 O2    s       0.000157      0.000291      0.002069      0.000000
    198 O2    s       0.000386     -0.000206      0.000081      0.000000
    199 O3    s       0.000935      0.000177      0.000076      0.000000
    200 O2    s      -0.000692      0.000155     -0.000082      0.000000
    201 O3    s       0.000365     -0.000540     -0.001622      0.000000
    202 O2    s      -0.000014      0.000329      0.000286      0.000000
    203 O2    s       0.000422     -0.000279      0.000521      0.000000
    204 O2    s       0.000134      0.000441     -0.000478      0.000000
    205 O2    s       0.000753     -0.000060     -0.000589      0.000000
    206 O2    s       0.000070      0.000374      0.000141      0.000000
    207 O2    s      -0.000392      0.000221      0.000533      0.000000
    208 O2    s      -0.000269     -0.000050      0.000200      0.000000
    209 O2    s       0.000080      0.000196     -0.000476      0.000000
    210 O2    s       0.000585     -0.000519      0.001319      0.000000
    211 O2    s       0.000332      0.000330      0.000179      0.000000
    212 O2    s       0.000192      0.000437     -0.001763      0.000000
    213 O2    s       0.000199     -0.000236      0.000352      0.000000
    214 O2    s       0.000294     -0.000642      0.000212      0.000000
    215 O2    s       0.000119      0.000041     -0.000367      0.000000
    216 O2    s      -0.000016      0.000352     -0.000592      0.000000
    217 O2    s       0.000468      0.000619      0.000378      0.000000
    218 O2    s      -0.000169      0.000373     -0.000289      0.000000
    219 O2    s       0.000191     -0.000003     -0.001783      0.000000
    220 O2    s      -0.000059      0.000705      0.000199      0.000000
    221 O2    s      -0.000007     -0.000330      0.001145      0.000000
    222 O2    s       0.000218      0.000252     -0.000219      0.000000
    223 O2    s       0.000373      0.000716     -0.000819      0.000000
    224 O2    s       0.000415     -0.000413      0.001041      0.000000
    225 O2    s       0.000121     -0.000013      0.000170      0.000000
    226 O2    s      -0.000013      0.000437     -0.000666      0.000000
    227 O2    s       0.000318      0.000053      0.000058      0.000000
    228 O2    s       0.000739     -0.000382     -0.000802      0.000000
    229 O2    s      -0.000034     -0.000143      0.000686      0.000000
    230 O2    s       0.000301     -0.001363     -0.000502      0.000000
    231 O2    s      -0.000130     -0.000136      0.000991      0.000000
    232 O3    s       0.000208     -0.000237     -0.000206      0.000000
    233 O2    s       0.000118     -0.000137     -0.000743      0.000000
    234 O2    s       0.000208      0.000185      0.000309      0.000000
    235 O2    s       0.000080     -0.000220     -0.000386      0.000000
    236 O2    s      -0.000272      0.000245     -0.000094      0.000000
    237 O2    s       0.001118     -0.000223     -0.000501      0.000000
    238 O2    s      -0.000305     -0.000056     -0.001663      0.000000
    239 O3    s       0.002067      0.002219     -0.001824      0.000000
    240 O2    s      -0.000436      0.000658     -0.000230      0.000000
    241 O2    s      -0.000198     -0.000033     -0.001145      0.000000
    242 O3    s      -0.000421     -0.000021     -0.001672      0.000000
    243 O2    s       0.000218     -0.000096     -0.001151      0.000000
    244 O2    s       0.000202     -0.000152     -0.000391      0.000000
    245 O2    s      -0.000057     -0.000043      0.000064      0.000000
    246 O2    s       0.000299      0.000003      0.000777      0.000000
    247 O2    s       0.000683     -0.000119      0.000299      0.000000
    248 O2    s       0.000658      0.000164     -0.001132      0.000000
    249 O2    s       0.000140     -0.000263      0.000443      0.000000
    250 O2    s       0.000024      0.000193      0.000834      0.000000
    251 O2    s       0.000196      0.000436      0.000480      0.000000
    252 O2    s       0.000305      0.000019      0.000136      0.000000
    253 O3    s       0.000123      0.000966     -0.000002      0.000000
    254 O2    s       0.000119     -0.000083      0.001466      0.000000
    255 O2    s      -0.000004      0.000064     -0.000002      0.000000
    256 O2    s      -0.000138     -0.000030      0.001024      0.000000
    257 O2    s       0.000639      0.000461      0.001062      0.000000
    258 O2    s       0.000378     -0.000190      0.000679      0.000000
    259 O2    s       0.000013      0.000513      0.000354      0.000000
    260 O2    s      -0.000201     -0.000325     -0.000388      0.000000
    261 O2    s      -0.000139      0.000300     -0.000592      0.000000
    262 O3    s      -0.000795     -0.000072     -0.001011      0.000000
    263 O2    s       0.000126      0.000270     -0.001484      0.000000
    264 O2    s       0.000305     -0.000884      0.000349      0.000000
    265 O3    s      -0.000577      0.000172     -0.001555      0.000000
    266 O2    s       0.000132      0.000637      0.000383      0.000000
    267 O2    s      -0.000214     -0.000565     -0.000570      0.000000
    268 O2    s      -0.000406     -0.000013      0.000411      0.000000
    269 O2    s       0.000359     -0.000477      0.000890      0.000000
    270 O2    s       0.000073      0.000043      0.000058      0.000000
    271 O2    s       0.000134      0.000305     -0.000167      0.000000
    272 O2    s       0.000653     -0.000236     -0.000393      0.000000
    273 O2    s      -0.000197     -0.000002     -0.000903      0.000000
    274 O2    s      -0.000239     -0.000319     -0.001144      0.000000
    275 O2    s      -0.000014      0.000068     -0.000385      0.000000
    276 O2    s      -0.000400      0.000624      0.001961      0.000000
    277 O2    s       0.000593      0.000013     -0.000363      0.000000
    278 O2    s      -0.000260      0.000338     -0.000532      0.000000
    279 O2    s       0.000557     -0.000646     -0.001119      0.000000
    280 O2    s      -0.000034     -0.000032     -0.001474      0.000000
    281 O2    s      -0.000428      0.000162      0.000186      0.000000
    282 O2    s       0.000281      0.000483     -0.000724      0.000000
    283 O2    s       0.000561      0.000441      0.001278      0.000000
    284 O2    s       0.000618      0.000885      0.003483      0.000000
    285 O3    s      -0.000131     -0.000863      0.000898      0.000000
    286 O2    s       0.000731     -0.000724      0.000883      0.000000
    287 O2    s      -0.000528      0.000672      0.000103      0.000000
    288 O2    s       0.000129     -0.000101      0.000499      0.000000
    289 O2    s       0.000416     -0.000376     -0.001066      0.000000
    290 O3    s       0.000486      0.000082     -0.002394      0.000000
    291 O2    s       0.000062      0.000025     -0.002050      0.000000
    292 O2    s       0.000300      0.000111     -0.000930      0.000000
    293 O3    s      -0.000023      0.000328     -0.002176      0.000000
    294 O2    s      -0.000059     -0.000007      0.000172      0.000000
    295 O2    s       0.000035      0.000187      0.001709      0.000000
    296 O2    s       0.000420     -0.000317      0.000794      0.000000
    297 O2    s      -0.000112      0.000012     -0.000567      0.000000
    298 O2    s       0.000425      0.000303      0.000977      0.000000
    299 O2    s       0.000299     -0.000272      0.001183      0.000000
    300 O2    s      -0.000014      0.000025      0.001171      0.000000
    301 O3    s       0.000084     -0.000461     -0.000831      0.000000
    302 O2    s       0.000537      0.000086      0.000577      0.000000
    303 O2    s      -0.000237      0.000375     -0.000677      0.000000
    304 O2    s       0.000098     -0.000532     -0.001083      0.000000
    305 O2    s       0.000556      0.000241      0.000761      0.000000
    306 O2    s       0.001006     -0.000181      0.000296      0.000000
    307 F     s       0.000152      0.000215      0.000787      0.000000
    308 F     s      -0.000239      0.000152     -0.000191      0.000000
    309 F     s       0.000390     -0.000126     -0.000318      0.000000
    310 F     s      -0.000036     -0.000175      0.000924      0.000000
    311 F     s      -0.000715     -0.000489     -0.002030      0.000000
    312 F     s       0.000141      0.000119     -0.000189      0.000000
--------------------------------------------------------------------------------
  Maximum abs         0.003929      0.002219      0.008508      0.000000
--------------------------------------------------------------------------------


  Time to end of optimisation =     174.0913 seconds


  Peak dynamic memory used =      19.13 MB 


  Timing analysis for GULP :

--------------------------------------------------------------------------------
  Task / Subroutine                                          Time (Seconds)
--------------------------------------------------------------------------------
  Calculation of reciprocal space energy and derivatives          4.2054
  Calculation of real space energy and derivatives              152.2022
  Calculation of three-body energy and derivatives               15.5871
  Calculation of matrix inversion                                 1.8648
  Global summation overhead                                       0.0003
--------------------------------------------------------------------------------
  Total CPU time                                                174.0914
--------------------------------------------------------------------------------


  Dump file written as out.res                                                 
  CIF file written as out.cif                                                 


  Job Finished at 11:47.30 29th October    2016                               

