********************************************************************************
*                       GENERAL UTILITY LATTICE PROGRAM                        *
*                                 Julian Gale                                  *
*                      Nanochemistry Research Institute                        *
*                           Department of Chemistry                            *
*                    Curtin University, Western Australia                      *
********************************************************************************
* Version = 4.2.0 * Last modified =  20th January 2014                         *
********************************************************************************
*  optimise     - perform optimisation run                                     *
*  conp         - constant pressure calculation                                *
*  qok          - running with non charge neutral cell is OK                   *
********************************************************************************

  Job Started  at 19:56.58 29th October    2016                               

  Number of CPUs =     1


  Total number of configurations input =   1

********************************************************************************
*  Input for Configuration =   1                                               *
********************************************************************************

  Formula = Ge3Si57O120F6                                               

  Number of irreducible atoms/shells =     312


  Total number atoms/shells =     312

  Dimensionality = 3               :  Bulk   


  Charge on solid   =  -6.000000 =>neutralising background added


  Cartesian lattice vectors (Angstroms) :

       11.963788    0.000000    0.000000
       -6.054933   10.368686    0.000000
       -0.190437   -0.028502   29.452663

  Cell parameters (Angstroms/Degrees):

  a =      11.9638    alpha =  89.8611
  b =      12.0072    beta  =  90.3705
  c =      29.4533    gamma = 120.2834

  Initial cell volume =        3653.566395 Angs**3

  Temperature of configuration =  0.000     K 

  Pressure of configuration =         0.000 GPa 

  Fractional coordinates of asymmetric unit :

--------------------------------------------------------------------------------
   No.  Atomic       x           y          z         Charge      Occupancy
        Label      (Frac)      (Frac)     (Frac)        (e)         (Frac)  
--------------------------------------------------------------------------------
      1 Ge    c    0.699600    0.375700    0.033890     4.00000    1.000000    
      2 Si    c    0.618500 *  0.321066 *  0.362906 *   4.00000    1.000000    
      3 Si    c    0.674916 *  0.302523 *  0.699703 *   4.00000    1.000000    
      4 Si    c    0.306804 *  0.623993 *  0.529162 *   4.00000    1.000000    
      5 Si    c    0.378049 *  0.675493 *  0.863259 *   4.00000    1.000000    
      6 Si    c    0.319536 *  0.702467 *  0.197488 *   4.00000    1.000000    
      7 Si    c    0.376301 *  0.699618 *  0.298096 *   4.00000    1.000000    
      8 Si    c    0.320363 *  0.621817 *  0.963461 *   4.00000    1.000000    
      9 Si    c    0.301118 *  0.682508 *  0.631107 *   4.00000    1.000000    
     10 Si    c    0.621103 *  0.297859 *  0.800667 *   4.00000    1.000000    
     11 Si    c    0.671893 *  0.370338 *  0.463538 *   4.00000    1.000000    
     12 Si    c    0.687006 *  0.318004 *  0.132651 *   4.00000    1.000000    
     13 Si    c    0.527869 *  0.416958 *  0.966889 *   4.00000    1.000000    
     14 Si    c    0.582325 *  0.108368 *  0.300682 *   4.00000    1.000000    
     15 Ge    c    0.884100 *  0.470136 *  0.630825 *   4.00000    1.000000    
     16 Si    c    0.475051 *  0.579222 *  0.464849 *   4.00000    1.000000    
     17 Si    c    0.416974 *  0.886434 *  0.798552 *   4.00000    1.000000    
     18 Si    c    0.108526 *  0.532492 *  0.130073 *   4.00000    1.000000    
     19 Si    c    0.417619 *  0.529216 *  0.363412 *   4.00000    1.000000    
     20 Si    c    0.105133 *  0.582470 *  0.026652 *   4.00000    1.000000    
     21 Si    c    0.470668 *  0.893135 *  0.696961 *   4.00000    1.000000    
     22 Si    c    0.581970 *  0.469904 *  0.864930 *   4.00000    1.000000    
     23 Si    c    0.879788 *  0.408265 *  0.526937 *   4.00000    1.000000    
     24 Si    c    0.527383 *  0.109637 *  0.199682 *   4.00000    1.000000    
     25 Si    c    0.301126 *  0.398578 *  0.848985 *   4.00000    1.000000    
     26 Si    c    0.599278 *  0.903708 *  0.183297 *   4.00000    1.000000    
     27 Ge    c    0.093794 *  0.684228 *  0.520605 *   4.00000    1.000000    
     28 Si    c    0.698421 *  0.599478 *  0.349340 *   4.00000    1.000000    
     29 Si    c    0.396658 *  0.099350 *  0.684041 *   4.00000    1.000000    
     30 Si    c    0.890815 *  0.295324 *  0.011875 *   4.00000    1.000000    
     31 Si    c    0.395276 *  0.297030 *  0.478696 *   4.00000    1.000000    
     32 Si    c    0.893424 *  0.602712 *  0.143145 *   4.00000    1.000000    
     33 Si    c    0.698976 *  0.097156 *  0.813488 *   4.00000    1.000000    
     34 Si    c    0.598766 *  0.698530 *  0.979606 *   4.00000    1.000000    
     35 Si    c    0.100367 *  0.399396 *  0.647288 *   4.00000    1.000000    
     36 Si    c    0.299526 *  0.900199 *  0.314367 *   4.00000    1.000000    
     37 Si    c    0.249183 *  0.341828 *  0.949309 *   4.00000    1.000000    
     38 Si    c    0.659517 *  0.908770 *  0.283951 *   4.00000    1.000000    
     39 Si    c    0.086954 *  0.757156 *  0.617045 *   4.00000    1.000000    
     40 Si    c    0.753516 *  0.654562 *  0.450252 *   4.00000    1.000000    
     41 Si    c    0.338820 *  0.087260 *  0.784717 *   4.00000    1.000000    
     42 Si    c    0.902831 *  0.250157 *  0.114750 *   4.00000    1.000000    
     43 Si    c    0.337777 *  0.249726 *  0.377770 *   4.00000    1.000000    
     44 Si    c    0.899812 *  0.660270 *  0.040449 *   4.00000    1.000000    
     45 Si    c    0.750179 *  0.096279 *  0.712563 *   4.00000    1.000000    
     46 Si    c    0.658805 *  0.748140 *  0.878933 *   4.00000    1.000000    
     47 Si    c    0.089258 *  0.338206 *  0.544802 *   4.00000    1.000000    
     48 Si    c    0.247455 *  0.909491 *  0.213565 *   4.00000    1.000000    
     49 Si    c    0.971387 *  0.122150 *  0.964176 *   4.00000    1.000000    
     50 Si    c    0.877659 *  0.846816 *  0.298382 *   4.00000    1.000000    
     51 Si    c    0.151184 *  0.034247 *  0.632717 *   4.00000    1.000000    
     52 Si    c    0.035242 *  0.873448 *  0.466421 *   4.00000    1.000000    
     53 Si    c    0.121668 *  0.149244 *  0.798716 *   4.00000    1.000000    
     54 Si    c    0.846518 *  0.973002 *  0.131817 *   4.00000    1.000000    
     55 Si    c    0.120440 *  0.968543 *  0.364866 *   4.00000    1.000000    
     56 Si    c    0.847732 *  0.882296 *  0.030494 *   4.00000    1.000000    
     57 Si    c    0.029807 *  0.152789 *  0.697724 *   4.00000    1.000000    
     58 Si    c    0.878387 *  0.026730 *  0.863618 *   4.00000    1.000000    
     59 Si    c    0.149028 *  0.118298 *  0.530375 *   4.00000    1.000000    
     60 Si    c    0.968300 *  0.850766 *  0.196598 *   4.00000    1.000000    
     61 O2    c    0.927059 *  0.005824 *  0.999099 *   0.87073    1.000000    
     62 O2    c    0.000028 *  0.926219 *  0.330948 *   0.87073    1.000000    
     63 O2    c    0.066686 *  0.073082 *  0.663778 *   0.87073    1.000000    
     64 O2    c    0.068077 *  0.996585 *  0.498215 *   0.87073    1.000000    
     65 O2    c    0.999039 *  0.068857 *  0.830652 *   0.87073    1.000000    
     66 O2    c    0.929571 *  0.935397 *  0.164980 *   0.87073    1.000000    
     67 O2    c    0.339909 *  0.577369 *  0.330866 *   0.87073    1.000000    
     68 O2    c    0.423566 *  0.768544 *  0.663983 *   0.87073    1.000000    
     69 O2    c    0.232843 *  0.658482 *  0.995437 *   0.87073    1.000000    
     70 O2    c    0.659218 *  0.420022 *  0.833496 *   0.87073    1.000000    
     71 O2    c    0.577153 *  0.239254 *  0.170178 *   0.87073    1.000000    
     72 O2    c    0.752282 *  0.324047 *  0.495190 *   0.87073    1.000000    
     73 O3    c    0.566119 *  0.335923 *  0.998908 *   1.33043    1.000000    
     74 O3    c    0.755007 *  0.423734 *  0.667410 *   1.33043    1.000000    
     75 O2    c    0.659189 *  0.235895 *  0.331933 *   0.87073    1.000000    
     76 O2    c    0.432191 *  0.656290 *  0.499219 *   0.87073    1.000000    
     77 O2    c    0.232943 *  0.581900 *  0.163225 *   0.87073    1.000000    
     78 O2    c    0.339851 *  0.759809 *  0.830130 *   0.87073    1.000000    
     79 O2    c    0.125353 *  0.214092 *  0.969863 *   0.87073    1.000000    
     80 O2    c    0.786517 *  0.909515 *  0.303795 *   0.87073    1.000000    
     81 O2    c    0.093659 *  0.882572 *  0.640813 *   0.87073    1.000000    
     82 O2    c    0.879387 *  0.777454 *  0.471601 *   0.87073    1.000000    
     83 O2    c    0.212347 *  0.086147 *  0.804853 *   0.87073    1.000000    
     84 O2    c    0.906893 *  0.127355 *  0.135832 *   0.87073    1.000000    
     85 O2    c    0.210992 *  0.122689 *  0.357873 *   0.87073    1.000000    
     86 O2    c    0.916625 *  0.797845 *  0.024415 *   0.87073    1.000000    
     87 O2    c    0.876323 *  0.096903 *  0.692171 *   0.87073    1.000000    
     88 O2    c    0.786009 *  0.872847 *  0.858304 *   0.87073    1.000000    
     89 O2    c    0.089026 *  0.212490 *  0.525439 *   0.87073    1.000000    
     90 O2    c    0.122772 *  0.911964 *  0.192775 *   0.87073    1.000000    
     91 O2    c    0.927195 *  0.858415 *  0.247360 *   0.87073    1.000000    
     92 O2    c    0.137903 *  0.070963 *  0.581707 *   0.87073    1.000000    
     93 O2    c    0.933018 *  0.063810 *  0.914135 *   0.87073    1.000000    
     94 O2    c    0.068720 *  0.135149 *  0.747867 *   0.87073    1.000000    
     95 O2    c    0.858338 *  0.931518 *  0.081630 *   0.87073    1.000000    
     96 O2    c    0.068322 *  0.930345 *  0.415302 *   0.87073    1.000000    
     97 O2    c    0.902225 *  0.204329 *  0.973973 *   0.87073    1.000000    
     98 O2    c    0.795576 *  0.695585 *  0.310614 *   0.87073    1.000000    
     99 O2    c    0.303055 *  0.107684 *  0.645677 *   0.87073    1.000000    
    100 O3    c    0.106259 *  0.798440 *  0.478305 *   1.33043    1.000000    
    101 O2    c    0.203850 *  0.301055 *  0.810159 *   0.87073    1.000000    
    102 O2    c    0.695075 *  0.902192 *  0.144720 *   0.87073    1.000000    
    103 O2    c    0.203033 *  0.899288 *  0.352920 *   0.87073    1.000000    
    104 O2    c    0.695505 *  0.797761 *  0.018144 *   0.87073    1.000000    
    105 O2    c    0.106879 *  0.305019 *  0.685322 *   0.87073    1.000000    
    106 O2    c    0.797218 *  0.097252 *  0.851776 *   0.87073    1.000000    
    107 O2    c    0.300455 *  0.200447 *  0.517621 *   0.87073    1.000000    
    108 O2    c    0.897452 *  0.701029 *  0.181651 *   0.87073    1.000000    
    109 O2    c    0.319038 *  0.642688 *  0.247375 *   0.87073    1.000000    
    110 O2    c    0.354194 *  0.680973 *  0.580660 *   0.87073    1.000000    
    111 O2    c    0.319021 *  0.677320 *  0.912950 *   0.87073    1.000000    
    112 O2    c    0.676924 *  0.356520 *  0.750594 *   0.87073    1.000000    
    113 O3    c    0.614847 *  0.304255 *  0.085523 *   1.33043    1.000000    
    114 O2    c    0.673764 *  0.317929 *  0.413005 *   0.87073    1.000000    
    115 O2    c    0.370441 *  0.331568 *  0.967320 *   0.87073    1.000000    
    116 O2    c    0.670157 *  0.040277 *  0.303170 *   0.87073    1.000000    
    117 O3    c    0.953747 *  0.636199 *  0.634037 *   1.33043    1.000000    
    118 O2    c    0.631217 *  0.665940 *  0.467692 *   0.87073    1.000000    
    119 O2    c    0.329409 *  0.954649 *  0.802017 *   0.87073    1.000000    
    120 O2    c    0.035594 *  0.376536 *  0.131453 *   0.87073    1.000000    
    121 O2    c    0.328813 *  0.372888 *  0.359718 *   0.87073    1.000000    
    122 O2    c    0.033620 *  0.666233 *  0.024613 *   0.87073    1.000000    
    123 O2    c    0.627460 *  0.964053 *  0.693439 *   0.87073    1.000000    
    124 O2    c    0.668446 *  0.626006 *  0.860723 *   0.87073    1.000000    
    125 O2    c    0.956884 *  0.328259 *  0.526672 *   0.87073    1.000000    
    126 O2    c    0.370867 *  0.040986 *  0.195361 *   0.87073    1.000000    
    127 O3    c    0.756197 *  0.285668 *  0.002500 *   1.33043    1.000000    
    128 O2    c    0.694281 *  0.464262 *  0.340530 *   0.87073    1.000000    
    129 O2    c    0.531161 *  0.232715 *  0.677089 *   0.87073    1.000000    
    130 O3    c    0.241884 *  0.696444 *  0.505681 *   1.33043    1.000000    
    131 O2    c    0.303261 *  0.532945 *  0.840020 *   0.87073    1.000000    
    132 O2    c    0.462837 *  0.770911 *  0.174995 *   0.87073    1.000000    
    133 O2    c    0.300137 *  0.766215 *  0.320304 *   0.87073    1.000000    
    134 O2    c    0.464161 *  0.699026 *  0.986110 *   0.87073    1.000000    
    135 O2    c    0.232569 *  0.537097 *  0.651204 *   0.87073    1.000000    
    136 O2    c    0.696955 *  0.229308 *  0.822100 *   0.87073    1.000000    
    137 O2    c    0.528581 *  0.295925 *  0.485804 *   0.87073    1.000000    
    138 O2    c    0.761530 *  0.467262 *  0.151127 *   0.87073    1.000000    
    139 O3    c    0.773078 *  0.546722 *  0.019134 *   1.33043    1.000000    
    140 O2    c    0.462050 *  0.247938 *  0.357538 *   0.87073    1.000000    
    141 O2    c    0.753242 *  0.224170 *  0.693376 *   0.87073    1.000000    
    142 O2    c    0.214883 *  0.467380 *  0.527480 *   0.87073    1.000000    
    143 O2    c    0.534799 *  0.751676 *  0.858828 *   0.87073    1.000000    
    144 O2    c    0.243031 *  0.781836 *  0.193706 *   0.87073    1.000000    
    145 O2    c    0.532846 *  0.782199 *  0.302712 *   0.87073    1.000000    
    146 O2    c    0.245993 *  0.466067 *  0.968796 *   0.87073    1.000000    
    147 O2    c    0.210105 *  0.745480 *  0.634873 *   0.87073    1.000000    
    148 O2    c    0.464797 *  0.212828 *  0.804814 *   0.87073    1.000000    
    149 O2    c    0.747185 *  0.525859 *  0.469738 *   0.87073    1.000000    
    150 O2    c    0.780053 *  0.254437 *  0.134328 *   0.87073    1.000000    
    151 O2    c    0.227222 *  0.324627 *  0.894906 *   0.87073    1.000000    
    152 O2    c    0.675287 *  0.907832 *  0.229489 *   0.87073    1.000000    
    153 O3    c    0.090627 *  0.784587 *  0.563990 *   1.33043    1.000000    
    154 O2    c    0.772186 *  0.671526 *  0.395752 *   0.87073    1.000000    
    155 O2    c    0.321189 *  0.091204 *  0.730448 *   0.87073    1.000000    
    156 O2    c    0.898390 *  0.233168 *  0.060483 *   0.87073    1.000000    
    157 O2    c    0.319868 *  0.228908 *  0.432058 *   0.87073    1.000000    
    158 O2    c    0.895310 *  0.669704 *  0.095765 *   0.87073    1.000000    
    159 O2    c    0.770004 *  0.096560 *  0.766886 *   0.87073    1.000000    
    160 O2    c    0.675571 *  0.767569 *  0.933341 *   0.87073    1.000000    
    161 O2    c    0.089042 *  0.329296 *  0.599388 *   0.87073    1.000000    
    162 O2    c    0.229707 *  0.906926 *  0.267908 *   0.87073    1.000000    
    163 O2    c    0.580413 *  0.558737 *  0.989361 *   0.87073    1.000000    
    164 O2    c    0.441168 *  0.023065 *  0.323697 *   0.87073    1.000000    
    165 O3    c    0.979976 *  0.417028 *  0.655950 *   1.33043    1.000000    
    166 O2    c    0.412255 *  0.437229 *  0.487678 *   0.87073    1.000000    
    167 O2    c    0.559230 *  0.970914 *  0.821457 *   0.87073    1.000000    
    168 O2    c    0.016670 *  0.583506 *  0.149411 *   0.87073    1.000000    
    169 O2    c    0.559814 *  0.588717 *  0.340826 *   0.87073    1.000000    
    170 O2    c    0.014879 *  0.439957 *  0.005957 *   0.87073    1.000000    
    171 O2    c    0.409012 *  0.973502 *  0.673989 *   0.87073    1.000000    
    172 O2    c    0.440190 *  0.410552 *  0.841288 *   0.87073    1.000000    
    173 O3    c    0.954525 *  0.544658 *  0.501504 *   1.33043    1.000000    
    174 O2    c    0.586891 *  0.030005 *  0.174887 *   0.87073    1.000000    
    175 O2    c    0.581399 *  0.161719 *  0.250269 *   0.87073    1.000000    
    176 O3    c    0.826017 *  0.408047 *  0.577432 *   1.33043    1.000000    
    177 O2    c    0.583137 *  0.420934 *  0.915990 *   0.87073    1.000000    
    178 O2    c    0.417125 *  0.835952 *  0.747285 *   0.87073    1.000000    
    179 O2    c    0.152801 *  0.580575 *  0.078489 *   0.87073    1.000000    
    180 O2    c    0.418419 *  0.581471 *  0.414529 *   0.87073    1.000000    
    181 F     c    0.449903 *  0.902173 *  0.247429 *   0.56000    1.000000    
    182 F     c    0.083452 *  0.569485 *  0.571944 *   0.56000    1.000000    
    183 F     c    0.447652 *  0.550679 *  0.913067 *   0.56000    1.000000    
    184 F     c    0.548577 *  0.096863 *  0.747340 *   0.56000    1.000000    
    185 F     c    0.853072 *  0.435376 *  0.070181 *   0.56000    1.000000    
    186 F     c    0.545686 *  0.448847 *  0.413272 *   0.56000    1.000000    
    187 O2    s    0.923026 *  0.004984 *  0.998706 *  -2.87073    1.000000    
    188 O2    s    0.999439 *  0.921869 *  0.330999 *  -2.87073    1.000000    
    189 O2    s    0.071889 *  0.077814 *  0.664172 *  -2.87073    1.000000    
    190 O2    s    0.073892 *  0.997698 *  0.498583 *  -2.87073    1.000000    
    191 O2    s    0.999347 *  0.073203 *  0.830739 *  -2.87073    1.000000    
    192 O2    s    0.924729 *  0.930219 *  0.164821 *  -2.87073    1.000000    
    193 O2    s    0.351550 *  0.585086 *  0.330774 *  -2.87073    1.000000    
    194 O2    s    0.415463 *  0.772126 *  0.663854 *  -2.87073    1.000000    
    195 O2    s    0.228298 *  0.646852 *  0.995471 *  -2.87073    1.000000    
    196 O2    s    0.647373 *  0.412384 *  0.833274 *  -2.87073    1.000000    
    197 O2    s    0.583466 *  0.233774 *  0.169348 *  -2.87073    1.000000    
    198 O2    s    0.756798 *  0.337170 *  0.495125 *  -2.87073    1.000000    
    199 O3    s    0.572190 *  0.347509 *  0.998186 *  -3.33043    1.000000    
    200 O3    s    0.757062 *  0.415210 *  0.667787 *  -3.33043    1.000000    
    201 O2    s    0.646914 *  0.231301 *  0.331863 *  -2.87073    1.000000    
    202 O2    s    0.423346 *  0.644952 *  0.498869 *  -2.87073    1.000000    
    203 O2    s    0.228473 *  0.588694 *  0.163163 *  -2.87073    1.000000    
    204 O2    s    0.351796 *  0.764438 *  0.830213 *  -2.87073    1.000000    
    205 O2    s    0.121481 *  0.217377 *  0.967137 *  -2.87073    1.000000    
    206 O2    s    0.782883 *  0.902789 *  0.301175 *  -2.87073    1.000000    
    207 O2    s    0.099234 *  0.886231 *  0.637573 *  -2.87073    1.000000    
    208 O2    s    0.881438 *  0.773855 *  0.468820 *  -2.87073    1.000000    
    209 O2    s    0.215836 *  0.092939 *  0.802145 *  -2.87073    1.000000    
    210 O2    s    0.900137 *  0.123926 *  0.133254 *  -2.87073    1.000000    
    211 O2    s    0.214659 *  0.119731 *  0.360637 *  -2.87073    1.000000    
    212 O2    s    0.907482 *  0.793073 *  0.026664 *  -2.87073    1.000000    
    213 O2    s    0.879730 *  0.102852 *  0.694835 *  -2.87073    1.000000    
    214 O2    s    0.782771 *  0.876453 *  0.860966 *  -2.87073    1.000000    
    215 O2    s    0.095278 *  0.216136 *  0.527990 *  -2.87073    1.000000    
    216 O2    s    0.119121 *  0.905139 *  0.195306 *  -2.87073    1.000000    
    217 O2    s    0.926300 *  0.856239 *  0.247304 *  -2.87073    1.000000    
    218 O2    s    0.140633 *  0.072134 *  0.581719 *  -2.87073    1.000000    
    219 O2    s    0.931128 *  0.066171 *  0.914029 *  -2.87073    1.000000    
    220 O2    s    0.070186 *  0.138750 *  0.747822 *  -2.87073    1.000000    
    221 O2    s    0.855794 *  0.930810 *  0.081691 *  -2.87073    1.000000    
    222 O2    s    0.070839 *  0.928777 *  0.414851 *  -2.87073    1.000000    
    223 O2    s    0.908652 *  0.204808 *  0.976857 *  -2.87073    1.000000    
    224 O2    s    0.794432 *  0.701947 *  0.313253 *  -2.87073    1.000000    
    225 O2    s    0.296478 *  0.099027 *  0.648227 *  -2.87073    1.000000    
    226 O3    s    0.097459 *  0.799465 *  0.479686 *  -3.33043    1.000000    
    227 O2    s    0.204916 *  0.294693 *  0.812866 *  -2.87073    1.000000    
    228 O2    s    0.701358 *  0.909852 *  0.147288 *  -2.87073    1.000000    
    229 O2    s    0.204462 *  0.906541 *  0.350153 *  -2.87073    1.000000    
    230 O2    s    0.701736 *  0.796618 *  0.015534 *  -2.87073    1.000000    
    231 O2    s    0.098252 *  0.299048 *  0.682667 *  -2.87073    1.000000    
    232 O2    s    0.795720 *  0.089772 *  0.849093 *  -2.87073    1.000000    
    233 O2    s    0.294118 *  0.201675 *  0.514961 *  -2.87073    1.000000    
    234 O2    s    0.904519 *  0.706716 *  0.179248 *  -2.87073    1.000000    
    235 O2    s    0.324753 *  0.654380 *  0.247340 *  -2.87073    1.000000    
    236 O2    s    0.344050 *  0.675547 *  0.580830 *  -2.87073    1.000000    
    237 O2    s    0.325107 *  0.671459 *  0.913070 *  -2.87073    1.000000    
    238 O2    s    0.670997 *  0.344973 *  0.750538 *  -2.87073    1.000000    
    239 O3    s    0.627977 *  0.310527 *  0.086753 *  -3.33043    1.000000    
    240 O2    s    0.667726 *  0.323790 *  0.413036 *  -2.87073    1.000000    
    241 O2    s    0.373044 *  0.341461 *  0.965255 *  -2.87073    1.000000    
    242 O2    s    0.659990 *  0.033544 *  0.300898 *  -2.87073    1.000000    
    243 O3    s    0.961319 *  0.634915 *  0.632071 *  -3.33043    1.000000    
    244 O2    s    0.627436 *  0.655581 *  0.465553 *  -2.87073    1.000000    
    245 O2    s    0.339389 *  0.961604 *  0.799829 *  -2.87073    1.000000    
    246 O2    s    0.029439 *  0.379706 *  0.129576 *  -2.87073    1.000000    
    247 O2    s    0.338808 *  0.376030 *  0.361982 *  -2.87073    1.000000    
    248 O2    s    0.027861 *  0.656772 *  0.026404 *  -2.87073    1.000000    
    249 O2    s    0.624111 *  0.970557 *  0.695799 *  -2.87073    1.000000    
    250 O2    s    0.658521 *  0.622740 *  0.863066 *  -2.87073    1.000000    
    251 O2    s    0.963283 *  0.337391 *  0.528642 *  -2.87073    1.000000    
    252 O2    s    0.373878 *  0.034042 *  0.197749 *  -2.87073    1.000000    
    253 O3    s    0.766686 *  0.292668 *  0.005656 *  -3.33043    1.000000    
    254 O2    s    0.686877 *  0.463668 *  0.343782 *  -2.87073    1.000000    
    255 O2    s    0.531523 *  0.225524 *  0.680218 *  -2.87073    1.000000    
    256 O3    s    0.237676 *  0.687953 *  0.509265 *  -3.33043    1.000000    
    257 O2    s    0.310679 *  0.533430 *  0.843364 *  -2.87073    1.000000    
    258 O2    s    0.462233 *  0.777639 *  0.178202 *  -2.87073    1.000000    
    259 O2    s    0.307877 *  0.773354 *  0.317358 *  -2.87073    1.000000    
    260 O2    s    0.463226 *  0.691057 *  0.983081 *  -2.87073    1.000000    
    261 O2    s    0.225725 *  0.537579 *  0.648691 *  -2.87073    1.000000    
    262 O2    s    0.689368 *  0.222472 *  0.818956 *  -2.87073    1.000000    
    263 O2    s    0.529124 *  0.303756 *  0.482700 *  -2.87073    1.000000    
    264 O2    s    0.768271 *  0.467074 *  0.148419 *  -2.87073    1.000000    
    265 O3    s    0.782554 *  0.548627 *  0.022331 *  -3.33043    1.000000    
    266 O2    s    0.465032 *  0.255837 *  0.360228 *  -2.87073    1.000000    
    267 O2    s    0.745185 *  0.218348 *  0.695974 *  -2.87073    1.000000    
    268 O2    s    0.210304 *  0.469081 *  0.529539 *  -2.87073    1.000000    
    269 O2    s    0.531859 *  0.743266 *  0.861436 *  -2.87073    1.000000    
    270 O2    s    0.251516 *  0.787183 *  0.196196 *  -2.87073    1.000000    
    271 O2    s    0.530216 *  0.787422 *  0.300199 *  -2.87073    1.000000    
    272 O2    s    0.254130 *  0.469117 *  0.966199 *  -2.87073    1.000000    
    273 O2    s    0.207281 *  0.739760 *  0.632651 *  -2.87073    1.000000    
    274 O2    s    0.467512 *  0.207997 *  0.802217 *  -2.87073    1.000000    
    275 O2    s    0.739789 *  0.523443 *  0.467021 *  -2.87073    1.000000    
    276 O2    s    0.784335 *  0.260414 *  0.131995 *  -2.87073    1.000000    
    277 O2    s    0.237245 *  0.334200 *  0.895783 *  -2.87073    1.000000    
    278 O2    s    0.665614 *  0.907488 *  0.230387 *  -2.87073    1.000000    
    279 O3    s    0.090424 *  0.774580 *  0.566305 *  -3.33043    1.000000    
    280 O2    s    0.762444 *  0.662134 *  0.396555 *  -2.87073    1.000000    
    281 O2    s    0.330974 *  0.091634 *  0.731346 *  -2.87073    1.000000    
    282 O2    s    0.898068 *  0.241126 *  0.061530 *  -2.87073    1.000000    
    283 O2    s    0.329707 *  0.238302 *  0.431244 *  -2.87073    1.000000    
    284 O2    s    0.895449 *  0.661320 *  0.095497 *  -2.87073    1.000000    
    285 O2    s    0.760503 *  0.096604 *  0.765975 *  -2.87073    1.000000    
    286 O2    s    0.665825 *  0.758361 *  0.932383 *  -2.87073    1.000000    
    287 O2    s    0.090268 *  0.337654 *  0.598619 *  -2.87073    1.000000    
    288 O2    s    0.238841 *  0.906481 *  0.266937 *  -2.87073    1.000000    
    289 O2    s    0.576792 *  0.559648 *  0.985986 *  -2.87073    1.000000    
    290 O2    s    0.440696 *  0.018570 *  0.320278 *  -2.87073    1.000000    
    291 O3    s    0.985185 *  0.419579 *  0.652997 *  -3.33043    1.000000    
    292 O2    s    0.417089 *  0.436938 *  0.484318 *  -2.87073    1.000000    
    293 O2    s    0.559436 *  0.975901 *  0.818176 *  -2.87073    1.000000    
    294 O2    s    0.013231 *  0.579960 *  0.146660 *  -2.87073    1.000000    
    295 O2    s    0.559773 *  0.583470 *  0.344106 *  -2.87073    1.000000    
    296 O2    s    0.011700 *  0.440499 *  0.008801 *  -2.87073    1.000000    
    297 O2    s    0.414236 *  0.978625 *  0.677421 *  -2.87073    1.000000    
    298 O2    s    0.439983 *  0.415588 *  0.844566 *  -2.87073    1.000000    
    299 O3    s    0.957929 *  0.541771 *  0.505494 *  -3.33043    1.000000    
    300 O2    s    0.581938 *  0.024496 *  0.178318 *  -2.87073    1.000000    
    301 O2    s    0.575663 *  0.150368 *  0.250231 *  -2.87073    1.000000    
    302 O3    s    0.835820 *  0.413205 *  0.577093 *  -3.33043    1.000000    
    303 O2    s    0.577472 *  0.425815 *  0.915674 *  -2.87073    1.000000    
    304 O2    s    0.422690 *  0.847110 *  0.747323 *  -2.87073    1.000000    
    305 O2    s    0.143313 *  0.575695 *  0.078671 *  -2.87073    1.000000    
    306 O2    s    0.424067 *  0.575878 *  0.414433 *  -2.87073    1.000000    
    307 F     s    0.449732 *  0.901851 *  0.247266 *  -1.56000    1.000000    
    308 F     s    0.082789 *  0.574392 *  0.569824 *  -1.56000    1.000000    
    309 F     s    0.447114 *  0.551152 *  0.912906 *  -1.56000    1.000000    
    310 F     s    0.548851 *  0.097133 *  0.747180 *  -1.56000    1.000000    
    311 F     s    0.843486 *  0.431620 *  0.068072 *  -1.56000    1.000000    
    312 F     s    0.545663 *  0.448637 *  0.413221 *  -1.56000    1.000000    
--------------------------------------------------------------------------------



********************************************************************************
*  General input information                                                   *
********************************************************************************

  Species output for all configurations : 

--------------------------------------------------------------------------------
  Species    Type    Atomic    Atomic    Charge       Radii (Angs)     Library
                     Number     Mass       (e)     Cova   Ionic  VDW   Symbol
--------------------------------------------------------------------------------
    Si       Core       14      28.09   4.000000   1.200  0.000  2.100          
    O1       Core        8      16.00   1.733957   0.730  0.000  1.360          
    O1       Shell       8       0.00  -3.733957   0.730  0.000  1.360          
    O2       Core        8      16.00   0.870733   0.730  0.000  1.360          
    O2       Shell       8       0.00  -2.870733   0.730  0.000  1.360          
    O3       Core        8      16.00   1.330431   0.730  0.000  1.360          
    O3       Shell       8       0.00  -3.330431   0.730  0.000  1.360          
    F        Core        9      19.00   0.560000   0.710  0.000  1.300          
    F        Shell       9       0.00  -1.560000   0.710  0.000  1.300          
    Ge       Core       32      72.61   4.000000   1.170  0.000  1.750          
--------------------------------------------------------------------------------


  Lattice summation method               =    Ewald          (3-D)
                                         =    Parry          (2-D)
                                         =    Saunders et al (1-D)
  Accuracy factor for lattice sums       =   12.000


  Time limit = Infinity

  Maximum range for interatomic potentials =        16.000000 Angstroms

  Taper potentials to zero over   1.0000 Angstroms using polynomial

  General interatomic potentials :

--------------------------------------------------------------------------------
Atom  Types   Potential         A         B         C         D     Cutoffs(Ang)
  1     2                                                            Min    Max 
--------------------------------------------------------------------------------
Si   c O1   s Buckingham    0.132E+04 0.318      10.1      0.00     0.000 16.000
Si   c O2   s Buckingham    0.132E+04 0.318      10.1      0.00     0.000 16.000
Si   c O3   s Buckingham    0.132E+04 0.318      10.1      0.00     0.000 16.000
Ge   c O1   s Buckingham    0.150E+04 0.326      16.8      0.00     0.000 16.000
Ge   c O2   s Buckingham    0.150E+04 0.326      16.8      0.00     0.000 16.000
Ge   c O3   s Buckingham    0.150E+04 0.326      16.8      0.00     0.000 16.000
O1   s O1   s Buckingham    0.228E+05 0.149      10.9      0.00     0.000 16.000
O1   s O2   s Buckingham    0.228E+05 0.149      10.9      0.00     0.000 16.000
O1   s O3   s Buckingham    0.228E+05 0.149      10.9      0.00     0.000 16.000
O2   s O2   s Buckingham    0.228E+05 0.149      10.9      0.00     0.000 16.000
O2   s O3   s Buckingham    0.228E+05 0.149      10.9      0.00     0.000 16.000
O3   s O3   s Buckingham    0.228E+05 0.149      10.9      0.00     0.000 16.000
Si   c F    s Buckingham     977.     0.282      0.00      0.00     0.000 16.000
Ge   c F    s Buckingham     681.     0.320      0.00      0.00     0.000 16.000
F    s F    s Buckingham     540.     0.262      0.00      0.00     0.000 16.000
O1   s F    s Buckingham    0.168E+04 0.268      0.00      0.00     0.000 16.000
O2   s F    s Buckingham    0.168E+04 0.268      0.00      0.00     0.000 16.000
O3   s F    s Buckingham    0.168E+04 0.268      0.00      0.00     0.000 16.000
O2   c O2   s Spring (c-s)   76.0      0.00      0.00      0.00     0.000  0.800
O3   c O3   s Spring (c-s)   128.      0.00      0.00      0.00     0.000  0.800
O1   c O1   s Spring (c-s)   180.      0.00      0.00      0.00     0.000  0.800
F    c F    s Spring (c-s)   33.5      0.00      0.00      0.00     0.000  0.800
--------------------------------------------------------------------------------

  General Three-body potentials :

  Harmonic form:

--------------------------------------------------------------------------------
Atom    Atom    Atom           Force Constants            Theta     Cutoffs  
  1       2       3     (eVrad**-2/eVrad**-3/eVrad**-4)   (deg)  1-2  1-3  2-3
--------------------------------------------------------------------------------
Si    c O1    s O1    s  1.261        0.0000    0.0000   109.470 0.00 0.00 0.00
                                                                 1.90 1.90 3.50
Si    c O1    s O2    s  1.261        0.0000    0.0000   109.470 0.00 0.00 0.00
                                                                 1.90 1.90 3.50
Si    c O2    s O2    s  1.261        0.0000    0.0000   109.470 0.00 0.00 0.00
                                                                 1.90 1.90 3.50
--------------------------------------------------------------------------------

********************************************************************************
*  Output for configuration   1                                                *
********************************************************************************


  Components of energy : 

--------------------------------------------------------------------------------
  Interatomic potentials     =        2063.89325386 eV
  Three-body potentials      =           0.44719123 eV
  Monopole - monopole (real) =       -6612.32325317 eV
  Monopole - monopole (recip)=       -3172.28392817 eV
  Monopole - monopole (total)=       -9784.60718134 eV
  Neutralising energy        =          -6.46194033 eV
--------------------------------------------------------------------------------
  Total lattice energy       =       -7726.72867658 eV
--------------------------------------------------------------------------------
  Total lattice energy       =         -745511.2034 kJ/(mole unit cells)
--------------------------------------------------------------------------------


  Number of variables =      939

  Maximum number of calculations  =          5000
  Maximum Hessian update interval =            10
  Maximum step size               =   0.100000000
  Maximum parameter tolerance     =   0.000010000
  Maximum function  tolerance     =   0.000010000
  Maximum gradient  tolerance     =   0.001000000
  Maximum gradient  component     =   0.010000000

  Symmetry not applied to optimisation

  Cell parameters to be optimised using strains

  Newton-Raphson optimiser to be used

  BFGS hessian update to be used

  Dumpfile to be written after every cycle

  Start of bulk optimisation :

  Cycle:      0 Energy:     -7726.728677  Gnorm:      0.005398  CPU:    2.007
  ** Hessian calculated **
  Cycle:      1 Energy:     -7726.758957  Gnorm:      0.004812  CPU:    6.572
  Cycle:      2 Energy:     -7726.795106  Gnorm:      0.004036  CPU:   10.762
  Cycle:      3 Energy:     -7726.834623  Gnorm:      0.003073  CPU:   14.952
  Cycle:      4 Energy:     -7726.858732  Gnorm:      0.002270  CPU:   19.142
  Cycle:      5 Energy:     -7726.864410  Gnorm:      0.001450  CPU:   23.333
  Cycle:      6 Energy:     -7726.865806  Gnorm:      0.000822  CPU:   27.524
  Cycle:      7 Energy:     -7726.866156  Gnorm:      0.000437  CPU:   31.716
  Cycle:      8 Energy:     -7726.866244  Gnorm:      0.000229  CPU:   35.908
  Cycle:      9 Energy:     -7726.866259  Gnorm:      0.000161  CPU:   38.740
  Cycle:     10 Energy:     -7726.866266  Gnorm:      0.000114  CPU:   41.572
  ** Hessian calculated **
  Cycle:     11 Energy:     -7726.866266  Gnorm:      0.000059  CPU:   46.090
  Cycle:     12 Energy:     -7726.866266  Gnorm:      0.000042  CPU:   48.922
  Cycle:     13 Energy:     -7726.866266  Gnorm:      0.000032  CPU:   51.754


  **** Optimisation achieved ****


  Final energy =   -7726.86626649 eV
  Final Gnorm  =       0.00002634

  Components of energy : 

--------------------------------------------------------------------------------
  Interatomic potentials     =        2064.50089701 eV
  Three-body potentials      =           0.46561419 eV
  Monopole - monopole (real) =       -6612.92548283 eV
  Monopole - monopole (recip)=       -3172.44502139 eV
  Monopole - monopole (total)=       -9785.37050423 eV
  Neutralising energy        =          -6.46227346 eV
--------------------------------------------------------------------------------
  Total lattice energy       =       -7726.86626649 eV
--------------------------------------------------------------------------------
  Total lattice energy       =         -745524.4787 kJ/(mole unit cells)
--------------------------------------------------------------------------------

  Final fractional coordinates of atoms :

--------------------------------------------------------------------------------
   No.  Atomic        x           y          z          Radius
        Label       (Frac)      (Frac)     (Frac)       (Angs) 
--------------------------------------------------------------------------------
     1  Ge    c     0.699600    0.375700    0.033890    0.000000
     2  Si    c     0.593694    0.299339    0.362912    0.000000
     3  Si    c     0.658915    0.294486    0.699215    0.000000
     4  Si    c     0.287621    0.611046    0.527615    0.000000
     5  Si    c     0.363335    0.664888    0.862253    0.000000
     6  Si    c     0.298059    0.686516    0.197149    0.000000
     7  Si    c     0.351439    0.679411    0.297735    0.000000
     8  Si    c     0.306852    0.611505    0.962684    0.000000
     9  Si    c     0.287769    0.674058    0.629623    0.000000
    10  Si    c     0.605923    0.288189    0.800190    0.000000
    11  Si    c     0.647961    0.350634    0.463492    0.000000
    12  Si    c     0.667253    0.303337    0.132005    0.000000
    13  Si    c     0.518718    0.408859    0.967295    0.000000
    14  Si    c     0.557121    0.087559    0.300425    0.000000
    15  Ge    c     0.869453    0.460733    0.631040    0.000000
    16  Si    c     0.451536    0.559447    0.463750    0.000000
    17  Si    c     0.403299    0.876601    0.797119    0.000000
    18  Si    c     0.089252    0.517510    0.129849    0.000000
    19  Si    c     0.392729    0.507261    0.362346    0.000000
    20  Si    c     0.093102    0.573672    0.026526    0.000000
    21  Si    c     0.457530    0.886234    0.695081    0.000000
    22  Si    c     0.568665    0.460787    0.864571    0.000000
    23  Si    c     0.859411    0.395326    0.526816    0.000000
    24  Si    c     0.504660    0.092791    0.198963    0.000000
    25  Si    c     0.287775    0.388613    0.848443    0.000000
    26  Si    c     0.577017    0.886961    0.182766    0.000000
    27  Ge    c     0.074720    0.670738    0.520653    0.000000
    28  Si    c     0.673473    0.577317    0.348506    0.000000
    29  Si    c     0.381870    0.091909    0.682638    0.000000
    30  Si    c     0.880363    0.286118    0.010650    0.000000
    31  Si    c     0.371374    0.277309    0.477902    0.000000
    32  Si    c     0.874429    0.587968    0.143011    0.000000
    33  Si    c     0.685057    0.088076    0.812452    0.000000
    34  Si    c     0.585562    0.689730    0.978596    0.000000
    35  Si    c     0.087707    0.391602    0.646666    0.000000
    36  Si    c     0.274273    0.879352    0.314044    0.000000
    37  Si    c     0.239093    0.332745    0.949105    0.000000
    38  Si    c     0.634472    0.888178    0.283744    0.000000
    39  Si    c     0.072291    0.747836    0.616695    0.000000
    40  Si    c     0.730274    0.634945    0.449426    0.000000
    41  Si    c     0.324489    0.077508    0.783626    0.000000
    42  Si    c     0.884013    0.236131    0.114055    0.000000
    43  Si    c     0.313059    0.228185    0.377009    0.000000
    44  Si    c     0.892162    0.657434    0.040466    0.000000
    45  Si    c     0.736510    0.090149    0.711313    0.000000
    46  Si    c     0.644300    0.738559    0.877754    0.000000
    47  Si    c     0.070142    0.325739    0.544241    0.000000
    48  Si    c     0.224836    0.892096    0.212945    0.000000
    49  Si    c     0.960766    0.113583    0.963155    0.000000
    50  Si    c     0.852213    0.825455    0.298036    0.000000
    51  Si    c     0.134075    0.023440    0.632383    0.000000
    52  Si    c     0.010895    0.856678    0.466358    0.000000
    53  Si    c     0.107646    0.139494    0.798135    0.000000
    54  Si    c     0.825559    0.958759    0.131693    0.000000
    55  Si    c     0.095454    0.947884    0.364384    0.000000
    56  Si    c     0.833969    0.874807    0.030066    0.000000
    57  Si    c     0.015810    0.144837    0.697101    0.000000
    58  Si    c     0.864321    0.016834    0.862848    0.000000
    59  Si    c     0.124568    0.101743    0.529709    0.000000
    60  Si    c     0.945800    0.833908    0.196422    0.000000
    61  O2    c     0.914307    0.999062    0.999106    0.000000
    62  O2    c     0.974122    0.904094    0.330787    0.000000
    63  O2    c     0.050654    0.062516    0.663794    0.000000
    64  O2    c     0.040709    0.979636    0.497889    0.000000
    65  O2    c     0.985319    0.058934    0.830164    0.000000
    66  O2    c     0.907119    0.919115    0.164897    0.000000
    67  O2    c     0.314754    0.555859    0.329969    0.000000
    68  O2    c     0.411307    0.762379    0.661875    0.000000
    69  O2    c     0.220350    0.648349    0.995123    0.000000
    70  O2    c     0.644722    0.409663    0.833226    0.000000
    71  O2    c     0.556143    0.222722    0.169132    0.000000
    72  O2    c     0.730639    0.308187    0.495915    0.000000
    73  O3    c     0.562416    0.332963    0.999130    0.000000
    74  O3    c     0.740625    0.416753    0.667371    0.000000
    75  O2    c     0.633994    0.213858    0.332053    0.000000
    76  O2    c     0.411343    0.639599    0.497480    0.000000
    77  O2    c     0.212619    0.565445    0.163234    0.000000
    78  O2    c     0.325914    0.749483    0.828591    0.000000
    79  O2    c     0.114694    0.203811    0.969109    0.000000
    80  O2    c     0.760662    0.887519    0.303765    0.000000
    81  O2    c     0.079780    0.872578    0.641170    0.000000
    82  O2    c     0.855306    0.758189    0.470832    0.000000
    83  O2    c     0.197654    0.075445    0.803791    0.000000
    84  O2    c     0.886204    0.112872    0.135776    0.000000
    85  O2    c     0.186624    0.101651    0.356836    0.000000
    86  O2    c     0.907726    0.794425    0.024953    0.000000
    87  O2    c     0.863124    0.091958    0.690975    0.000000
    88  O2    c     0.771557    0.863409    0.857212    0.000000
    89  O2    c     0.067761    0.198855    0.525055    0.000000
    90  O2    c     0.100187    0.895513    0.192447    0.000000
    91  O2    c     0.903031    0.839805    0.247072    0.000000
    92  O2    c     0.114423    0.055434    0.581272    0.000000
    93  O2    c     0.919633    0.053238    0.913469    0.000000
    94  O2    c     0.053399    0.126553    0.747473    0.000000
    95  O2    c     0.839460    0.920454    0.081313    0.000000
    96  O2    c     0.044160    0.912753    0.415035    0.000000
    97  O2    c     0.893575    0.197891    0.972425    0.000000
    98  O2    c     0.770298    0.673711    0.309633    0.000000
    99  O2    c     0.286796    0.099266    0.644394    0.000000
   100  O3    c     0.084475    0.784404    0.478443    0.000000
   101  O2    c     0.190270    0.290809    0.809804    0.000000
   102  O2    c     0.673922    0.887617    0.144218    0.000000
   103  O2    c     0.177427    0.877895    0.352550    0.000000
   104  O2    c     0.683025    0.789488    0.016807    0.000000
   105  O2    c     0.095403    0.297021    0.684574    0.000000
   106  O2    c     0.783273    0.087561    0.850843    0.000000
   107  O2    c     0.275723    0.180829    0.516705    0.000000
   108  O2    c     0.876037    0.684469    0.181589    0.000000
   109  O2    c     0.295748    0.624274    0.246816    0.000000
   110  O2    c     0.337725    0.670918    0.578752    0.000000
   111  O2    c     0.303704    0.666418    0.911962    0.000000
   112  O2    c     0.660958    0.348295    0.750094    0.000000
   113  O3    c     0.604271    0.297375    0.083969    0.000000
   114  O2    c     0.649687    0.296827    0.413154    0.000000
   115  O2    c     0.360738    0.323586    0.967534    0.000000
   116  O2    c     0.645043    0.019573    0.302722    0.000000
   117  O3    c     0.939446    0.626708    0.633683    0.000000
   118  O2    c     0.607473    0.645775    0.466274    0.000000
   119  O2    c     0.315734    0.944770    0.800496    0.000000
   120  O2    c     0.016053    0.361800    0.131214    0.000000
   121  O2    c     0.304150    0.351192    0.358561    0.000000
   122  O2    c     0.025220    0.661260    0.025249    0.000000
   123  O2    c     0.614338    0.958381    0.691796    0.000000
   124  O2    c     0.654348    0.616746    0.859726    0.000000
   125  O2    c     0.937940    0.316677    0.526412    0.000000
   126  O2    c     0.348157    0.023848    0.194616    0.000000
   127  O3    c     0.747895    0.280533    0.001590    0.000000
   128  O2    c     0.669368    0.442117    0.340056    0.000000
   129  O2    c     0.515906    0.225870    0.675866    0.000000
   130  O3    c     0.222026    0.682760    0.503946    0.000000
   131  O2    c     0.288661    0.522403    0.839174    0.000000
   132  O2    c     0.440822    0.754708    0.174208    0.000000
   133  O2    c     0.274470    0.745088    0.319903    0.000000
   134  O2    c     0.450868    0.690005    0.985086    0.000000
   135  O2    c     0.220873    0.528640    0.649880    0.000000
   136  O2    c     0.682195    0.219461    0.821401    0.000000
   137  O2    c     0.504404    0.275616    0.485562    0.000000
   138  O2    c     0.742775    0.452515    0.150724    0.000000
   139  O3    c     0.767886    0.543826    0.017901    0.000000
   140  O2    c     0.437310    0.225591    0.357274    0.000000
   141  O2    c     0.739454    0.218315    0.692246    0.000000
   142  O2    c     0.195526    0.454451    0.526603    0.000000
   143  O2    c     0.520043    0.741808    0.857596    0.000000
   144  O2    c     0.220348    0.764920    0.192780    0.000000
   145  O2    c     0.507787    0.762075    0.302676    0.000000
   146  O2    c     0.233615    0.455856    0.968449    0.000000
   147  O2    c     0.195995    0.735877    0.633927    0.000000
   148  O2    c     0.449708    0.202397    0.804264    0.000000
   149  O2    c     0.722889    0.505989    0.469222    0.000000
   150  O2    c     0.760556    0.239859    0.132987    0.000000
   151  O2    c     0.215791    0.314900    0.894701    0.000000
   152  O2    c     0.651166    0.888526    0.229231    0.000000
   153  O3    c     0.074456    0.774389    0.563586    0.000000
   154  O2    c     0.747810    0.649916    0.394783    0.000000
   155  O2    c     0.307072    0.082960    0.729302    0.000000
   156  O2    c     0.883627    0.222007    0.059618    0.000000
   157  O2    c     0.295171    0.208413    0.431421    0.000000
   158  O2    c     0.879012    0.658112    0.095759    0.000000
   159  O2    c     0.756249    0.089077    0.765721    0.000000
   160  O2    c     0.661571    0.758575    0.932154    0.000000
   161  O2    c     0.072368    0.319392    0.598954    0.000000
   162  O2    c     0.205942    0.887834    0.267331    0.000000
   163  O2    c     0.568474    0.551032    0.988924    0.000000
   164  O2    c     0.416112    0.001421    0.323361    0.000000
   165  O3    c     0.968994    0.411395    0.656000    0.000000
   166  O2    c     0.388874    0.417681    0.486875    0.000000
   167  O2    c     0.545457    0.961457    0.819963    0.000000
   168  O2    c     0.997430    0.568469    0.149155    0.000000
   169  O2    c     0.534773    0.566242    0.339783    0.000000
   170  O2    c     0.002241    0.432274    0.005442    0.000000
   171  O2    c     0.395643    0.967041    0.672446    0.000000
   172  O2    c     0.427010    0.401355    0.840779    0.000000
   173  O3    c     0.933539    0.531939    0.501640    0.000000
   174  O2    c     0.564527    0.013345    0.174604    0.000000
   175  O2    c     0.556372    0.142207    0.249985    0.000000
   176  O3    c     0.810045    0.397097    0.577893    0.000000
   177  O2    c     0.571248    0.413482    0.915771    0.000000
   178  O2    c     0.404629    0.828704    0.745549    0.000000
   179  O2    c     0.137045    0.567578    0.078578    0.000000
   180  O2    c     0.393751    0.559615    0.413375    0.000000
   181  F     c     0.424719    0.881580    0.246730    0.000000
   182  F     c     0.068500    0.560319    0.571071    0.000000
   183  F     c     0.433465    0.542235    0.912259    0.000000
   184  F     c     0.536243    0.091509    0.745784    0.000000
   185  F     c     0.844949    0.429274    0.070308    0.000000
   186  F     c     0.520780    0.426015    0.412463    0.000000
   187  O2    s     0.910347    0.997857    0.998556    0.000000
   188  O2    s     0.973712    0.900005    0.330781    0.000000
   189  O2    s     0.056001    0.067518    0.664071    0.000000
   190  O2    s     0.047068    0.980819    0.498247    0.000000
   191  O2    s     0.985529    0.063307    0.830220    0.000000
   192  O2    s     0.902393    0.914111    0.164710    0.000000
   193  O2    s     0.326487    0.563706    0.329918    0.000000
   194  O2    s     0.403059    0.765623    0.661844    0.000000
   195  O2    s     0.215652    0.636831    0.995166    0.000000
   196  O2    s     0.632916    0.402203    0.832965    0.000000
   197  O2    s     0.562367    0.217487    0.168374    0.000000
   198  O2    s     0.735022    0.321165    0.495686    0.000000
   199  O3    s     0.567319    0.344385    0.998083    0.000000
   200  O3    s     0.742566    0.407974    0.667696    0.000000
   201  O2    s     0.621767    0.209401    0.331916    0.000000
   202  O2    s     0.402347    0.628300    0.497218    0.000000
   203  O2    s     0.208051    0.572482    0.163091    0.000000
   204  O2    s     0.337768    0.754190    0.828717    0.000000
   205  O2    s     0.110695    0.207205    0.966435    0.000000
   206  O2    s     0.757140    0.881026    0.301084    0.000000
   207  O2    s     0.084924    0.876235    0.637791    0.000000
   208  O2    s     0.857385    0.754790    0.468114    0.000000
   209  O2    s     0.201238    0.082438    0.801130    0.000000
   210  O2    s     0.879606    0.109489    0.133112    0.000000
   211  O2    s     0.190188    0.098684    0.359685    0.000000
   212  O2    s     0.898277    0.788889    0.027086    0.000000
   213  O2    s     0.866388    0.097457    0.693702    0.000000
   214  O2    s     0.768398    0.867011    0.859904    0.000000
   215  O2    s     0.073896    0.202277    0.527549    0.000000
   216  O2    s     0.096542    0.888564    0.194967    0.000000
   217  O2    s     0.902211    0.837535    0.247015    0.000000
   218  O2    s     0.117787    0.057036    0.581274    0.000000
   219  O2    s     0.918040    0.055947    0.913368    0.000000
   220  O2    s     0.055182    0.130116    0.747381    0.000000
   221  O2    s     0.837241    0.919745    0.081354    0.000000
   222  O2    s     0.046581    0.910936    0.414564    0.000000
   223  O2    s     0.899558    0.198063    0.975471    0.000000
   224  O2    s     0.769190    0.680086    0.312344    0.000000
   225  O2    s     0.280366    0.090539    0.647012    0.000000
   226  O3    s     0.075506    0.785181    0.479807    0.000000
   227  O2    s     0.191312    0.284509    0.812473    0.000000
   228  O2    s     0.680122    0.895084    0.146820    0.000000
   229  O2    s     0.178973    0.885257    0.349782    0.000000
   230  O2    s     0.689293    0.788498    0.014342    0.000000
   231  O2    s     0.086410    0.291090    0.681952    0.000000
   232  O2    s     0.781805    0.080132    0.848186    0.000000
   233  O2    s     0.269504    0.182390    0.514069    0.000000
   234  O2    s     0.883282    0.690322    0.179151    0.000000
   235  O2    s     0.301578    0.636172    0.246853    0.000000
   236  O2    s     0.327694    0.665432    0.579045    0.000000
   237  O2    s     0.309990    0.660710    0.912094    0.000000
   238  O2    s     0.655088    0.336576    0.750029    0.000000
   239  O3    s     0.617097    0.303061    0.085821    0.000000
   240  O2    s     0.643640    0.302734    0.413157    0.000000
   241  O2    s     0.363014    0.333130    0.965450    0.000000
   242  O2    s     0.634873    0.012835    0.300491    0.000000
   243  O3    s     0.946987    0.625470    0.631758    0.000000
   244  O2    s     0.603777    0.635463    0.464218    0.000000
   245  O2    s     0.325646    0.951757    0.798361    0.000000
   246  O2    s     0.009962    0.365014    0.129277    0.000000
   247  O2    s     0.314146    0.354363    0.360876    0.000000
   248  O2    s     0.019048    0.651778    0.026907    0.000000
   249  O2    s     0.610877    0.964644    0.694168    0.000000
   250  O2    s     0.644498    0.613522    0.862114    0.000000
   251  O2    s     0.944250    0.325547    0.528365    0.000000
   252  O2    s     0.351292    0.017055    0.196997    0.000000
   253  O3    s     0.758976    0.287446    0.004767    0.000000
   254  O2    s     0.662010    0.441624    0.343315    0.000000
   255  O2    s     0.516193    0.218491    0.679030    0.000000
   256  O3    s     0.218200    0.674363    0.507666    0.000000
   257  O2    s     0.296189    0.522994    0.842526    0.000000
   258  O2    s     0.440397    0.761521    0.177484    0.000000
   259  O2    s     0.282329    0.752352    0.316979    0.000000
   260  O2    s     0.449939    0.681941    0.982088    0.000000
   261  O2    s     0.213801    0.529189    0.647442    0.000000
   262  O2    s     0.674671    0.212675    0.818249    0.000000
   263  O2    s     0.505079    0.283559    0.482431    0.000000
   264  O2    s     0.749564    0.452593    0.148060    0.000000
   265  O3    s     0.777178    0.545446    0.021322    0.000000
   266  O2    s     0.440278    0.233638    0.359938    0.000000
   267  O2    s     0.731299    0.212204    0.694867    0.000000
   268  O2    s     0.190930    0.456099    0.528635    0.000000
   269  O2    s     0.517201    0.733392    0.860231    0.000000
   270  O2    s     0.228916    0.770404    0.195355    0.000000
   271  O2    s     0.505202    0.767259    0.300114    0.000000
   272  O2    s     0.241835    0.459012    0.965838    0.000000
   273  O2    s     0.193287    0.730289    0.631722    0.000000
   274  O2    s     0.452480    0.197715    0.801617    0.000000
   275  O2    s     0.715652    0.503638    0.466513    0.000000
   276  O2    s     0.764987    0.245857    0.130798    0.000000
   277  O2    s     0.225780    0.324546    0.895520    0.000000
   278  O2    s     0.641590    0.888324    0.230087    0.000000
   279  O3    s     0.074201    0.764403    0.566041    0.000000
   280  O2    s     0.738164    0.640715    0.395627    0.000000
   281  O2    s     0.316757    0.083312    0.730175    0.000000
   282  O2    s     0.883340    0.229810    0.060634    0.000000
   283  O2    s     0.305081    0.217769    0.430560    0.000000
   284  O2    s     0.879765    0.650360    0.095400    0.000000
   285  O2    s     0.746721    0.089086    0.764842    0.000000
   286  O2    s     0.651830    0.749302    0.931222    0.000000
   287  O2    s     0.073744    0.327666    0.598150    0.000000
   288  O2    s     0.215066    0.887400    0.266400    0.000000
   289  O2    s     0.565090    0.552114    0.985577    0.000000
   290  O2    s     0.415615    0.997112    0.319947    0.000000
   291  O3    s     0.973708    0.413366    0.652999    0.000000
   292  O2    s     0.393648    0.417420    0.483493    0.000000
   293  O2    s     0.545626    0.966413    0.816740    0.000000
   294  O2    s     0.993945    0.564991    0.146416    0.000000
   295  O2    s     0.534753    0.561097    0.343082    0.000000
   296  O2    s     0.999468    0.432681    0.008268    0.000000
   297  O2    s     0.400738    0.971961    0.675858    0.000000
   298  O2    s     0.426691    0.406301    0.844065    0.000000
   299  O3    s     0.936835    0.528613    0.505593    0.000000
   300  O2    s     0.559533    0.007895    0.177982    0.000000
   301  O2    s     0.550884    0.131087    0.249857    0.000000
   302  O3    s     0.819523    0.402164    0.577460    0.000000
   303  O2    s     0.565727    0.418178    0.915385    0.000000
   304  O2    s     0.409973    0.839582    0.745614    0.000000
   305  O2    s     0.127553    0.562952    0.078649    0.000000
   306  O2    s     0.399529    0.554205    0.413295    0.000000
   307  F     s     0.424396    0.881022    0.246535    0.000000
   308  F     s     0.067868    0.565866    0.568647    0.000000
   309  F     s     0.432816    0.542823    0.912078    0.000000
   310  F     s     0.536711    0.092090    0.745578    0.000000
   311  F     s     0.834100    0.425383    0.067672    0.000000
   312  F     s     0.520734    0.425640    0.412400    0.000000
--------------------------------------------------------------------------------

  Final Cartesian lattice vectors (Angstroms) :

       11.966031    0.004404   -0.015003
       -6.052252   10.377012    0.025472
       -0.227419    0.022183   29.412975


  Final cell parameters and derivatives :

--------------------------------------------------------------------------------
       a           11.966041 Angstrom     dE/de1(xx)     0.000538 eV/strain
       b           12.013026 Angstrom     dE/de2(yy)     0.000526 eV/strain
       c           29.413862 Angstrom     dE/de3(zz)     0.001030 eV/strain
       alpha       89.618006 Degrees      dE/de4(yz)    -0.000105 eV/strain
       beta        90.514821 Degrees      dE/de5(xz)    -0.000017 eV/strain
       gamma      120.231284 Degrees      dE/de6(xy)     0.000402 eV/strain
--------------------------------------------------------------------------------

  Primitive cell volume =          3653.001402 Angs**3

  Density of cell =      1.751462 g/cm**3

  Non-primitive cell volume =          3653.001402 Angs**3


  Final internal derivatives :

--------------------------------------------------------------------------------
   No.  Atomic          a             b             c           Radius
        Label          (eV)          (eV)          (eV)        (eV/Angs)
--------------------------------------------------------------------------------
      1 Ge    c       0.000000      0.000000      0.000000      0.000000
      2 Si    c       0.000034      0.000498      0.000180      0.000000
      3 Si    c      -0.000247      0.000388      0.000000      0.000000
      4 Si    c       0.000186     -0.000537      0.000392      0.000000
      5 Si    c       0.000530     -0.000173      0.000530      0.000000
      6 Si    c       0.000372     -0.000127     -0.000070      0.000000
      7 Si    c       0.000351      0.000525     -0.000174      0.000000
      8 Si    c       0.000836     -0.000280     -0.000130      0.000000
      9 Si    c       0.000190     -0.000601      0.000871      0.000000
     10 Si    c      -0.000333      0.000239     -0.000118      0.000000
     11 Si    c      -0.000203      0.000492     -0.000492      0.000000
     12 Si    c       0.001643      0.000925      0.008598      0.000000
     13 Si    c      -0.000604     -0.000884      0.000354      0.000000
     14 Si    c      -0.000006      0.000184     -0.000026      0.000000
     15 Ge    c      -0.000443      0.000455     -0.000585      0.000000
     16 Si    c       0.000501     -0.000170     -0.000371      0.000000
     17 Si    c       0.000303     -0.000439      0.000349      0.000000
     18 Si    c       0.001028      0.000023      0.000649      0.000000
     19 Si    c       0.000429      0.000226      0.000368      0.000000
     20 Si    c       0.001067     -0.000419     -0.000265      0.000000
     21 Si    c       0.000223     -0.000717      0.000847      0.000000
     22 Si    c      -0.000338      0.000180      0.000175      0.000000
     23 Si    c      -0.000056      0.000331     -0.000662      0.000000
     24 Si    c      -0.000122     -0.000538      0.001385      0.000000
     25 Si    c       0.000213      0.000095      0.000480      0.000000
     26 Si    c       0.000255      0.000105      0.000109      0.000000
     27 Ge    c      -0.000453     -0.000535      0.001192      0.000000
     28 Si    c       0.000261      0.000561      0.000352      0.000000
     29 Si    c      -0.000046      0.000097      0.000975      0.000000
     30 Si    c       0.002277      0.000431     -0.000845      0.000000
     31 Si    c       0.000118      0.000181      0.000080      0.000000
     32 Si    c       0.000478      0.000478     -0.000649      0.000000
     33 Si    c       0.000273     -0.000532      0.000125      0.000000
     34 Si    c       0.000112     -0.000019     -0.000645      0.000000
     35 Si    c       0.000135     -0.000519      0.000257      0.000000
     36 Si    c       0.000252      0.000387     -0.000149      0.000000
     37 Si    c       0.000101      0.000047     -0.000243      0.000000
     38 Si    c      -0.000036      0.000246     -0.000176      0.000000
     39 Si    c      -0.000452      0.000107      0.000053      0.000000
     40 Si    c       0.000175      0.000271     -0.000034      0.000000
     41 Si    c      -0.000084      0.000386     -0.000255      0.000000
     42 Si    c       0.001298     -0.000105     -0.000202      0.000000
     43 Si    c       0.000224      0.000317      0.000462      0.000000
     44 Si    c       0.000396     -0.000245     -0.003289      0.000000
     45 Si    c       0.000020     -0.000852      0.000587      0.000000
     46 Si    c      -0.000079      0.000211      0.000265      0.000000
     47 Si    c       0.000533     -0.000280     -0.000163      0.000000
     48 Si    c       0.000440      0.000211      0.000515      0.000000
     49 Si    c       0.000001      0.000263      0.000047      0.000000
     50 Si    c       0.000480      0.000402     -0.000174      0.000000
     51 Si    c       0.000051      0.000064      0.000855      0.000000
     52 Si    c       0.000425      0.000042      0.000222      0.000000
     53 Si    c       0.000065      0.000116      0.000249      0.000000
     54 Si    c      -0.000068      0.000178      0.000184      0.000000
     55 Si    c       0.000102      0.000336      0.000267      0.000000
     56 Si    c      -0.000337      0.000297     -0.000170      0.000000
     57 Si    c      -0.000088     -0.000169      0.000907      0.000000
     58 Si    c      -0.000053      0.000310     -0.000254      0.000000
     59 Si    c       0.000271      0.000129     -0.000397      0.000000
     60 Si    c       0.000484     -0.000089      0.000327      0.000000
     61 O2    c      -0.000089     -0.000049     -0.000061      0.000000
     62 O2    c       0.000185      0.000418     -0.000194      0.000000
     63 O2    c       0.000305      0.000075      0.000415      0.000000
     64 O2    c      -0.000187      0.000201      0.000019      0.000000
     65 O2    c       0.000009      0.000325     -0.000101      0.000000
     66 O2    c       0.000136     -0.000087      0.000621      0.000000
     67 O2    c       0.000267      0.000415      0.000200      0.000000
     68 O2    c       0.000065     -0.000534      0.000764      0.000000
     69 O2    c       0.001096     -0.000025      0.000390      0.000000
     70 O2    c      -0.000047      0.000188     -0.000602      0.000000
     71 O2    c      -0.000393     -0.000390      0.002183      0.000000
     72 O2    c      -0.000060      0.000123     -0.000365      0.000000
     73 O3    c       0.001092     -0.001234      0.002507      0.000000
     74 O3    c      -0.000387     -0.000142     -0.000186      0.000000
     75 O2    c       0.000022      0.000486     -0.000267      0.000000
     76 O2    c       0.000259      0.000033      0.000260      0.000000
     77 O2    c       0.000496     -0.000157     -0.000110      0.000000
     78 O2    c       0.000354     -0.000055      0.000172      0.000000
     79 O2    c       0.000173      0.000042     -0.000204      0.000000
     80 O2    c       0.000200      0.000498     -0.000176      0.000000
     81 O2    c      -0.000276     -0.000509      0.000515      0.000000
     82 O2    c      -0.000031      0.000221     -0.000183      0.000000
     83 O2    c       0.000298      0.000092     -0.000469      0.000000
     84 O2    c       0.000087      0.000065     -0.000089      0.000000
     85 O2    c       0.000212      0.000413      0.000463      0.000000
     86 O2    c       0.001370      0.000065     -0.001359      0.000000
     87 O2    c      -0.000600     -0.000611      0.000618      0.000000
     88 O2    c      -0.000119      0.000199      0.000636      0.000000
     89 O2    c       0.000080      0.000096      0.000130      0.000000
     90 O2    c       0.000563      0.000111      0.000794      0.000000
     91 O2    c       0.000536      0.000180     -0.000160      0.000000
     92 O2    c       0.000188      0.000449     -0.002301      0.000000
     93 O2    c      -0.000302      0.000152     -0.000928      0.000000
     94 O2    c       0.000222     -0.000069      0.000331      0.000000
     95 O2    c      -0.000142      0.000607      0.001805      0.000000
     96 O2    c       0.000048     -0.000024      0.000554      0.000000
     97 O2    c       0.000447     -0.000083     -0.000139      0.000000
     98 O2    c       0.000171      0.000367      0.000626      0.000000
     99 O2    c       0.000674     -0.000102      0.000916      0.000000
    100 O3    c       0.000205     -0.000571      0.000852      0.000000
    101 O2    c       0.000139      0.000161      0.000379      0.000000
    102 O2    c       0.000290      0.000195      0.000342      0.000000
    103 O2    c       0.000186      0.000255     -0.000585      0.000000
    104 O2    c      -0.000341     -0.000239     -0.000090      0.000000
    105 O2    c      -0.000126     -0.000067      0.000103      0.000000
    106 O2    c       0.000130     -0.000163     -0.000363      0.000000
    107 O2    c       0.000589      0.000185     -0.000341      0.000000
    108 O2    c       0.000587     -0.000071      0.000192      0.000000
    109 O2    c       0.000163      0.000436      0.000106      0.000000
    110 O2    c       0.000246     -0.000197      0.001151      0.000000
    111 O2    c       0.000732     -0.000225      0.000054      0.000000
    112 O2    c      -0.000083     -0.000189     -0.000193      0.000000
    113 O3    c      -0.001444     -0.001521      0.005782      0.000000
    114 O2    c      -0.000107      0.000330     -0.000608      0.000000
    115 O2    c      -0.000109      0.000057     -0.000222      0.000000
    116 O2    c       0.000031      0.000330     -0.000165      0.000000
    117 O3    c      -0.000261      0.000424     -0.000067      0.000000
    118 O2    c       0.000364     -0.000087     -0.000010      0.000000
    119 O2    c       0.000089     -0.000078      0.000051      0.000000
    120 O2    c       0.000850     -0.000002      0.000448      0.000000
    121 O2    c       0.000365      0.000421      0.000415      0.000000
    122 O2    c       0.001465      0.000994     -0.001551      0.000000
    123 O2    c       0.000034     -0.000673      0.000445      0.000000
    124 O2    c      -0.000064      0.000089      0.000224      0.000000
    125 O2    c       0.000141     -0.000469      0.000172      0.000000
    126 O2    c       0.000472      0.000147      0.000403      0.000000
    127 O3    c       0.001783     -0.000646     -0.002283      0.000000
    128 O2    c       0.000056      0.000551      0.000559      0.000000
    129 O2    c      -0.000069     -0.000190      0.000375      0.000000
    130 O3    c       0.000275      0.000285     -0.000049      0.000000
    131 O2    c       0.000310      0.000082      0.000550      0.000000
    132 O2    c       0.000362      0.000148      0.000759      0.000000
    133 O2    c       0.000336      0.000529     -0.000296      0.000000
    134 O2    c       0.000840     -0.000443     -0.000063      0.000000
    135 O2    c      -0.000054     -0.000557      0.000228      0.000000
    136 O2    c       0.000136     -0.000096      0.000232      0.000000
    137 O2    c       0.000251      0.000427     -0.000378      0.000000
    138 O2    c       0.000389      0.000861      0.000922      0.000000
    139 O3    c      -0.001507     -0.000755     -0.001922      0.000000
    140 O2    c       0.000368      0.000440      0.000337      0.000000
    141 O2    c      -0.000088     -0.000740      0.000413      0.000000
    142 O2    c       0.000040     -0.000198      0.000321      0.000000
    143 O2    c       0.000308     -0.000141      0.000524      0.000000
    144 O2    c       0.000712      0.000105      0.000613      0.000000
    145 O2    c       0.000211      0.000363     -0.000175      0.000000
    146 O2    c       0.000386     -0.000149     -0.000102      0.000000
    147 O2    c      -0.000188      0.000050      0.000020      0.000000
    148 O2    c      -0.000070      0.000317     -0.000176      0.000000
    149 O2    c       0.000106      0.000498     -0.000100      0.000000
    150 O2    c       0.000577     -0.000832      0.000778      0.000000
    151 O2    c       0.000122      0.000011     -0.000002      0.000000
    152 O2    c       0.000108      0.000338      0.000445      0.000000
    153 O3    c      -0.000143      0.000211      0.000529      0.000000
    154 O2    c      -0.000007      0.000344      0.000094      0.000000
    155 O2    c      -0.000204      0.000025      0.000051      0.000000
    156 O2    c       0.000531     -0.000465     -0.001061      0.000000
    157 O2    c       0.000332      0.000184      0.000209      0.000000
    158 O2    c       0.000834      0.001593      0.006943      0.000000
    159 O2    c       0.000143     -0.000485      0.000252      0.000000
    160 O2    c       0.000118      0.000008      0.000160      0.000000
    161 O2    c       0.000175     -0.000603     -0.000307      0.000000
    162 O2    c       0.000388      0.000138     -0.000136      0.000000
    163 O2    c       0.000471     -0.000179     -0.000352      0.000000
    164 O2    c       0.000145      0.000381     -0.000458      0.000000
    165 O3    c      -0.001007     -0.000618      0.001055      0.000000
    166 O2    c       0.000131      0.000048     -0.000221      0.000000
    167 O2    c       0.000182     -0.000248     -0.000135      0.000000
    168 O2    c       0.000879      0.000058      0.000142      0.000000
    169 O2    c       0.000317      0.000255      0.000632      0.000000
    170 O2    c       0.001838     -0.000473     -0.001072      0.000000
    171 O2    c      -0.000091     -0.000680      0.000108      0.000000
    172 O2    c       0.000066      0.000190      0.000253      0.000000
    173 O3    c      -0.000206      0.000209     -0.000046      0.000000
    174 O2    c       0.000502      0.000240      0.000175      0.000000
    175 O2    c       0.000406      0.000286      0.000054      0.000000
    176 O3    c      -0.000866      0.000054     -0.000465      0.000000
    177 O2    c      -0.000150      0.000003     -0.000827      0.000000
    178 O2    c       0.000031     -0.000316      0.000297      0.000000
    179 O2    c       0.001329      0.000158      0.001156      0.000000
    180 O2    c       0.000405      0.000122     -0.000468      0.000000
    181 F     c       0.000331      0.000304      0.000313      0.000000
    182 F     c      -0.000604     -0.000267     -0.000446      0.000000
    183 F     c       0.000281     -0.000001     -0.000015      0.000000
    184 F     c      -0.000189     -0.000589      0.000349      0.000000
    185 F     c      -0.001184      0.000725     -0.003829      0.000000
    186 F     c       0.000196      0.000357      0.000072      0.000000
    187 O2    s       0.000920     -0.000775     -0.000817      0.000000
    188 O2    s       0.000159      0.000823     -0.000297      0.000000
    189 O2    s       0.000338     -0.000107      0.000755      0.000000
    190 O2    s       0.000236      0.000210     -0.000106      0.000000
    191 O2    s       0.000195      0.000256      0.000432      0.000000
    192 O2    s       0.000386     -0.000303      0.000718      0.000000
    193 O2    s       0.000474      0.000521      0.000070      0.000000
    194 O2    s      -0.000624     -0.000328      0.001016      0.000000
    195 O2    s       0.000814      0.000202     -0.000056      0.000000
    196 O2    s       0.000184     -0.000086     -0.000021      0.000000
    197 O2    s       0.001104     -0.000144      0.004975      0.000000
    198 O2    s       0.000406     -0.000046     -0.000630      0.000000
    199 O3    s       0.001874     -0.000473      0.001247      0.000000
    200 O3    s       0.000522     -0.000874     -0.000284      0.000000
    201 O2    s       0.000043      0.000491     -0.000082      0.000000
    202 O2    s       0.000028      0.000134     -0.000097      0.000000
    203 O2    s       0.000420      0.000061      0.000353      0.000000
    204 O2    s       0.000195      0.000179      0.000500      0.000000
    205 O2    s       0.000568     -0.000498     -0.000733      0.000000
    206 O2    s       0.000193      0.000557     -0.000288      0.000000
    207 O2    s      -0.000076     -0.000693      0.001246      0.000000
    208 O2    s      -0.000144      0.000187     -0.000089      0.000000
    209 O2    s       0.000252     -0.000067      0.000319      0.000000
    210 O2    s       0.000643      0.000181      0.001574      0.000000
    211 O2    s       0.000368      0.000369      0.000445      0.000000
    212 O2    s       0.001362     -0.000055     -0.003641      0.000000
    213 O2    s      -0.000550     -0.000524      0.000852      0.000000
    214 O2    s       0.000456     -0.000079      0.000590      0.000000
    215 O2    s       0.000028      0.000398     -0.000512      0.000000
    216 O2    s       0.000479      0.000287      0.000508      0.000000
    217 O2    s       0.000614      0.000549      0.000131      0.000000
    218 O2    s       0.000510      0.000429     -0.001673      0.000000
    219 O2    s       0.000216     -0.000247     -0.000750      0.000000
    220 O2    s       0.000080      0.000020      0.000591      0.000000
    221 O2    s       0.000767     -0.000275      0.001690      0.000000
    222 O2    s       0.000359      0.000071      0.000071      0.000000
    223 O2    s       0.000585      0.000676     -0.000599      0.000000
    224 O2    s       0.000279      0.000464      0.000603      0.000000
    225 O2    s       0.000934     -0.000717      0.001430      0.000000
    226 O3    s       0.000311     -0.000043     -0.000555      0.000000
    227 O2    s       0.000029      0.000136      0.000630      0.000000
    228 O2    s       0.000321     -0.000095      0.001330      0.000000
    229 O2    s       0.000229      0.000409     -0.000690      0.000000
    230 O2    s       0.000308     -0.001015     -0.000821      0.000000
    231 O2    s      -0.000647      0.000254      0.000541      0.000000
    232 O2    s      -0.000045      0.000182     -0.000397      0.000000
    233 O2    s       0.000916     -0.000026     -0.000628      0.000000
    234 O2    s       0.001003     -0.000018      0.000633      0.000000
    235 O2    s       0.000466      0.000551     -0.000444      0.000000
    236 O2    s      -0.000523      0.000022      0.000740      0.000000
    237 O2    s       0.000529      0.000314     -0.000033      0.000000
    238 O2    s       0.000691     -0.001242     -0.000223      0.000000
    239 O3    s       0.000348      0.001380      0.001527      0.000000
    240 O2    s      -0.000003      0.000334     -0.000608      0.000000
    241 O2    s       0.000215     -0.000660     -0.000495      0.000000
    242 O2    s       0.000025      0.000335     -0.000190      0.000000
    243 O3    s       0.000325     -0.000457     -0.000265      0.000000
    244 O2    s       0.000166      0.000150     -0.000300      0.000000
    245 O2    s       0.000366     -0.000180     -0.000285      0.000000
    246 O2    s       0.000384      0.000496      0.001107      0.000000
    247 O2    s       0.000442      0.000379      0.000550      0.000000
    248 O2    s       0.000878      0.000586     -0.003250      0.000000
    249 O2    s      -0.000602     -0.000309      0.000762      0.000000
    250 O2    s       0.000432     -0.000083      0.000614      0.000000
    251 O2    s       0.000012      0.000129      0.000926      0.000000
    252 O2    s       0.000677      0.000311      0.000890      0.000000
    253 O3    s       0.002113     -0.000326     -0.001721      0.000000
    254 O2    s       0.000272      0.000442      0.000591      0.000000
    255 O2    s       0.000747     -0.001162      0.001203      0.000000
    256 O3    s       0.000048     -0.000304      0.001418      0.000000
    257 O2    s       0.000096      0.000233      0.000551      0.000000
    258 O2    s       0.000297      0.000039      0.001227      0.000000
    259 O2    s       0.000474      0.000503     -0.000147      0.000000
    260 O2    s       0.000522     -0.000267     -0.000258      0.000000
    261 O2    s      -0.000800     -0.000002      0.000399      0.000000
    262 O2    s      -0.000100     -0.000027     -0.000643      0.000000
    263 O2    s       0.000203      0.000385     -0.000872      0.000000
    264 O2    s       0.000859     -0.000769      0.002244      0.000000
    265 O3    s      -0.001076      0.000137     -0.003846      0.000000
    266 O2    s       0.000319      0.000577      0.000454      0.000000
    267 O2    s      -0.000781     -0.000606      0.001753      0.000000
    268 O2    s      -0.000605      0.000493      0.000475      0.000000
    269 O2    s       0.000113      0.000179      0.000702      0.000000
    270 O2    s       0.000754      0.000116      0.000730      0.000000
    271 O2    s       0.000285      0.000404     -0.000209      0.000000
    272 O2    s       0.000379      0.000018     -0.000361      0.000000
    273 O2    s      -0.000248     -0.000316     -0.000407      0.000000
    274 O2    s       0.000457     -0.000168     -0.000150      0.000000
    275 O2    s       0.000216      0.000238     -0.000539      0.000000
    276 O2    s       0.000334      0.000200      0.003676      0.000000
    277 O2    s       0.000359     -0.000295      0.000162      0.000000
    278 O2    s       0.000390      0.000173      0.000426      0.000000
    279 O3    s       0.000134     -0.000787      0.001406      0.000000
    280 O2    s       0.000114      0.000546      0.000162      0.000000
    281 O2    s       0.000512     -0.000731      0.000566      0.000000
    282 O2    s       0.000817      0.000548      0.000152      0.000000
    283 O2    s       0.000594      0.000214     -0.000105      0.000000
    284 O2    s       0.001372      0.001595      0.005177      0.000000
    285 O2    s      -0.000584      0.000044     -0.000191      0.000000
    286 O2    s       0.000965     -0.000474     -0.000062      0.000000
    287 O2    s      -0.000446      0.000026     -0.000530      0.000000
    288 O2    s       0.000617      0.000452     -0.000303      0.000000
    289 O2    s       0.001148     -0.000131     -0.000106      0.000000
    290 O2    s       0.000165      0.000741     -0.000424      0.000000
    291 O3    s      -0.000742     -0.000331      0.000408      0.000000
    292 O2    s       0.000176      0.000028     -0.000528      0.000000
    293 O2    s      -0.000348      0.000179     -0.000672      0.000000
    294 O2    s       0.000829     -0.000411     -0.000308      0.000000
    295 O2    s       0.000261      0.000676      0.000624      0.000000
    296 O2    s       0.001820     -0.000559     -0.001251      0.000000
    297 O2    s       0.000038     -0.000600      0.001315      0.000000
    298 O2    s       0.000146     -0.000122      0.000347      0.000000
    299 O3    s       0.000551     -0.000492      0.000100      0.000000
    300 O2    s       0.000345      0.000420      0.000958      0.000000
    301 O2    s       0.000474      0.000390     -0.000090      0.000000
    302 O3    s       0.000007     -0.000435      0.000058      0.000000
    303 O2    s       0.000400     -0.000768     -0.000798      0.000000
    304 O2    s      -0.000501      0.000081      0.000097      0.000000
    305 O2    s       0.001133      0.000613      0.001168      0.000000
    306 O2    s       0.000425      0.000476     -0.000619      0.000000
    307 F     s       0.000481      0.000494      0.000632      0.000000
    308 F     s      -0.000445     -0.000073     -0.000538      0.000000
    309 F     s       0.000419     -0.000048     -0.000098      0.000000
    310 F     s      -0.000232     -0.000835      0.000462      0.000000
    311 F     s      -0.001501     -0.000098     -0.005396      0.000000
    312 F     s       0.000232      0.000361     -0.000075      0.000000
--------------------------------------------------------------------------------
  Maximum abs         0.002277      0.001595      0.008598      0.000000
--------------------------------------------------------------------------------


  Time to end of optimisation =      54.5875 seconds


  Peak dynamic memory used =      19.13 MB 


  Timing analysis for GULP :

--------------------------------------------------------------------------------
  Task / Subroutine                                          Time (Seconds)
--------------------------------------------------------------------------------
  Calculation of reciprocal space energy and derivatives          1.4308
  Calculation of real space energy and derivatives               47.5151
  Calculation of three-body energy and derivatives                4.8052
  Calculation of matrix inversion                                 0.7436
--------------------------------------------------------------------------------
  Total CPU time                                                 54.5876
--------------------------------------------------------------------------------


  Dump file written as out.res                                                 
  CIF file written as out.cif                                                 


  Job Finished at 19:57.53 29th October    2016                               

