********************************************************************************
*                       GENERAL UTILITY LATTICE PROGRAM                        *
*                                 Julian Gale                                  *
*                      Nanochemistry Research Institute                        *
*                           Department of Chemistry                            *
*                    Curtin University, Western Australia                      *
********************************************************************************
* Version = 4.2.0 * Last modified =  20th January 2014                         *
********************************************************************************
*  optimise     - perform optimisation run                                     *
*  conp         - constant pressure calculation                                *
*  qok          - running with non charge neutral cell is OK                   *
********************************************************************************

  Job Started  at 20:43.13 29th October    2016                               

  Number of CPUs =     1


  Total number of configurations input =   1

********************************************************************************
*  Input for Configuration =   1                                               *
********************************************************************************

  Formula = Ge3Si57O120F6                                               

  Number of irreducible atoms/shells =     312


  Total number atoms/shells =     312

  Dimensionality = 3               :  Bulk   


  Charge on solid   =  -6.000000 =>neutralising background added


  Cartesian lattice vectors (Angstroms) :

       11.953085    0.000000    0.000000
       -6.090308   10.380559    0.000000
        0.083439    0.012775   29.462404

  Cell parameters (Angstroms/Degrees):

  a =      11.9531    alpha =  90.0607
  b =      12.0353    beta  =  89.8377
  c =      29.4625    gamma = 120.4003

  Initial cell volume =        3655.686500 Angs**3

  Temperature of configuration =  0.000     K 

  Pressure of configuration =         0.000 GPa 

  Fractional coordinates of asymmetric unit :

--------------------------------------------------------------------------------
   No.  Atomic       x           y          z         Charge      Occupancy
        Label      (Frac)      (Frac)     (Frac)        (e)         (Frac)  
--------------------------------------------------------------------------------
      1 Ge    c    0.699600    0.375700    0.033890     4.00000    1.000000    
      2 Si    c    0.616063 *  0.320056 *  0.363565 *   4.00000    1.000000    
      3 Si    c    0.685927 *  0.305764 *  0.697396 *   4.00000    1.000000    
      4 Si    c    0.301080 *  0.631731 *  0.532860 *   4.00000    1.000000    
      5 Si    c    0.378775 *  0.675412 *  0.863398 *   4.00000    1.000000    
      6 Si    c    0.318465 *  0.701521 *  0.197798 *   4.00000    1.000000    
      7 Si    c    0.374836 *  0.700139 *  0.298357 *   4.00000    1.000000    
      8 Si    c    0.322606 *  0.619837 *  0.963656 *   4.00000    1.000000    
      9 Si    c    0.299518 *  0.681262 *  0.635222 *   4.00000    1.000000    
     10 Si    c    0.626381 *  0.298819 *  0.799105 *   4.00000    1.000000    
     11 Si    c    0.680681 *  0.375662 *  0.465433 *   4.00000    1.000000    
     12 Si    c    0.687932 *  0.318748 *  0.132535 *   4.00000    1.000000    
     13 Si    c    0.529269 *  0.415999 *  0.966077 *   4.00000    1.000000    
     14 Si    c    0.580760 *  0.108420 *  0.300776 *   4.00000    1.000000    
     15 Ge    c    0.905333 *  0.471944 *  0.629420 *   4.00000    1.000000    
     16 Si    c    0.466069 *  0.588268 *  0.467839 *   4.00000    1.000000    
     17 Si    c    0.419519 *  0.888367 *  0.799688 *   4.00000    1.000000    
     18 Si    c    0.108589 *  0.531709 *  0.130334 *   4.00000    1.000000    
     19 Si    c    0.407979 *  0.527607 *  0.365041 *   4.00000    1.000000    
     20 Si    c    0.107064 *  0.581989 *  0.027005 *   4.00000    1.000000    
     21 Si    c    0.474301 *  0.894147 *  0.698751 *   4.00000    1.000000    
     22 Si    c    0.584266 *  0.468999 *  0.863863 *   4.00000    1.000000    
     23 Si    c    0.885941 *  0.411631 *  0.530467 *   4.00000    1.000000    
     24 Si    c    0.528275 *  0.110763 *  0.199829 *   4.00000    1.000000    
     25 Si    c    0.302092 *  0.398210 *  0.848668 *   4.00000    1.000000    
     26 Si    c    0.599585 *  0.903984 *  0.183549 *   4.00000    1.000000    
     27 Si    c    0.092838 *  0.702015 *  0.518064 *   4.00000    1.000000    
     28 Si    c    0.694389 *  0.600226 *  0.349474 *   4.00000    1.000000    
     29 Si    c    0.403257 *  0.101153 *  0.684131 *   4.00000    1.000000    
     30 Si    c    0.892000 *  0.294992 *  0.012432 *   4.00000    1.000000    
     31 Ge    c    0.409512 *  0.316519 *  0.474087 *   4.00000    1.000000    
     32 Si    c    0.893975 *  0.602480 *  0.143292 *   4.00000    1.000000    
     33 Si    c    0.701296 *  0.097344 *  0.813770 *   4.00000    1.000000    
     34 Si    c    0.600401 *  0.696447 *  0.979411 *   4.00000    1.000000    
     35 Si    c    0.101271 *  0.395395 *  0.651562 *   4.00000    1.000000    
     36 Si    c    0.298369 *  0.900138 *  0.314481 *   4.00000    1.000000    
     37 Si    c    0.250657 *  0.341276 *  0.949178 *   4.00000    1.000000    
     38 Si    c    0.657620 *  0.909325 *  0.284093 *   4.00000    1.000000    
     39 Si    c    0.084677 *  0.753243 *  0.620266 *   4.00000    1.000000    
     40 Si    c    0.748508 *  0.660490 *  0.451329 *   4.00000    1.000000    
     41 Si    c    0.343640 *  0.088736 *  0.784748 *   4.00000    1.000000    
     42 Si    c    0.903028 *  0.249638 *  0.115128 *   4.00000    1.000000    
     43 Si    c    0.327752 *  0.244804 *  0.378033 *   4.00000    1.000000    
     44 Si    c    0.901876 *  0.660283 *  0.040826 *   4.00000    1.000000    
     45 Si    c    0.754416 *  0.094108 *  0.712931 *   4.00000    1.000000    
     46 Si    c    0.660122 *  0.746923 *  0.878720 *   4.00000    1.000000    
     47 Si    c    0.093752 *  0.341601 *  0.548389 *   4.00000    1.000000    
     48 Si    c    0.246974 *  0.909514 *  0.213932 *   4.00000    1.000000    
     49 Si    c    0.972023 *  0.121261 *  0.964339 *   4.00000    1.000000    
     50 Si    c    0.874040 *  0.846177 *  0.297811 *   4.00000    1.000000    
     51 Si    c    0.158570 *  0.037185 *  0.631824 *   4.00000    1.000000    
     52 Si    c    0.029507 *  0.883245 *  0.466235 *   4.00000    1.000000    
     53 Si    c    0.124517 *  0.147781 *  0.799330 *   4.00000    1.000000    
     54 Si    c    0.847316 *  0.972790 *  0.131602 *   4.00000    1.000000    
     55 Si    c    0.117101 *  0.966884 *  0.363727 *   4.00000    1.000000    
     56 Si    c    0.848792 *  0.880960 *  0.030355 *   4.00000    1.000000    
     57 Si    c    0.034596 *  0.149069 *  0.698754 *   4.00000    1.000000    
     58 Si    c    0.879101 *  0.026374 *  0.863944 *   4.00000    1.000000    
     59 Si    c    0.162544 *  0.128779 *  0.530080 *   4.00000    1.000000    
     60 Si    c    0.967859 *  0.850469 *  0.196213 *   4.00000    1.000000    
     61 O2    c    0.928482 *  0.005530 *  0.999555 *   0.87073    1.000000    
     62 O2    c    0.994012 *  0.919737 *  0.331291 *   0.87073    1.000000    
     63 O2    c    0.072009 *  0.071229 *  0.663945 *   0.87073    1.000000    
     64 O2    c    0.070512 *  0.004145 *  0.498497 *   0.87073    1.000000    
     65 O2    c    0.002704 *  0.068638 *  0.832179 *   0.87073    1.000000    
     66 O2    c    0.929892 *  0.935172 *  0.164850 *   0.87073    1.000000    
     67 O2    c    0.335805 *  0.577647 *  0.331385 *   0.87073    1.000000    
     68 O2    c    0.424398 *  0.767992 *  0.666268 *   0.87073    1.000000    
     69 O2    c    0.235513 *  0.657588 *  0.996017 *   0.87073    1.000000    
     70 O2    c    0.662586 *  0.421126 *  0.831990 *   0.87073    1.000000    
     71 O2    c    0.577372 *  0.239657 *  0.170429 *   0.87073    1.000000    
     72 O2    c    0.777841 *  0.341209 *  0.490987 *   0.87073    1.000000    
     73 O3    c    0.568003 *  0.336057 *  0.998489 *   1.33043    1.000000    
     74 O3    c    0.768267 *  0.423144 *  0.665246 *   1.33043    1.000000    
     75 O2    c    0.656979 *  0.236139 *  0.332143 *   0.87073    1.000000    
     76 O2    c    0.422582 *  0.673113 *  0.498678 *   0.87073    1.000000    
     77 O2    c    0.232501 *  0.581407 *  0.163747 *   0.87073    1.000000    
     78 O2    c    0.341360 *  0.761092 *  0.831372 *   0.87073    1.000000    
     79 O2    c    0.126189 *  0.212872 *  0.969638 *   0.87073    1.000000    
     80 O2    c    0.784881 *  0.910537 *  0.303806 *   0.87073    1.000000    
     81 O2    c    0.097613 *  0.885011 *  0.638390 *   0.87073    1.000000    
     82 O2    c    0.873736 *  0.788254 *  0.470649 *   0.87073    1.000000    
     83 O2    c    0.217523 *  0.088101 *  0.805734 *   0.87073    1.000000    
     84 O2    c    0.906901 *  0.126760 *  0.136027 *   0.87073    1.000000    
     85 O2    c    0.206738 *  0.119528 *  0.353957 *   0.87073    1.000000    
     86 O2    c    0.919073 *  0.797621 *  0.024822 *   0.87073    1.000000    
     87 O2    c    0.881098 *  0.093987 *  0.692794 *   0.87073    1.000000    
     88 O2    c    0.786915 *  0.872689 *  0.858171 *   0.87073    1.000000    
     89 O2    c    0.102764 *  0.224051 *  0.526102 *   0.87073    1.000000    
     90 O2    c    0.122989 *  0.912179 *  0.193065 *   0.87073    1.000000    
     91 O2    c    0.925163 *  0.857538 *  0.247108 *   0.87073    1.000000    
     92 O2    c    0.145450 *  0.074372 *  0.580963 *   0.87073    1.000000    
     93 O2    c    0.930604 *  0.061574 *  0.914846 *   0.87073    1.000000    
     94 O2    c    0.069164 *  0.127025 *  0.748887 *   0.87073    1.000000    
     95 O2    c    0.858457 *  0.930068 *  0.081672 *   0.87073    1.000000    
     96 O2    c    0.066633 *  0.931953 *  0.414808 *   0.87073    1.000000    
     97 O2    c    0.903305 *  0.203673 *  0.974793 *   0.87073    1.000000    
     98 O2    c    0.788037 *  0.694470 *  0.309981 *   0.87073    1.000000    
     99 O2    c    0.309809 *  0.107870 *  0.645382 *   0.87073    1.000000    
    100 O2    c    0.095737 *  0.798890 *  0.479045 *   0.87073    1.000000    
    101 O2    c    0.205002 *  0.300382 *  0.810103 *   0.87073    1.000000    
    102 O2    c    0.695422 *  0.901748 *  0.145029 *   0.87073    1.000000    
    103 O2    c    0.199676 *  0.897052 *  0.353048 *   0.87073    1.000000    
    104 O2    c    0.696899 *  0.795332 *  0.018119 *   0.87073    1.000000    
    105 O2    c    0.116377 *  0.301594 *  0.687674 *   0.87073    1.000000    
    106 O2    c    0.799661 *  0.098030 *  0.852048 *   0.87073    1.000000    
    107 O3    c    0.308290 *  0.203402 *  0.516229 *   1.33043    1.000000    
    108 O2    c    0.897654 *  0.700842 *  0.181907 *   0.87073    1.000000    
    109 O2    c    0.317538 *  0.642790 *  0.247919 *   0.87073    1.000000    
    110 O2    c    0.350934 *  0.682550 *  0.583714 *   0.87073    1.000000    
    111 O2    c    0.320492 *  0.676065 *  0.913614 *   0.87073    1.000000    
    112 O2    c    0.684341 *  0.355374 *  0.749199 *   0.87073    1.000000    
    113 O3    c    0.614692 *  0.304600 *  0.085959 *   1.33043    1.000000    
    114 O2    c    0.670267 *  0.322001 *  0.413659 *   0.87073    1.000000    
    115 O2    c    0.371506 *  0.330589 *  0.967312 *   0.87073    1.000000    
    116 O2    c    0.668133 *  0.040088 *  0.303988 *   0.87073    1.000000    
    117 O3    c    0.953945 *  0.637871 *  0.639091 *   1.33043    1.000000    
    118 O2    c    0.624225 *  0.668870 *  0.468444 *   0.87073    1.000000    
    119 O2    c    0.331861 *  0.956448 *  0.803507 *   0.87073    1.000000    
    120 O2    c    0.035383 *  0.375984 *  0.132228 *   0.87073    1.000000    
    121 O2    c    0.321043 *  0.371757 *  0.362335 *   0.87073    1.000000    
    122 O2    c    0.036229 *  0.666218 *  0.025355 *   0.87073    1.000000    
    123 O2    c    0.630827 *  0.960472 *  0.694955 *   0.87073    1.000000    
    124 O2    c    0.670270 *  0.625240 *  0.860600 *   0.87073    1.000000    
    125 O2    c    0.960421 *  0.329321 *  0.530118 *   0.87073    1.000000    
    126 O2    c    0.371458 *  0.041125 *  0.196279 *   0.87073    1.000000    
    127 O3    c    0.757189 *  0.285260 *  0.003496 *   1.33043    1.000000    
    128 O2    c    0.690784 *  0.465425 *  0.343176 *   0.87073    1.000000    
    129 O2    c    0.538212 *  0.233763 *  0.677471 *   0.87073    1.000000    
    130 O2    c    0.228234 *  0.703376 *  0.512966 *   0.87073    1.000000    
    131 O2    c    0.304197 *  0.532511 *  0.840588 *   0.87073    1.000000    
    132 O2    c    0.463057 *  0.771031 *  0.175915 *   0.87073    1.000000    
    133 O2    c    0.299643 *  0.767134 *  0.321162 *   0.87073    1.000000    
    134 O2    c    0.465618 *  0.696631 *  0.986860 *   0.87073    1.000000    
    135 O2    c    0.232399 *  0.536415 *  0.655348 *   0.87073    1.000000    
    136 O2    c    0.699959 *  0.229898 *  0.821821 *   0.87073    1.000000    
    137 O3    c    0.544529 *  0.302371 *  0.490356 *   1.33043    1.000000    
    138 O2    c    0.761821 *  0.467120 *  0.151736 *   0.87073    1.000000    
    139 O3    c    0.775173 *  0.546606 *  0.019813 *   1.33043    1.000000    
    140 O2    c    0.460582 *  0.254485 *  0.359130 *   0.87073    1.000000    
    141 O2    c    0.753497 *  0.217379 *  0.692956 *   0.87073    1.000000    
    142 O2    c    0.212198 *  0.477489 *  0.530779 *   0.87073    1.000000    
    143 O2    c    0.535621 *  0.749158 *  0.859063 *   0.87073    1.000000    
    144 O2    c    0.244108 *  0.782564 *  0.194472 *   0.87073    1.000000    
    145 O2    c    0.531976 *  0.780452 *  0.303010 *   0.87073    1.000000    
    146 O2    c    0.245865 *  0.464059 *  0.969447 *   0.87073    1.000000    
    147 O2    c    0.208864 *  0.744466 *  0.638061 *   0.87073    1.000000    
    148 O2    c    0.469563 *  0.215856 *  0.803888 *   0.87073    1.000000    
    149 O2    c    0.745878 *  0.532915 *  0.468875 *   0.87073    1.000000    
    150 O2    c    0.779576 *  0.253713 *  0.134872 *   0.87073    1.000000    
    151 O2    c    0.228654 *  0.324486 *  0.894920 *   0.87073    1.000000    
    152 O2    c    0.675213 *  0.909098 *  0.229765 *   0.87073    1.000000    
    153 O2    c    0.085556 *  0.765583 *  0.565051 *   0.87073    1.000000    
    154 O2    c    0.760466 *  0.669687 *  0.396609 *   0.87073    1.000000    
    155 O2    c    0.325288 *  0.091580 *  0.730486 *   0.87073    1.000000    
    156 O2    c    0.899551 *  0.233159 *  0.061027 *   0.87073    1.000000    
    157 O3    c    0.302289 *  0.214978 *  0.430435 *   1.33043    1.000000    
    158 O2    c    0.896801 *  0.670201 *  0.096230 *   0.87073    1.000000    
    159 O2    c    0.773140 *  0.095619 *  0.767341 *   0.87073    1.000000    
    160 O2    c    0.677281 *  0.766423 *  0.933167 *   0.87073    1.000000    
    161 O2    c    0.095234 *  0.327714 *  0.602625 *   0.87073    1.000000    
    162 O2    c    0.228235 *  0.906167 *  0.268309 *   0.87073    1.000000    
    163 O2    c    0.583783 *  0.557493 *  0.989043 *   0.87073    1.000000    
    164 O2    c    0.438864 *  0.025024 *  0.324201 *   0.87073    1.000000    
    165 O3    c    0.974158 *  0.397895 *  0.663598 *   1.33043    1.000000    
    166 O3    c    0.403080 *  0.453216 *  0.493147 *   1.33043    1.000000    
    167 O2    c    0.561618 *  0.970747 *  0.823026 *   0.87073    1.000000    
    168 O2    c    0.017405 *  0.583757 *  0.149909 *   0.87073    1.000000    
    169 O2    c    0.551334 *  0.578710 *  0.344451 *   0.87073    1.000000    
    170 O2    c    0.015740 *  0.439773 *  0.006567 *   0.87073    1.000000    
    171 O2    c    0.414736 *  0.974573 *  0.674742 *   0.87073    1.000000    
    172 O2    c    0.442083 *  0.411724 *  0.841121 *   0.87073    1.000000    
    173 O2    c    0.974196 *  0.558399 *  0.510379 *   0.87073    1.000000    
    174 O2    c    0.586425 *  0.029398 *  0.175434 *   0.87073    1.000000    
    175 O2    c    0.582185 *  0.162326 *  0.250467 *   0.87073    1.000000    
    176 O3    c    0.816399 *  0.401120 *  0.577466 *   1.33043    1.000000    
    177 O2    c    0.584163 *  0.419369 *  0.915030 *   0.87073    1.000000    
    178 O2    c    0.417652 *  0.834783 *  0.748757 *   0.87073    1.000000    
    179 O2    c    0.153956 *  0.579682 *  0.078912 *   0.87073    1.000000    
    180 O2    c    0.412717 *  0.581715 *  0.415925 *   0.87073    1.000000    
    181 F     c    0.450711 *  0.902703 *  0.249785 *   0.56000    1.000000    
    182 F     c    0.054320 *  0.530257 *  0.592373 *   0.56000    1.000000    
    183 F     c    0.448298 *  0.549351 *  0.914838 *   0.56000    1.000000    
    184 F     c    0.546926 *  0.089503 *  0.749562 *   0.56000    1.000000    
    185 F     c    0.853176 *  0.435102 *  0.071189 *   0.56000    1.000000    
    186 F     c    0.515389 *  0.426002 *  0.425449 *   0.56000    1.000000    
    187 O2    s    0.924178 *  0.004222 *  0.999136 *  -2.87073    1.000000    
    188 O2    s    0.993943 *  0.916489 *  0.331070 *  -2.87073    1.000000    
    189 O2    s    0.077504 *  0.076252 *  0.664276 *  -2.87073    1.000000    
    190 O2    s    0.075116 *  0.002974 *  0.498017 *  -2.87073    1.000000    
    191 O2    s    0.002448 *  0.072796 *  0.832070 *  -2.87073    1.000000    
    192 O2    s    0.925196 *  0.929880 *  0.164735 *  -2.87073    1.000000    
    193 O2    s    0.347272 *  0.584906 *  0.331508 *  -2.87073    1.000000    
    194 O2    s    0.415892 *  0.771240 *  0.666136 *  -2.87073    1.000000    
    195 O2    s    0.230425 *  0.645773 *  0.996111 *  -2.87073    1.000000    
    196 O2    s    0.650849 *  0.413661 *  0.831937 *  -2.87073    1.000000    
    197 O2    s    0.583541 *  0.233902 *  0.169675 *  -2.87073    1.000000    
    198 O2    s    0.778368 *  0.352109 *  0.492226 *  -2.87073    1.000000    
    199 O3    s    0.574067 *  0.347361 *  0.997858 *  -3.33043    1.000000    
    200 O3    s    0.768715 *  0.413645 *  0.666300 *  -3.33043    1.000000    
    201 O2    s    0.644804 *  0.231776 *  0.332215 *  -2.87073    1.000000    
    202 O2    s    0.414464 *  0.660541 *  0.499130 *  -2.87073    1.000000    
    203 O2    s    0.228371 *  0.588412 *  0.163753 *  -2.87073    1.000000    
    204 O2    s    0.353212 *  0.765190 *  0.831466 *  -2.87073    1.000000    
    205 O2    s    0.122203 *  0.216132 *  0.966973 *  -2.87073    1.000000    
    206 O2    s    0.781212 *  0.903501 *  0.301147 *  -2.87073    1.000000    
    207 O2    s    0.102951 *  0.887310 *  0.635692 *  -2.87073    1.000000    
    208 O2    s    0.876454 *  0.784407 *  0.468151 *  -2.87073    1.000000    
    209 O2    s    0.220545 *  0.094578 *  0.802912 *  -2.87073    1.000000    
    210 O2    s    0.900264 *  0.123287 *  0.133448 *  -2.87073    1.000000    
    211 O2    s    0.209443 *  0.116062 *  0.357335 *  -2.87073    1.000000    
    212 O2    s    0.909781 *  0.792706 *  0.027014 *  -2.87073    1.000000    
    213 O2    s    0.884422 *  0.099879 *  0.695466 *  -2.87073    1.000000    
    214 O2    s    0.783585 *  0.876029 *  0.860896 *  -2.87073    1.000000    
    215 O2    s    0.107720 *  0.227109 *  0.528858 *  -2.87073    1.000000    
    216 O2    s    0.119305 *  0.905290 *  0.195551 *  -2.87073    1.000000    
    217 O2    s    0.924078 *  0.855442 *  0.247210 *  -2.87073    1.000000    
    218 O2    s    0.148774 *  0.076086 *  0.581179 *  -2.87073    1.000000    
    219 O2    s    0.929551 *  0.064453 *  0.914792 *  -2.87073    1.000000    
    220 O2    s    0.071493 *  0.131901 *  0.748874 *  -2.87073    1.000000    
    221 O2    s    0.856100 *  0.929706 *  0.081897 *  -2.87073    1.000000    
    222 O2    s    0.068211 *  0.930511 *  0.414688 *  -2.87073    1.000000    
    223 O2    s    0.909630 *  0.204352 *  0.977644 *  -2.87073    1.000000    
    224 O2    s    0.787053 *  0.700304 *  0.312900 *  -2.87073    1.000000    
    225 O2    s    0.303057 *  0.099657 *  0.647825 *  -2.87073    1.000000    
    226 O2    s    0.088495 *  0.797856 *  0.481673 *  -2.87073    1.000000    
    227 O2    s    0.206416 *  0.294291 *  0.812885 *  -2.87073    1.000000    
    228 O2    s    0.701484 *  0.909475 *  0.147626 *  -2.87073    1.000000    
    229 O2    s    0.201176 *  0.904648 *  0.350187 *  -2.87073    1.000000    
    230 O2    s    0.703449 *  0.794589 *  0.015564 *  -2.87073    1.000000    
    231 O2    s    0.106403 *  0.295198 *  0.685181 *  -2.87073    1.000000    
    232 O2    s    0.798184 *  0.090333 *  0.849450 *  -2.87073    1.000000    
    233 O3    s    0.298687 *  0.202682 *  0.514915 *  -3.33043    1.000000    
    234 O2    s    0.904765 *  0.706796 *  0.179492 *  -2.87073    1.000000    
    235 O2    s    0.323338 *  0.654399 *  0.247926 *  -2.87073    1.000000    
    236 O2    s    0.340501 *  0.677019 *  0.583467 *  -2.87073    1.000000    
    237 O2    s    0.326567 *  0.670169 *  0.913710 *  -2.87073    1.000000    
    238 O2    s    0.678434 *  0.344581 *  0.749370 *  -2.87073    1.000000    
    239 O3    s    0.627919 *  0.310846 *  0.087188 *  -3.33043    1.000000    
    240 O2    s    0.665336 *  0.327182 *  0.413381 *  -2.87073    1.000000    
    241 O2    s    0.374327 *  0.340519 *  0.965174 *  -2.87073    1.000000    
    242 O2    s    0.658021 *  0.033474 *  0.301583 *  -2.87073    1.000000    
    243 O3    s    0.964816 *  0.639229 *  0.636395 *  -3.33043    1.000000    
    244 O2    s    0.621260 *  0.659784 *  0.466565 *  -2.87073    1.000000    
    245 O2    s    0.342085 *  0.963256 *  0.801151 *  -2.87073    1.000000    
    246 O2    s    0.029394 *  0.379219 *  0.130277 *  -2.87073    1.000000    
    247 O2    s    0.330691 *  0.375296 *  0.364192 *  -2.87073    1.000000    
    248 O2    s    0.030226 *  0.656717 *  0.027083 *  -2.87073    1.000000    
    249 O2    s    0.627341 *  0.967351 *  0.697202 *  -2.87073    1.000000    
    250 O2    s    0.660375 *  0.622010 *  0.862850 *  -2.87073    1.000000    
    251 O2    s    0.966982 *  0.338879 *  0.532104 *  -2.87073    1.000000    
    252 O2    s    0.374321 *  0.034164 *  0.198554 *  -2.87073    1.000000    
    253 O3    s    0.767572 *  0.292390 *  0.006571 *  -3.33043    1.000000    
    254 O2    s    0.683475 *  0.464906 *  0.345951 *  -2.87073    1.000000    
    255 O2    s    0.538194 *  0.226434 *  0.680231 *  -2.87073    1.000000    
    256 O2    s    0.221679 *  0.695692 *  0.515613 *  -2.87073    1.000000    
    257 O2    s    0.311580 *  0.533019 *  0.843787 *  -2.87073    1.000000    
    258 O2    s    0.462250 *  0.777659 *  0.179021 *  -2.87073    1.000000    
    259 O2    s    0.307270 *  0.774149 *  0.318058 *  -2.87073    1.000000    
    260 O2    s    0.464856 *  0.688767 *  0.983694 *  -2.87073    1.000000    
    261 O2    s    0.226150 *  0.537328 *  0.652817 *  -2.87073    1.000000    
    262 O2    s    0.692613 *  0.223035 *  0.818643 *  -2.87073    1.000000    
    263 O3    s    0.549114 *  0.311112 *  0.486527 *  -3.33043    1.000000    
    264 O2    s    0.768664 *  0.467056 *  0.148920 *  -2.87073    1.000000    
    265 O3    s    0.784560 *  0.548427 *  0.022975 *  -3.33043    1.000000    
    266 O2    s    0.463544 *  0.260584 *  0.361527 *  -2.87073    1.000000    
    267 O2    s    0.746615 *  0.212332 *  0.695603 *  -2.87073    1.000000    
    268 O2    s    0.209134 *  0.479804 *  0.532879 *  -2.87073    1.000000    
    269 O2    s    0.532698 *  0.741052 *  0.861639 *  -2.87073    1.000000    
    270 O2    s    0.252252 *  0.787688 *  0.196893 *  -2.87073    1.000000    
    271 O2    s    0.529140 *  0.785984 *  0.300520 *  -2.87073    1.000000    
    272 O2    s    0.254346 *  0.467242 *  0.966749 *  -2.87073    1.000000    
    273 O2    s    0.205820 *  0.738336 *  0.635938 *  -2.87073    1.000000    
    274 O2    s    0.472279 *  0.210624 *  0.801338 *  -2.87073    1.000000    
    275 O2    s    0.739696 *  0.531646 *  0.466633 *  -2.87073    1.000000    
    276 O2    s    0.784017 *  0.259805 *  0.132481 *  -2.87073    1.000000    
    277 O2    s    0.238627 *  0.333980 *  0.895810 *  -2.87073    1.000000    
    278 O2    s    0.665406 *  0.908578 *  0.230737 *  -2.87073    1.000000    
    279 O2    s    0.086237 *  0.757379 *  0.565401 *  -2.87073    1.000000    
    280 O2    s    0.752083 *  0.661233 *  0.397251 *  -2.87073    1.000000    
    281 O2    s    0.335284 *  0.092253 *  0.731399 *  -2.87073    1.000000    
    282 O2    s    0.899143 *  0.241028 *  0.062180 *  -2.87073    1.000000    
    283 O3    s    0.312264 *  0.225058 *  0.427833 *  -3.33043    1.000000    
    284 O2    s    0.896888 *  0.661637 *  0.096034 *  -2.87073    1.000000    
    285 O2    s    0.763657 *  0.095643 *  0.766489 *  -2.87073    1.000000    
    286 O2    s    0.667438 *  0.757060 *  0.932316 *  -2.87073    1.000000    
    287 O2    s    0.095648 *  0.335889 *  0.601542 *  -2.87073    1.000000    
    288 O2    s    0.237496 *  0.905864 *  0.267338 *  -2.87073    1.000000    
    289 O2    s    0.579806 *  0.558355 *  0.985654 *  -2.87073    1.000000    
    290 O2    s    0.438670 *  0.020229 *  0.320728 *  -2.87073    1.000000    
    291 O3    s    0.983452 *  0.402860 *  0.660005 *  -3.33043    1.000000    
    292 O3    s    0.410181 *  0.457340 *  0.489151 *  -3.33043    1.000000    
    293 O2    s    0.561844 *  0.975937 *  0.819610 *  -2.87073    1.000000    
    294 O2    s    0.013884 *  0.580070 *  0.147116 *  -2.87073    1.000000    
    295 O2    s    0.551953 *  0.575531 *  0.347196 *  -2.87073    1.000000    
    296 O2    s    0.012645 *  0.440230 *  0.009395 *  -2.87073    1.000000    
    297 O2    s    0.419801 *  0.979703 *  0.678188 *  -2.87073    1.000000    
    298 O2    s    0.441841 *  0.416423 *  0.844315 *  -2.87073    1.000000    
    299 O2    s    0.978800 *  0.559959 *  0.513220 *  -2.87073    1.000000    
    300 O2    s    0.581653 *  0.024140 *  0.178823 *  -2.87073    1.000000    
    301 O2    s    0.576287 *  0.150988 *  0.250527 *  -2.87073    1.000000    
    302 O3    s    0.829427 *  0.406819 *  0.575918 *  -3.33043    1.000000    
    303 O2    s    0.578651 *  0.424271 *  0.914860 *  -2.87073    1.000000    
    304 O2    s    0.423724 *  0.846496 *  0.748827 *  -2.87073    1.000000    
    305 O2    s    0.144411 *  0.574758 *  0.079247 *  -2.87073    1.000000    
    306 O2    s    0.417371 *  0.576663 *  0.415685 *  -2.87073    1.000000    
    307 F     s    0.450672 *  0.902395 *  0.249866 *  -1.56000    1.000000    
    308 F     s    0.044361 *  0.526181 *  0.594699 *  -1.56000    1.000000    
    309 F     s    0.447679 *  0.549803 *  0.914927 *  -1.56000    1.000000    
    310 F     s    0.546484 *  0.088754 *  0.749639 *  -1.56000    1.000000    
    311 F     s    0.844050 *  0.431520 *  0.069290 *  -1.56000    1.000000    
    312 F     s    0.508947 *  0.419440 *  0.428286 *  -1.56000    1.000000    
--------------------------------------------------------------------------------



********************************************************************************
*  General input information                                                   *
********************************************************************************

  Species output for all configurations : 

--------------------------------------------------------------------------------
  Species    Type    Atomic    Atomic    Charge       Radii (Angs)     Library
                     Number     Mass       (e)     Cova   Ionic  VDW   Symbol
--------------------------------------------------------------------------------
    Si       Core       14      28.09   4.000000   1.200  0.000  2.100          
    O1       Core        8      16.00   1.733957   0.730  0.000  1.360          
    O1       Shell       8       0.00  -3.733957   0.730  0.000  1.360          
    O2       Core        8      16.00   0.870733   0.730  0.000  1.360          
    O2       Shell       8       0.00  -2.870733   0.730  0.000  1.360          
    O3       Core        8      16.00   1.330431   0.730  0.000  1.360          
    O3       Shell       8       0.00  -3.330431   0.730  0.000  1.360          
    F        Core        9      19.00   0.560000   0.710  0.000  1.300          
    F        Shell       9       0.00  -1.560000   0.710  0.000  1.300          
    Ge       Core       32      72.61   4.000000   1.170  0.000  1.750          
--------------------------------------------------------------------------------


  Lattice summation method               =    Ewald          (3-D)
                                         =    Parry          (2-D)
                                         =    Saunders et al (1-D)
  Accuracy factor for lattice sums       =   12.000


  Time limit = Infinity

  Maximum range for interatomic potentials =        16.000000 Angstroms

  Taper potentials to zero over   1.0000 Angstroms using polynomial

  General interatomic potentials :

--------------------------------------------------------------------------------
Atom  Types   Potential         A         B         C         D     Cutoffs(Ang)
  1     2                                                            Min    Max 
--------------------------------------------------------------------------------
Si   c O1   s Buckingham    0.132E+04 0.318      10.1      0.00     0.000 16.000
Si   c O2   s Buckingham    0.132E+04 0.318      10.1      0.00     0.000 16.000
Si   c O3   s Buckingham    0.132E+04 0.318      10.1      0.00     0.000 16.000
Ge   c O1   s Buckingham    0.150E+04 0.326      16.8      0.00     0.000 16.000
Ge   c O2   s Buckingham    0.150E+04 0.326      16.8      0.00     0.000 16.000
Ge   c O3   s Buckingham    0.150E+04 0.326      16.8      0.00     0.000 16.000
O1   s O1   s Buckingham    0.228E+05 0.149      10.9      0.00     0.000 16.000
O1   s O2   s Buckingham    0.228E+05 0.149      10.9      0.00     0.000 16.000
O1   s O3   s Buckingham    0.228E+05 0.149      10.9      0.00     0.000 16.000
O2   s O2   s Buckingham    0.228E+05 0.149      10.9      0.00     0.000 16.000
O2   s O3   s Buckingham    0.228E+05 0.149      10.9      0.00     0.000 16.000
O3   s O3   s Buckingham    0.228E+05 0.149      10.9      0.00     0.000 16.000
Si   c F    s Buckingham     977.     0.282      0.00      0.00     0.000 16.000
Ge   c F    s Buckingham     681.     0.320      0.00      0.00     0.000 16.000
F    s F    s Buckingham     540.     0.262      0.00      0.00     0.000 16.000
O1   s F    s Buckingham    0.168E+04 0.268      0.00      0.00     0.000 16.000
O2   s F    s Buckingham    0.168E+04 0.268      0.00      0.00     0.000 16.000
O3   s F    s Buckingham    0.168E+04 0.268      0.00      0.00     0.000 16.000
O2   c O2   s Spring (c-s)   76.0      0.00      0.00      0.00     0.000  0.800
O3   c O3   s Spring (c-s)   128.      0.00      0.00      0.00     0.000  0.800
O1   c O1   s Spring (c-s)   180.      0.00      0.00      0.00     0.000  0.800
F    c F    s Spring (c-s)   33.5      0.00      0.00      0.00     0.000  0.800
--------------------------------------------------------------------------------

  General Three-body potentials :

  Harmonic form:

--------------------------------------------------------------------------------
Atom    Atom    Atom           Force Constants            Theta     Cutoffs  
  1       2       3     (eVrad**-2/eVrad**-3/eVrad**-4)   (deg)  1-2  1-3  2-3
--------------------------------------------------------------------------------
Si    c O1    s O1    s  1.261        0.0000    0.0000   109.470 0.00 0.00 0.00
                                                                 1.90 1.90 3.50
Si    c O1    s O2    s  1.261        0.0000    0.0000   109.470 0.00 0.00 0.00
                                                                 1.90 1.90 3.50
Si    c O2    s O2    s  1.261        0.0000    0.0000   109.470 0.00 0.00 0.00
                                                                 1.90 1.90 3.50
--------------------------------------------------------------------------------

********************************************************************************
*  Output for configuration   1                                                *
********************************************************************************


  Components of energy : 

--------------------------------------------------------------------------------
  Interatomic potentials     =        2066.41404720 eV
  Three-body potentials      =           0.47351700 eV
  Monopole - monopole (real) =       -6616.02612659 eV
  Monopole - monopole (recip)=       -3171.65603332 eV
  Monopole - monopole (total)=       -9787.68215991 eV
  Neutralising energy        =          -6.46069090 eV
--------------------------------------------------------------------------------
  Total lattice energy       =       -7727.25528661 eV
--------------------------------------------------------------------------------
  Total lattice energy       =         -745562.0132 kJ/(mole unit cells)
--------------------------------------------------------------------------------


  Number of variables =      939

  Maximum number of calculations  =          5000
  Maximum Hessian update interval =            10
  Maximum step size               =   0.100000000
  Maximum parameter tolerance     =   0.000010000
  Maximum function  tolerance     =   0.000010000
  Maximum gradient  tolerance     =   0.001000000
  Maximum gradient  component     =   0.010000000

  Symmetry not applied to optimisation

  Cell parameters to be optimised using strains

  Newton-Raphson optimiser to be used

  BFGS hessian update to be used

  Dumpfile to be written after every cycle

  Start of bulk optimisation :

  Cycle:      0 Energy:     -7727.255287  Gnorm:      0.007561  CPU:    2.018
  ** Hessian calculated **
  Cycle:      1 Energy:     -7727.291777  Gnorm:      0.006810  CPU:    6.578
  Cycle:      2 Energy:     -7727.336046  Gnorm:      0.005782  CPU:   10.761
  Cycle:      3 Energy:     -7727.386072  Gnorm:      0.004414  CPU:   14.944
  Cycle:      4 Energy:     -7727.422680  Gnorm:      0.003178  CPU:   19.127
  Cycle:      5 Energy:     -7727.431159  Gnorm:      0.002051  CPU:   23.312
  Cycle:      6 Energy:     -7727.433243  Gnorm:      0.001184  CPU:   27.496
  Cycle:      7 Energy:     -7727.433771  Gnorm:      0.000630  CPU:   31.682
  Cycle:      8 Energy:     -7727.433904  Gnorm:      0.000344  CPU:   35.867
  Cycle:      9 Energy:     -7727.433927  Gnorm:      0.000233  CPU:   38.694
  Cycle:     10 Energy:     -7727.433938  Gnorm:      0.000167  CPU:   41.521
  ** Hessian calculated **
  Cycle:     11 Energy:     -7727.433938  Gnorm:      0.000092  CPU:   46.038
  Cycle:     12 Energy:     -7727.433938  Gnorm:      0.000067  CPU:   48.865
  Cycle:     13 Energy:     -7727.433938  Gnorm:      0.000051  CPU:   51.693
  Cycle:     14 Energy:     -7727.433938  Gnorm:      0.000042  CPU:   54.520
  Cycle:     15 Energy:     -7727.433938  Gnorm:      0.000036  CPU:   57.347


  **** Optimisation achieved ****


  Final energy =   -7727.43393836 eV
  Final Gnorm  =       0.00003356

  Components of energy : 

--------------------------------------------------------------------------------
  Interatomic potentials     =        2067.40253440 eV
  Three-body potentials      =           0.48253852 eV
  Monopole - monopole (real) =       -6617.27187021 eV
  Monopole - monopole (recip)=       -3171.58658484 eV
  Monopole - monopole (total)=       -9788.85845505 eV
  Neutralising energy        =          -6.46055623 eV
--------------------------------------------------------------------------------
  Total lattice energy       =       -7727.43393836 eV
--------------------------------------------------------------------------------
  Total lattice energy       =         -745579.2504 kJ/(mole unit cells)
--------------------------------------------------------------------------------

  Final fractional coordinates of atoms :

--------------------------------------------------------------------------------
   No.  Atomic        x           y          z          Radius
        Label       (Frac)      (Frac)     (Frac)       (Angs) 
--------------------------------------------------------------------------------
     1  Ge    c     0.699600    0.375700    0.033890    0.000000
     2  Si    c     0.586398    0.299037    0.363984    0.000000
     3  Si    c     0.672822    0.298146    0.697535    0.000000
     4  Si    c     0.278329    0.620002    0.531918    0.000000
     5  Si    c     0.366625    0.665945    0.862993    0.000000
     6  Si    c     0.292288    0.684977    0.197971    0.000000
     7  Si    c     0.344042    0.679548    0.298594    0.000000
     8  Si    c     0.309662    0.609798    0.963475    0.000000
     9  Si    c     0.286057    0.674486    0.634335    0.000000
    10  Si    c     0.614125    0.289524    0.799414    0.000000
    11  Si    c     0.654807    0.358934    0.465835    0.000000
    12  Si    c     0.663614    0.302818    0.132017    0.000000
    13  Si    c     0.521645    0.409214    0.966745    0.000000
    14  Si    c     0.549490    0.087384    0.300920    0.000000
    15  Ge    c     0.891689    0.464948    0.630044    0.000000
    16  Si    c     0.437746    0.569569    0.467018    0.000000
    17  Si    c     0.408133    0.879141    0.798862    0.000000
    18  Si    c     0.085255    0.515858    0.130669    0.000000
    19  Si    c     0.376764    0.505152    0.364395    0.000000
    20  Si    c     0.094158    0.572837    0.027368    0.000000
    21  Si    c     0.463301    0.887678    0.697521    0.000000
    22  Si    c     0.574489    0.461528    0.863944    0.000000
    23  Si    c     0.863446    0.400050    0.531100    0.000000
    24  Si    c     0.500418    0.093050    0.199387    0.000000
    25  Si    c     0.292299    0.389972    0.848590    0.000000
    26  Si    c     0.572774    0.886776    0.183326    0.000000
    27  Si    c     0.069689    0.690245    0.518374    0.000000
    28  Si    c     0.663449    0.578258    0.348852    0.000000
    29  Si    c     0.390971    0.094069    0.683267    0.000000
    30  Si    c     0.881008    0.285283    0.011422    0.000000
    31  Ge    c     0.382941    0.299036    0.473257    0.000000
    32  Si    c     0.870564    0.586726    0.143445    0.000000
    33  Si    c     0.689586    0.088351    0.813455    0.000000
    34  Si    c     0.588061    0.688266    0.978750    0.000000
    35  Si    c     0.088615    0.389309    0.651808    0.000000
    36  Si    c     0.266954    0.878752    0.314481    0.000000
    37  Si    c     0.241971    0.332859    0.949282    0.000000
    38  Si    c     0.626627    0.888534    0.284349    0.000000
    39  Si    c     0.069775    0.745445    0.620823    0.000000
    40  Si    c     0.720783    0.642672    0.450513    0.000000
    41  Si    c     0.332080    0.079593    0.784256    0.000000
    42  Si    c     0.880509    0.234950    0.114835    0.000000
    43  Si    c     0.297119    0.223109    0.377650    0.000000
    44  Si    c     0.893305    0.657396    0.041024    0.000000
    45  Si    c     0.742894    0.087841    0.712369    0.000000
    46  Si    c     0.648532    0.738543    0.878005    0.000000
    47  Si    c     0.072508    0.330475    0.548515    0.000000
    48  Si    c     0.219188    0.891062    0.213597    0.000000
    49  Si    c     0.962876    0.112925    0.963923    0.000000
    50  Si    c     0.842655    0.824601    0.297831    0.000000
    51  Si    c     0.144668    0.029129    0.631788    0.000000
    52  Si    c     0.000820    0.867933    0.466603    0.000000
    53  Si    c     0.114017    0.139920    0.799280    0.000000
    54  Si    c     0.822560    0.958219    0.131972    0.000000
    55  Si    c     0.086229    0.946285    0.363587    0.000000
    56  Si    c     0.835301    0.874125    0.030518    0.000000
    57  Si    c     0.023690    0.143701    0.698789    0.000000
    58  Si    c     0.867850    0.017387    0.863689    0.000000
    59  Si    c     0.136464    0.113825    0.529789    0.000000
    60  Si    c     0.940188    0.832509    0.196467    0.000000
    61  O2    c     0.917315    0.999634    0.000391    0.000000
    62  O2    c     0.961360    0.897001    0.331914    0.000000
    63  O2    c     0.061011    0.065310    0.664393    0.000000
    64  O2    c     0.039715    0.988230    0.499108    0.000000
    65  O2    c     0.992364    0.061031    0.832282    0.000000
    66  O2    c     0.902760    0.918396    0.165500    0.000000
    67  O2    c     0.304305    0.555769    0.331022    0.000000
    68  O2    c     0.412856    0.762530    0.664474    0.000000
    69  O2    c     0.222874    0.646868    0.996403    0.000000
    70  O2    c     0.651493    0.411751    0.832291    0.000000
    71  O2    c     0.551514    0.221891    0.169503    0.000000
    72  O2    c     0.754011    0.328130    0.492000    0.000000
    73  O3    c     0.564681    0.333405    0.998793    0.000000
    74  O3    c     0.755381    0.416914    0.665985    0.000000
    75  O2    c     0.625980    0.214051    0.332618    0.000000
    76  O2    c     0.397345    0.658120    0.496874    0.000000
    77  O2    c     0.207725    0.563950    0.164436    0.000000
    78  O2    c     0.329790    0.751608    0.830509    0.000000
    79  O2    c     0.117057    0.203324    0.969266    0.000000
    80  O2    c     0.753255    0.888519    0.304115    0.000000
    81  O2    c     0.084787    0.877582    0.639143    0.000000
    82  O2    c     0.845111    0.770834    0.470006    0.000000
    83  O2    c     0.205671    0.078564    0.805206    0.000000
    84  O2    c     0.882013    0.111733    0.136525    0.000000
    85  O2    c     0.176947    0.098321    0.353103    0.000000
    86  O2    c     0.910383    0.794827    0.026080    0.000000
    87  O2    c     0.870530    0.089464    0.692324    0.000000
    88  O2    c     0.775557    0.864198    0.857471    0.000000
    89  O2    c     0.079220    0.211354    0.526538    0.000000
    90  O2    c     0.095182    0.894244    0.192950    0.000000
    91  O2    c     0.896257    0.838500    0.247325    0.000000
    92  O2    c     0.125226    0.062156    0.580946    0.000000
    93  O2    c     0.919177    0.050781    0.914836    0.000000
    94  O2    c     0.057679    0.121108    0.748999    0.000000
    95  O2    c     0.837841    0.919220    0.081935    0.000000
    96  O2    c     0.038456    0.916571    0.415124    0.000000
    97  O2    c     0.895640    0.197056    0.973676    0.000000
    98  O2    c     0.756207    0.672366    0.309034    0.000000
    99  O2    c     0.296860    0.100207    0.644409    0.000000
   100  O2    c     0.069427    0.786037    0.479535    0.000000
   101  O2    c     0.195551    0.292006    0.810085    0.000000
   102  O2    c     0.670107    0.886799    0.144847    0.000000
   103  O2    c     0.167448    0.875067    0.352923    0.000000
   104  O2    c     0.684935    0.787917    0.017147    0.000000
   105  O2    c     0.106031    0.296108    0.687637    0.000000
   106  O2    c     0.788005    0.088650    0.851809    0.000000
   107  O3    c     0.281348    0.185180    0.514984    0.000000
   108  O2    c     0.870790    0.683293    0.182044    0.000000
   109  O2    c     0.288849    0.624024    0.247913    0.000000
   110  O2    c     0.332741    0.673480    0.582195    0.000000
   111  O2    c     0.306819    0.665620    0.913204    0.000000
   112  O2    c     0.671559    0.346679    0.749469    0.000000
   113  O3    c     0.601603    0.297023    0.084271    0.000000
   114  O2    c     0.642585    0.303199    0.414101    0.000000
   115  O2    c     0.363331    0.323589    0.967744    0.000000
   116  O2    c     0.636694    0.018926    0.304081    0.000000
   117  O3    c     0.940181    0.630532    0.640278    0.000000
   118  O2    c     0.595793    0.650067    0.467135    0.000000
   119  O2    c     0.320441    0.947152    0.802709    0.000000
   120  O2    c     0.011683    0.360555    0.132637    0.000000
   121  O2    c     0.290195    0.349646    0.361515    0.000000
   122  O2    c     0.027300    0.661108    0.026518    0.000000
   123  O2    c     0.619984    0.954393    0.693954    0.000000
   124  O2    c     0.659741    0.617538    0.860052    0.000000
   125  O2    c     0.938798    0.318500    0.530713    0.000000
   126  O2    c     0.343522    0.022992    0.195831    0.000000
   127  O3    c     0.748489    0.279491    0.002506    0.000000
   128  O2    c     0.660222    0.443712    0.342992    0.000000
   129  O2    c     0.525602    0.227037    0.677101    0.000000
   130  O2    c     0.204707    0.691162    0.512228    0.000000
   131  O2    c     0.292795    0.523315    0.840237    0.000000
   132  O2    c     0.436490    0.754223    0.175633    0.000000
   133  O2    c     0.267968    0.745743    0.321303    0.000000
   134  O2    c     0.453026    0.687995    0.986352    0.000000
   135  O2    c     0.220393    0.529971    0.654621    0.000000
   136  O2    c     0.687517    0.220094    0.821992    0.000000
   137  O3    c     0.518457    0.285965    0.490528    0.000000
   138  O2    c     0.738607    0.451253    0.151408    0.000000
   139  O3    c     0.770115    0.543935    0.018264    0.000000
   140  O2    c     0.430864    0.232827    0.359610    0.000000
   141  O2    c     0.741476    0.210891    0.692423    0.000000
   142  O2    c     0.189923    0.465933    0.530233    0.000000
   143  O2    c     0.523550    0.740231    0.858452    0.000000
   144  O2    c     0.216602    0.764795    0.193825    0.000000
   145  O2    c     0.501044    0.760162    0.303513    0.000000
   146  O2    c     0.234435    0.454231    0.969421    0.000000
   147  O2    c     0.195020    0.737001    0.637714    0.000000
   148  O2    c     0.457287    0.206047    0.803980    0.000000
   149  O2    c     0.718831    0.515795    0.468354    0.000000
   150  O2    c     0.755933    0.238301    0.133622    0.000000
   151  O2    c     0.219705    0.315866    0.894975    0.000000
   152  O2    c     0.645814    0.889637    0.229984    0.000000
   153  O2    c     0.066302    0.755438    0.565469    0.000000
   154  O2    c     0.731079    0.649552    0.395637    0.000000
   155  O2    c     0.313607    0.083497    0.729929    0.000000
   156  O2    c     0.882873    0.221755    0.060568    0.000000
   157  O3    c     0.272982    0.195719    0.430182    0.000000
   158  O2    c     0.877165    0.657238    0.096406    0.000000
   159  O2    c     0.761799    0.088310    0.766854    0.000000
   160  O2    c     0.665232    0.758311    0.932490    0.000000
   161  O2    c     0.077826    0.319659    0.602833    0.000000
   162  O2    c     0.198304    0.885842    0.268003    0.000000
   163  O2    c     0.572982    0.550770    0.989115    0.000000
   164  O2    c     0.407416    0.003369    0.324187    0.000000
   165  O3    c     0.962951    0.393375    0.664608    0.000000
   166  O3    c     0.376060    0.435330    0.492701    0.000000
   167  O2    c     0.550118    0.961239    0.822291    0.000000
   168  O2    c     0.993771    0.567752    0.150091    0.000000
   169  O2    c     0.520024    0.555810    0.343749    0.000000
   170  O2    c     0.002345    0.431817    0.006473    0.000000
   171  O2    c     0.404061    0.968704    0.673726    0.000000
   172  O2    c     0.432580    0.404411    0.840986    0.000000
   173  O2    c     0.950532    0.546966    0.511012    0.000000
   174  O2    c     0.559115    0.011894    0.175489    0.000000
   175  O2    c     0.551617    0.142244    0.250508    0.000000
   176  O3    c     0.798345    0.391723    0.578757    0.000000
   177  O2    c     0.575282    0.413728    0.915262    0.000000
   178  O2    c     0.406897    0.827449    0.747599    0.000000
   179  O2    c     0.135544    0.565726    0.079657    0.000000
   180  O2    c     0.381727    0.559226    0.415228    0.000000
   181  F     c     0.419641    0.881617    0.249600    0.000000
   182  F     c     0.037561    0.522305    0.592308    0.000000
   183  F     c     0.436617    0.541738    0.914539    0.000000
   184  F     c     0.536149    0.082293    0.748984    0.000000
   185  F     c     0.842653    0.428384    0.071302    0.000000
   186  F     c     0.486657    0.405935    0.424775    0.000000
   187  O2    s     0.912944    0.997894    0.999765    0.000000
   188  O2    s     0.961735    0.894186    0.331551    0.000000
   189  O2    s     0.066245    0.070175    0.664621    0.000000
   190  O2    s     0.044909    0.987208    0.498510    0.000000
   191  O2    s     0.991927    0.064978    0.832131    0.000000
   192  O2    s     0.898188    0.913202    0.165295    0.000000
   193  O2    s     0.315909    0.563159    0.331172    0.000000
   194  O2    s     0.404234    0.765471    0.664493    0.000000
   195  O2    s     0.217653    0.635313    0.996470    0.000000
   196  O2    s     0.639764    0.404471    0.832209    0.000000
   197  O2    s     0.557574    0.216424    0.168843    0.000000
   198  O2    s     0.754393    0.338721    0.493111    0.000000
   199  O3    s     0.569823    0.344685    0.997884    0.000000
   200  O3    s     0.755826    0.407197    0.666933    0.000000
   201  O2    s     0.613952    0.209910    0.332641    0.000000
   202  O2    s     0.389152    0.645451    0.497505    0.000000
   203  O2    s     0.203519    0.571287    0.164336    0.000000
   204  O2    s     0.341551    0.755754    0.830645    0.000000
   205  O2    s     0.112905    0.206622    0.966675    0.000000
   206  O2    s     0.749679    0.881685    0.301418    0.000000
   207  O2    s     0.089770    0.879736    0.636334    0.000000
   208  O2    s     0.847944    0.767209    0.467603    0.000000
   209  O2    s     0.208835    0.085257    0.802443    0.000000
   210  O2    s     0.875619    0.108296    0.133845    0.000000
   211  O2    s     0.179459    0.094892    0.356586    0.000000
   212  O2    s     0.900684    0.789086    0.028082    0.000000
   213  O2    s     0.873706    0.095078    0.695045    0.000000
   214  O2    s     0.772257    0.867549    0.860236    0.000000
   215  O2    s     0.084163    0.214278    0.529169    0.000000
   216  O2    s     0.091510    0.887301    0.195456    0.000000
   217  O2    s     0.895045    0.836242    0.247413    0.000000
   218  O2    s     0.128607    0.064022    0.581135    0.000000
   219  O2    s     0.918476    0.054199    0.914770    0.000000
   220  O2    s     0.060174    0.125833    0.748952    0.000000
   221  O2    s     0.835776    0.918834    0.082138    0.000000
   222  O2    s     0.039681    0.914538    0.414957    0.000000
   223  O2    s     0.901411    0.197458    0.976700    0.000000
   224  O2    s     0.755388    0.678257    0.312078    0.000000
   225  O2    s     0.290135    0.092088    0.646935    0.000000
   226  O2    s     0.062233    0.784856    0.482144    0.000000
   227  O2    s     0.196808    0.285938    0.812869    0.000000
   228  O2    s     0.676038    0.894294    0.147487    0.000000
   229  O2    s     0.169170    0.882864    0.350088    0.000000
   230  O2    s     0.691570    0.787307    0.014759    0.000000
   231  O2    s     0.095786    0.289704    0.685181    0.000000
   232  O2    s     0.786624    0.081041    0.849226    0.000000
   233  O3    s     0.271907    0.184959    0.513781    0.000000
   234  O2    s     0.878191    0.689398    0.179647    0.000000
   235  O2    s     0.294804    0.635845    0.247994    0.000000
   236  O2    s     0.322320    0.667912    0.582071    0.000000
   237  O2    s     0.313059    0.659932    0.913334    0.000000
   238  O2    s     0.665623    0.335835    0.749618    0.000000
   239  O3    s     0.614400    0.302561    0.086274    0.000000
   240  O2    s     0.637674    0.308259    0.413785    0.000000
   241  O2    s     0.365799    0.333200    0.965596    0.000000
   242  O2    s     0.626662    0.012356    0.301693    0.000000
   243  O3    s     0.951074    0.632055    0.637451    0.000000
   244  O2    s     0.593000    0.641076    0.465339    0.000000
   245  O2    s     0.330636    0.953993    0.800382    0.000000
   246  O2    s     0.005809    0.363828    0.130587    0.000000
   247  O2    s     0.299862    0.353282    0.363421    0.000000
   248  O2    s     0.020873    0.651592    0.028071    0.000000
   249  O2    s     0.616351    0.961111    0.696210    0.000000
   250  O2    s     0.649842    0.614296    0.862343    0.000000
   251  O2    s     0.945331    0.327894    0.532641    0.000000
   252  O2    s     0.346544    0.016207    0.198096    0.000000
   253  O3    s     0.759547    0.286543    0.005633    0.000000
   254  O2    s     0.653009    0.443278    0.345778    0.000000
   255  O2    s     0.525497    0.219536    0.679851    0.000000
   256  O2    s     0.198331    0.683580    0.514956    0.000000
   257  O2    s     0.300266    0.523946    0.843461    0.000000
   258  O2    s     0.435861    0.760965    0.178789    0.000000
   259  O2    s     0.275714    0.752851    0.318209    0.000000
   260  O2    s     0.452239    0.680049    0.983207    0.000000
   261  O2    s     0.213977    0.530922    0.652179    0.000000
   262  O2    s     0.680270    0.213339    0.818780    0.000000
   263  O3    s     0.523277    0.294609    0.486672    0.000000
   264  O2    s     0.745521    0.451505    0.148675    0.000000
   265  O3    s     0.779314    0.545647    0.021719    0.000000
   266  O2    s     0.433823    0.239007    0.361903    0.000000
   267  O2    s     0.734560    0.205725    0.695122    0.000000
   268  O2    s     0.186911    0.468241    0.532355    0.000000
   269  O2    s     0.520740    0.732165    0.861039    0.000000
   270  O2    s     0.224820    0.770077    0.196358    0.000000
   271  O2    s     0.498226    0.765621    0.300974    0.000000
   272  O2    s     0.243011    0.457568    0.966738    0.000000
   273  O2    s     0.191977    0.730895    0.635627    0.000000
   274  O2    s     0.460100    0.200964    0.801393    0.000000
   275  O2    s     0.712684    0.514468    0.466157    0.000000
   276  O2    s     0.760558    0.244377    0.131408    0.000000
   277  O2    s     0.229620    0.325427    0.895858    0.000000
   278  O2    s     0.636096    0.889218    0.230885    0.000000
   279  O2    s     0.066988    0.747283    0.565800    0.000000
   280  O2    s     0.722778    0.641218    0.396353    0.000000
   281  O2    s     0.323547    0.084160    0.730798    0.000000
   282  O2    s     0.882429    0.229382    0.061684    0.000000
   283  O3    s     0.282860    0.205544    0.427390    0.000000
   284  O2    s     0.877969    0.649447    0.096155    0.000000
   285  O2    s     0.752236    0.088252    0.766029    0.000000
   286  O2    s     0.655392    0.748902    0.931626    0.000000
   287  O2    s     0.078263    0.327642    0.601711    0.000000
   288  O2    s     0.207681    0.885650    0.267087    0.000000
   289  O2    s     0.569230    0.551771    0.985712    0.000000
   290  O2    s     0.407272    0.998695    0.320730    0.000000
   291  O3    s     0.972039    0.397941    0.660911    0.000000
   292  O3    s     0.383076    0.439593    0.488667    0.000000
   293  O2    s     0.550328    0.966504    0.818913    0.000000
   294  O2    s     0.990251    0.564155    0.147311    0.000000
   295  O2    s     0.520726    0.552815    0.346508    0.000000
   296  O2    s     0.999719    0.432164    0.009270    0.000000
   297  O2    s     0.408908    0.973617    0.677174    0.000000
   298  O2    s     0.432213    0.408979    0.844208    0.000000
   299  O2    s     0.955292    0.548464    0.513802    0.000000
   300  O2    s     0.554330    0.006732    0.178814    0.000000
   301  O2    s     0.545966    0.131160    0.250484    0.000000
   302  O3    s     0.811164    0.397255    0.576960    0.000000
   303  O2    s     0.569809    0.418391    0.914996    0.000000
   304  O2    s     0.412841    0.838991    0.747693    0.000000
   305  O2    s     0.126020    0.561127    0.079847    0.000000
   306  O2    s     0.386652    0.554526    0.414950    0.000000
   307  F     s     0.419440    0.881114    0.249659    0.000000
   308  F     s     0.027364    0.518174    0.594815    0.000000
   309  F     s     0.435924    0.542276    0.914612    0.000000
   310  F     s     0.535788    0.081617    0.749052    0.000000
   311  F     s     0.831990    0.424557    0.068706    0.000000
   312  F     s     0.479883    0.399030    0.427813    0.000000
--------------------------------------------------------------------------------

  Final Cartesian lattice vectors (Angstroms) :

       11.951544   -0.002136   -0.005042
       -6.091378   10.399756    0.013750
        0.070998    0.044518   29.416748


  Final cell parameters and derivatives :

--------------------------------------------------------------------------------
       a           11.951545 Angstrom     dE/de1(xx)    -0.000880 eV/strain
       b           12.052386 Angstrom     dE/de2(yy)    -0.000784 eV/strain
       c           29.416868 Angstrom     dE/de3(zz)    -0.001727 eV/strain
       alpha       89.929706 Degrees      dE/de4(yz)     0.000067 eV/strain
       beta        89.885902 Degrees      dE/de5(xz)     0.000098 eV/strain
       gamma      120.368738 Degrees      dE/de6(xy)     0.000265 eV/strain
--------------------------------------------------------------------------------

  Primitive cell volume =          3655.915100 Angs**3

  Density of cell =      1.750066 g/cm**3

  Non-primitive cell volume =          3655.915100 Angs**3


  Final internal derivatives :

--------------------------------------------------------------------------------
   No.  Atomic          a             b             c           Radius
        Label          (eV)          (eV)          (eV)        (eV/Angs)
--------------------------------------------------------------------------------
      1 Ge    c       0.000000      0.000000      0.000000      0.000000
      2 Si    c       0.000344      0.000123      0.000269      0.000000
      3 Si    c       0.000076     -0.000196     -0.000020      0.000000
      4 Si    c       0.000111     -0.000006      0.000912      0.000000
      5 Si    c       0.000330     -0.000107      0.000453      0.000000
      6 Si    c       0.000390      0.000416      0.000552      0.000000
      7 Si    c       0.000344      0.000883      0.000122      0.000000
      8 Si    c       0.000828     -0.000143     -0.000504      0.000000
      9 Si    c      -0.000224     -0.000020     -0.000276      0.000000
     10 Si    c      -0.000133      0.000046     -0.000084      0.000000
     11 Si    c       0.000172     -0.000382      0.000018      0.000000
     12 Si    c       0.000396      0.000973     -0.001885      0.000000
     13 Si    c       0.000052     -0.000306      0.000009      0.000000
     14 Si    c       0.000483     -0.000074     -0.000110      0.000000
     15 Ge    c       0.000017     -0.000442     -0.000145      0.000000
     16 Si    c       0.000215      0.000470      0.000251      0.000000
     17 Si    c       0.000082     -0.000039     -0.000092      0.000000
     18 Si    c       0.001512      0.000027     -0.000250      0.000000
     19 Si    c       0.000511      0.000516      0.000126      0.000000
     20 Si    c       0.001649     -0.000167     -0.000355      0.000000
     21 Si    c      -0.000261     -0.000111      0.000505      0.000000
     22 Si    c      -0.000263     -0.000111      0.000364      0.000000
     23 Si    c       0.000235     -0.000141      0.000960      0.000000
     24 Si    c       0.000278     -0.000804      0.001294      0.000000
     25 Si    c      -0.000390      0.000152      0.000241      0.000000
     26 Si    c      -0.000109      0.000529      0.000173      0.000000
     27 Si    c       0.000334     -0.000372      0.000823      0.000000
     28 Si    c       0.000801      0.000392      0.000404      0.000000
     29 Si    c       0.000114     -0.000236      0.000667      0.000000
     30 Si    c       0.000652      0.000498     -0.000815      0.000000
     31 Ge    c       0.000217     -0.000238     -0.000295      0.000000
     32 Si    c       0.000643      0.001312      0.000689      0.000000
     33 Si    c      -0.000214     -0.000021     -0.000238      0.000000
     34 Si    c       0.000077     -0.000307     -0.000702      0.000000
     35 Si    c      -0.000638      0.000049     -0.000380      0.000000
     36 Si    c       0.000964      0.000055     -0.000500      0.000000
     37 Si    c      -0.000339      0.000227     -0.000043      0.000000
     38 Si    c      -0.000248      0.000774     -0.000123      0.000000
     39 Si    c       0.000237     -0.000616     -0.000085      0.000000
     40 Si    c       0.000578      0.000235      0.000008      0.000000
     41 Si    c       0.000072      0.000010     -0.000189      0.000000
     42 Si    c       0.000724      0.000037     -0.001412      0.000000
     43 Si    c       0.000504      0.000158      0.000463      0.000000
     44 Si    c      -0.000810     -0.000242     -0.000654      0.000000
     45 Si    c      -0.000473     -0.000179      0.000170      0.000000
     46 Si    c      -0.000165      0.000278      0.000181      0.000000
     47 Si    c      -0.000306      0.000267      0.000838      0.000000
     48 Si    c       0.000844     -0.000083      0.000110      0.000000
     49 Si    c      -0.000014      0.000464     -0.000241      0.000000
     50 Si    c       0.000835      0.000123     -0.000184      0.000000
     51 Si    c      -0.000168      0.000033      0.000159      0.000000
     52 Si    c       0.000254     -0.000087     -0.000037      0.000000
     53 Si    c      -0.000335     -0.000013      0.000017      0.000000
     54 Si    c       0.000109     -0.000321     -0.000231      0.000000
     55 Si    c       0.000398      0.000188      0.000673      0.000000
     56 Si    c      -0.000405      0.000277      0.000148      0.000000
     57 Si    c      -0.000610     -0.000126      0.000761      0.000000
     58 Si    c      -0.000223      0.000240     -0.000192      0.000000
     59 Si    c       0.000498      0.000025      0.000164      0.000000
     60 Si    c       0.000437     -0.000200     -0.000462      0.000000
     61 O2    c       0.000114      0.000191     -0.001033      0.000000
     62 O2    c       0.000716      0.000294     -0.000282      0.000000
     63 O2    c      -0.000437     -0.000225      0.000853      0.000000
     64 O2    c      -0.000024     -0.000016     -0.000706      0.000000
     65 O2    c      -0.000264      0.000114     -0.000171      0.000000
     66 O2    c       0.000363     -0.000676      0.000971      0.000000
     67 O2    c       0.000587      0.000686     -0.000030      0.000000
     68 O2    c      -0.000310     -0.000153      0.000813      0.000000
     69 O2    c       0.001177     -0.000033     -0.000262      0.000000
     70 O2    c      -0.000392      0.000101     -0.000246      0.000000
     71 O2    c       0.000654     -0.000597      0.004387      0.000000
     72 O2    c       0.000083     -0.000172     -0.000136      0.000000
     73 O3    c       0.000859     -0.000182     -0.001316      0.000000
     74 O3    c      -0.000213     -0.000653      0.000683      0.000000
     75 O2    c       0.000197      0.000288     -0.000339      0.000000
     76 O2    c       0.000440     -0.000294      0.000409      0.000000
     77 O2    c       0.000949     -0.000234      0.000384      0.000000
     78 O2    c       0.000239      0.000119     -0.000034      0.000000
     79 O2    c      -0.000029      0.000305     -0.000306      0.000000
     80 O2    c       0.000496      0.000528     -0.000359      0.000000
     81 O2    c      -0.000124     -0.000460      0.000717      0.000000
     82 O2    c       0.000481      0.000081     -0.000292      0.000000
     83 O2    c      -0.000056      0.000120     -0.000407      0.000000
     84 O2    c       0.000424     -0.000034      0.001047      0.000000
     85 O2    c       0.000534      0.000360      0.000622      0.000000
     86 O2    c       0.001244      0.001263     -0.003790      0.000000
     87 O2    c      -0.000659     -0.000172      0.000642      0.000000
     88 O2    c      -0.000303      0.000255      0.000659      0.000000
     89 O2    c       0.000002      0.000062     -0.000227      0.000000
     90 O2    c       0.000590      0.000196      0.000337      0.000000
     91 O2    c       0.000615     -0.000131     -0.000157      0.000000
     92 O2    c       0.000023     -0.000132     -0.000122      0.000000
     93 O2    c      -0.000230      0.000332     -0.000805      0.000000
     94 O2    c      -0.000347     -0.000070      0.000524      0.000000
     95 O2    c       0.000118      0.000056      0.000902      0.000000
     96 O2    c       0.000360     -0.000266     -0.000125      0.000000
     97 O2    c       0.001015     -0.000402     -0.001113      0.000000
     98 O2    c       0.000629      0.000241      0.000568      0.000000
     99 O2    c      -0.000063     -0.000203      0.000933      0.000000
    100 O2    c       0.000421     -0.000236     -0.000275      0.000000
    101 O2    c      -0.000392      0.000014      0.000791      0.000000
    102 O2    c       0.000078      0.000274      0.000487      0.000000
    103 O2    c       0.000585      0.000333     -0.000812      0.000000
    104 O2    c      -0.000390     -0.000214     -0.000665      0.000000
    105 O2    c      -0.000546     -0.000252      0.000567      0.000000
    106 O2    c       0.000083      0.000109     -0.000587      0.000000
    107 O3    c       0.000958      0.000036     -0.001213      0.000000
    108 O2    c       0.000501      0.000060      0.000921      0.000000
    109 O2    c       0.000220      0.000663     -0.000030      0.000000
    110 O2    c      -0.000053      0.000138      0.000716      0.000000
    111 O2    c       0.000527     -0.000025      0.000094      0.000000
    112 O2    c      -0.000136     -0.000269      0.000064      0.000000
    113 O3    c       0.003033      0.000201      0.007726      0.000000
    114 O2    c       0.000075     -0.000124      0.000145      0.000000
    115 O2    c       0.000078     -0.000088     -0.000372      0.000000
    116 O2    c       0.000133      0.000489     -0.000489      0.000000
    117 O3    c       0.000180     -0.000292      0.000646      0.000000
    118 O2    c       0.000650      0.000117      0.000008      0.000000
    119 O2    c       0.000119      0.000101     -0.000406      0.000000
    120 O2    c       0.000656      0.000148      0.000624      0.000000
    121 O2    c       0.000707      0.000638      0.000440      0.000000
    122 O2    c       0.001895      0.001099     -0.002922      0.000000
    123 O2    c      -0.000565     -0.000098      0.000614      0.000000
    124 O2    c      -0.000439     -0.000056      0.000376      0.000000
    125 O2    c      -0.000208      0.000138      0.000306      0.000000
    126 O2    c       0.000708      0.000060      0.000294      0.000000
    127 O3    c       0.001874     -0.000503     -0.001356      0.000000
    128 O2    c       0.000273      0.000411      0.000617      0.000000
    129 O2    c      -0.000189     -0.000358      0.000505      0.000000
    130 O2    c       0.000006     -0.000189      0.000640      0.000000
    131 O2    c       0.000042      0.000050      0.000860      0.000000
    132 O2    c       0.000213      0.000348      0.000684      0.000000
    133 O2    c       0.000868      0.000599     -0.000957      0.000000
    134 O2    c       0.000425      0.000007     -0.000478      0.000000
    135 O2    c      -0.000517     -0.000202      0.000078      0.000000
    136 O2    c      -0.000142      0.000005     -0.000625      0.000000
    137 O3    c       0.000460     -0.000377     -0.001243      0.000000
    138 O2    c       0.001055      0.000266      0.002170      0.000000
    139 O3    c      -0.002591      0.000886     -0.005866      0.000000
    140 O2    c       0.000579      0.000088      0.000219      0.000000
    141 O2    c      -0.000513     -0.000383      0.000623      0.000000
    142 O2    c      -0.000300      0.000006      0.000577      0.000000
    143 O2    c      -0.000112      0.000047      0.000777      0.000000
    144 O2    c       0.000957      0.000385      0.000885      0.000000
    145 O2    c       0.000227      0.000728     -0.000328      0.000000
    146 O2    c       0.000224      0.000091     -0.000433      0.000000
    147 O2    c      -0.000084     -0.000174     -0.000164      0.000000
    148 O2    c      -0.000053      0.000030     -0.000629      0.000000
    149 O2    c       0.000061     -0.000343     -0.000102      0.000000
    150 O2    c       0.000038     -0.000215      0.002287      0.000000
    151 O2    c      -0.000180      0.000138     -0.000089      0.000000
    152 O2    c      -0.000048      0.000426      0.000267      0.000000
    153 O2    c       0.000223     -0.000466      0.000175      0.000000
    154 O2    c       0.000353      0.000187      0.000308      0.000000
    155 O2    c      -0.000078     -0.000048      0.000161      0.000000
    156 O2    c       0.000209      0.000113     -0.000824      0.000000
    157 O3    c       0.000820     -0.000013     -0.000503      0.000000
    158 O2    c       0.001478      0.002134      0.003048      0.000000
    159 O2    c      -0.000404     -0.000075     -0.000054      0.000000
    160 O2    c       0.000007      0.000095     -0.000071      0.000000
    161 O2    c      -0.000584      0.000004     -0.000039      0.000000
    162 O2    c       0.001021      0.000011     -0.000336      0.000000
    163 O2    c       0.000258      0.000037     -0.000785      0.000000
    164 O2    c       0.000704      0.000097     -0.000635      0.000000
    165 O3    c      -0.000615     -0.000265      0.000864      0.000000
    166 O3    c       0.000378      0.000082     -0.001293      0.000000
    167 O2    c       0.000043      0.000016     -0.000516      0.000000
    168 O2    c       0.001197     -0.000206      0.000171      0.000000
    169 O2    c       0.000914      0.000307      0.000649      0.000000
    170 O2    c       0.001842     -0.000916     -0.000903      0.000000
    171 O2    c      -0.000406     -0.000531      0.000644      0.000000
    172 O2    c      -0.000466      0.000024      0.000480      0.000000
    173 O2    c       0.000213     -0.000346      0.000065      0.000000
    174 O2    c       0.000612      0.000252      0.000520      0.000000
    175 O2    c       0.000648      0.000175      0.000197      0.000000
    176 O3    c       0.000477     -0.000440     -0.000646      0.000000
    177 O2    c      -0.000175     -0.000334     -0.000153      0.000000
    178 O2    c      -0.000134     -0.000080      0.000362      0.000000
    179 O2    c       0.001286      0.000093      0.000909      0.000000
    180 O2    c       0.000694      0.000397     -0.000829      0.000000
    181 F     c       0.000521      0.000461      0.000658      0.000000
    182 F     c      -0.000404     -0.000284      0.000601      0.000000
    183 F     c      -0.000090      0.000270     -0.000264      0.000000
    184 F     c      -0.000284     -0.000267      0.000019      0.000000
    185 F     c      -0.002133     -0.000506     -0.005919      0.000000
    186 F     c       0.000081     -0.000055      0.000627      0.000000
    187 O2    s       0.000508     -0.000447     -0.000935      0.000000
    188 O2    s       0.000510      0.000989     -0.000533      0.000000
    189 O2    s      -0.000595     -0.000143      0.000805      0.000000
    190 O2    s      -0.000073     -0.000195     -0.001309      0.000000
    191 O2    s      -0.000048     -0.000059     -0.000057      0.000000
    192 O2    s      -0.000195     -0.000099      0.001995      0.000000
    193 O2    s       0.001485      0.000422     -0.000516      0.000000
    194 O2    s      -0.000210     -0.000570      0.001263      0.000000
    195 O2    s       0.000520      0.000438     -0.000173      0.000000
    196 O2    s      -0.000697      0.000125     -0.000398      0.000000
    197 O2    s      -0.000037      0.000533      0.005617      0.000000
    198 O2    s      -0.000077     -0.000167     -0.000074      0.000000
    199 O3    s      -0.000631     -0.000240     -0.000925      0.000000
    200 O3    s      -0.000819     -0.000125     -0.000911      0.000000
    201 O2    s      -0.000024      0.000665     -0.000204      0.000000
    202 O2    s       0.000498     -0.000170      0.000536      0.000000
    203 O2    s       0.000733     -0.000158      0.000410      0.000000
    204 O2    s       0.000274      0.000196      0.000327      0.000000
    205 O2    s       0.000702     -0.000531     -0.001457      0.000000
    206 O2    s       0.000717      0.000179     -0.001402      0.000000
    207 O2    s      -0.000501     -0.000148      0.000666      0.000000
    208 O2    s       0.000394     -0.000139     -0.000632      0.000000
    209 O2    s      -0.000086      0.000133     -0.000525      0.000000
    210 O2    s       0.000843      0.000147      0.002018      0.000000
    211 O2    s       0.000695      0.000443      0.000840      0.000000
    212 O2    s       0.001190     -0.000026     -0.004549      0.000000
    213 O2    s      -0.000368     -0.000584      0.001231      0.000000
    214 O2    s      -0.000084      0.000012      0.001099      0.000000
    215 O2    s       0.000226      0.000160     -0.000708      0.000000
    216 O2    s       0.000699      0.000294      0.002169      0.000000
    217 O2    s       0.000703      0.000285      0.000057      0.000000
    218 O2    s       0.000031     -0.000141     -0.000308      0.000000
    219 O2    s       0.000445     -0.000109     -0.000889      0.000000
    220 O2    s      -0.000491     -0.000398      0.000142      0.000000
    221 O2    s       0.000349     -0.000041      0.001298      0.000000
    222 O2    s       0.000447     -0.000315      0.000457      0.000000
    223 O2    s       0.000592      0.000560     -0.002288      0.000000
    224 O2    s       0.000359      0.000682      0.000848      0.000000
    225 O2    s      -0.000154     -0.000171      0.001420      0.000000
    226 O2    s       0.000378     -0.000197     -0.000049      0.000000
    227 O2    s      -0.000422     -0.000208      0.000999      0.000000
    228 O2    s       0.000397     -0.000148      0.002006      0.000000
    229 O2    s       0.000667      0.000636     -0.001328      0.000000
    230 O2    s      -0.000134     -0.000360     -0.000455      0.000000
    231 O2    s      -0.000602     -0.000489      0.000502      0.000000
    232 O2    s      -0.000018      0.000196     -0.000999      0.000000
    233 O3    s       0.000829      0.000453     -0.000345      0.000000
    234 O2    s       0.001842     -0.000536      0.002290      0.000000
    235 O2    s       0.001362      0.000147     -0.000452      0.000000
    236 O2    s       0.000738     -0.000370      0.000901      0.000000
    237 O2    s       0.000319      0.000587      0.000206      0.000000
    238 O2    s      -0.000668     -0.000002     -0.000206      0.000000
    239 O3    s      -0.003607     -0.001300      0.007960      0.000000
    240 O2    s      -0.000046     -0.000010      0.000137      0.000000
    241 O2    s       0.000110     -0.000411     -0.000991      0.000000
    242 O2    s       0.000628      0.000218     -0.000214      0.000000
    243 O3    s      -0.000809      0.000322     -0.001015      0.000000
    244 O2    s       0.000637     -0.000099     -0.000636      0.000000
    245 O2    s       0.000095      0.000103     -0.000371      0.000000
    246 O2    s       0.001236      0.000317      0.001312      0.000000
    247 O2    s       0.001326      0.000364      0.000697      0.000000
    248 O2    s       0.001075      0.000299     -0.003477      0.000000
    249 O2    s      -0.000502     -0.000488      0.001227      0.000000
    250 O2    s      -0.000460     -0.000076      0.001038      0.000000
    251 O2    s       0.000225     -0.000197     -0.000502      0.000000
    252 O2    s       0.000309      0.000652      0.001855      0.000000
    253 O3    s       0.002750     -0.001861     -0.007425      0.000000
    254 O2    s       0.000333      0.000429      0.001028      0.000000
    255 O2    s      -0.000382     -0.000173      0.001124      0.000000
    256 O2    s       0.000102     -0.000361     -0.000168      0.000000
    257 O2    s      -0.000170      0.000145      0.000871      0.000000
    258 O2    s       0.000787     -0.000353      0.001749      0.000000
    259 O2    s       0.000964      0.000574     -0.000351      0.000000
    260 O2    s       0.000429     -0.000255     -0.000894      0.000000
    261 O2    s      -0.000184     -0.000590      0.000493      0.000000
    262 O2    s      -0.000410      0.000091     -0.000842      0.000000
    263 O3    s       0.000178     -0.000092     -0.000632      0.000000
    264 O2    s       0.001111     -0.000221      0.002883      0.000000
    265 O3    s      -0.003368      0.001989     -0.007552      0.000000
    266 O2    s       0.000368      0.000467      0.000433      0.000000
    267 O2    s      -0.000533     -0.000346      0.001086      0.000000
    268 O2    s       0.000318     -0.000409      0.000318      0.000000
    269 O2    s      -0.000107      0.000240      0.000911      0.000000
    270 O2    s       0.000794      0.000202      0.000903      0.000000
    271 O2    s       0.001299     -0.000227     -0.000742      0.000000
    272 O2    s       0.000608      0.000004     -0.000848      0.000000
    273 O2    s      -0.000197     -0.000080      0.000452      0.000000
    274 O2    s      -0.000100      0.000189     -0.000938      0.000000
    275 O2    s       0.000033     -0.000034     -0.000507      0.000000
    276 O2    s       0.001747     -0.000267      0.003518      0.000000
    277 O2    s       0.000332     -0.000431      0.000335      0.000000
    278 O2    s       0.000932     -0.000306      0.000399      0.000000
    279 O2    s      -0.000713      0.000128     -0.000024      0.000000
    280 O2    s       0.000544      0.000731      0.000367      0.000000
    281 O2    s      -0.000132      0.000032      0.000441      0.000000
    282 O2    s       0.001077      0.000299      0.000476      0.000000
    283 O3    s       0.000863      0.000241     -0.000572      0.000000
    284 O2    s       0.002000      0.002056      0.007346      0.000000
    285 O2    s      -0.000667     -0.000325     -0.000024      0.000000
    286 O2    s       0.000351     -0.000231     -0.000098      0.000000
    287 O2    s      -0.000068     -0.000977      0.000105      0.000000
    288 O2    s       0.000724      0.001251     -0.000374      0.000000
    289 O2    s       0.000559     -0.000067     -0.001247      0.000000
    290 O2    s       0.000166      0.001227     -0.000747      0.000000
    291 O3    s      -0.000458     -0.000521      0.000517      0.000000
    292 O3    s       0.000851     -0.000044     -0.000527      0.000000
    293 O2    s      -0.000157      0.000137     -0.000750      0.000000
    294 O2    s       0.001159     -0.000386     -0.000352      0.000000
    295 O2    s       0.000705      0.000825      0.000685      0.000000
    296 O2    s       0.002363      0.000371     -0.001539      0.000000
    297 O2    s      -0.000489     -0.000372      0.001393      0.000000
    298 O2    s      -0.000403     -0.000271      0.000980      0.000000
    299 O2    s      -0.000327      0.000094     -0.000290      0.000000
    300 O2    s       0.000412     -0.000051      0.001494      0.000000
    301 O2    s       0.000322      0.000589      0.001006      0.000000
    302 O3    s      -0.001046      0.000195     -0.000708      0.000000
    303 O2    s      -0.000848     -0.000447     -0.000463      0.000000
    304 O2    s      -0.000236     -0.000192      0.000355      0.000000
    305 O2    s       0.001434      0.001156      0.000533      0.000000
    306 O2    s       0.001379      0.000469     -0.001174      0.000000
    307 F     s       0.000636      0.000592      0.000063      0.000000
    308 F     s      -0.000542     -0.000277      0.000468      0.000000
    309 F     s       0.000257     -0.000127     -0.000029      0.000000
    310 F     s      -0.000450     -0.000263      0.000120      0.000000
    311 F     s      -0.002326      0.000764     -0.009256      0.000000
    312 F     s       0.000025     -0.000059      0.001011      0.000000
--------------------------------------------------------------------------------
  Maximum abs         0.003607      0.002134      0.009256      0.000000
--------------------------------------------------------------------------------


  Time to end of optimisation =      60.1782 seconds


  Peak dynamic memory used =      19.13 MB 


  Timing analysis for GULP :

--------------------------------------------------------------------------------
  Task / Subroutine                                          Time (Seconds)
--------------------------------------------------------------------------------
  Calculation of reciprocal space energy and derivatives          1.5179
  Calculation of real space energy and derivatives               52.4914
  Calculation of three-body energy and derivatives                5.3234
  Calculation of matrix inversion                                 0.7450
--------------------------------------------------------------------------------
  Total CPU time                                                 60.1782
--------------------------------------------------------------------------------


  Dump file written as out.res                                                 
  CIF file written as out.cif                                                 


  Job Finished at 20:44.13 29th October    2016                               

