********************************************************************************
*                       GENERAL UTILITY LATTICE PROGRAM                        *
*                                 Julian Gale                                  *
*                      Nanochemistry Research Institute                        *
*                           Department of Chemistry                            *
*                    Curtin University, Western Australia                      *
********************************************************************************
* Version = 4.2.0 * Last modified =  20th January 2014                         *
********************************************************************************
*  optimise     - perform optimisation run                                     *
*  conp         - constant pressure calculation                                *
*  qok          - running with non charge neutral cell is OK                   *
********************************************************************************

  Job Started  at 16:41.38 30th October    2016                               

  Number of CPUs =     1


  Total number of configurations input =   1

********************************************************************************
*  Input for Configuration =   1                                               *
********************************************************************************

  Formula = Ge3Si57O120F6                                               

  Number of irreducible atoms/shells =     312


  Total number atoms/shells =     312

  Dimensionality = 3               :  Bulk   


  Charge on solid   =  -6.000000 =>neutralising background added


  Cartesian lattice vectors (Angstroms) :

       11.898264    0.000000    0.000000
       -5.999813   10.406530    0.000000
        0.092410   -0.314309   29.521817

  Cell parameters (Angstroms/Degrees):

  a =      11.8983    alpha =  90.6180
  b =      12.0122    beta  =  89.8207
  c =      29.5236    gamma = 119.9653

  Initial cell volume =        3655.380772 Angs**3

  Temperature of configuration =  0.000     K 

  Pressure of configuration =         0.000 GPa 

  Fractional coordinates of asymmetric unit :

--------------------------------------------------------------------------------
   No.  Atomic       x           y          z         Charge      Occupancy
        Label      (Frac)      (Frac)     (Frac)        (e)         (Frac)  
--------------------------------------------------------------------------------
      1 Ge    c    0.699600    0.375700    0.033890     4.00000    1.000000    
      2 Si    c    0.620394 *  0.323760 *  0.364885 *   4.00000    1.000000    
      3 Si    c    0.675766 *  0.300645 *  0.697296 *   4.00000    1.000000    
      4 Si    c    0.304247 *  0.620362 *  0.527926 *   4.00000    1.000000    
      5 Si    c    0.380848 *  0.669263 *  0.862016 *   4.00000    1.000000    
      6 Si    c    0.319443 *  0.706276 *  0.193077 *   4.00000    1.000000    
      7 Si    c    0.373141 *  0.697927 *  0.293174 *   4.00000    1.000000    
      8 Si    c    0.320080 *  0.619855 *  0.961281 *   4.00000    1.000000    
      9 Si    c    0.297708 *  0.673276 *  0.629315 *   4.00000    1.000000    
     10 Si    c    0.625655 *  0.303118 *  0.800197 *   4.00000    1.000000    
     11 Si    c    0.676359 *  0.380403 *  0.466863 *   4.00000    1.000000    
     12 Si    c    0.686112 *  0.320206 *  0.132342 *   4.00000    1.000000    
     13 Si    c    0.531682 *  0.420542 *  0.967002 *   4.00000    1.000000    
     14 Si    c    0.580115 *  0.109245 *  0.300641 *   4.00000    1.000000    
     15 Si    c    0.888511 *  0.468941 *  0.631698 *   4.00000    1.000000    
     16 Ge    c    0.468846 *  0.567307 *  0.459654 *   4.00000    1.000000    
     17 Si    c    0.410840 *  0.876841 *  0.798036 *   4.00000    1.000000    
     18 Si    c    0.107617 *  0.533690 *  0.126746 *   4.00000    1.000000    
     19 Si    c    0.404947 *  0.529619 *  0.360447 *   4.00000    1.000000    
     20 Si    c    0.102229 *  0.580254 *  0.023823 *   4.00000    1.000000    
     21 Si    c    0.466798 *  0.885025 *  0.694479 *   4.00000    1.000000    
     22 Si    c    0.591969 *  0.473240 *  0.865548 *   4.00000    1.000000    
     23 Si    c    0.890573 *  0.419263 *  0.530602 *   4.00000    1.000000    
     24 Si    c    0.528506 *  0.115179 *  0.199938 *   4.00000    1.000000    
     25 Si    c    0.307005 *  0.393141 *  0.847663 *   4.00000    1.000000    
     26 Si    c    0.600573 *  0.908438 *  0.181577 *   4.00000    1.000000    
     27 Si    c    0.099477 *  0.697771 *  0.515723 *   4.00000    1.000000    
     28 Si    c    0.694910 *  0.602681 *  0.348900 *   4.00000    1.000000    
     29 Si    c    0.393808 *  0.097124 *  0.678644 *   4.00000    1.000000    
     30 Si    c    0.888990 *  0.292444 *  0.010413 *   4.00000    1.000000    
     31 Si    c    0.390670 *  0.297082 *  0.483510 *   4.00000    1.000000    
     32 Si    c    0.891902 *  0.604697 *  0.141219 *   4.00000    1.000000    
     33 Si    c    0.696836 *  0.092702 *  0.813263 *   4.00000    1.000000    
     34 Si    c    0.598372 *  0.700725 *  0.978799 *   4.00000    1.000000    
     35 Si    c    0.097779 *  0.396169 *  0.644781 *   4.00000    1.000000    
     36 Si    c    0.298411 *  0.899537 *  0.311479 *   4.00000    1.000000    
     37 Si    c    0.251360 *  0.341042 *  0.948034 *   4.00000    1.000000    
     38 Si    c    0.656500 *  0.908576 *  0.282017 *   4.00000    1.000000    
     39 Si    c    0.088247 *  0.746535 *  0.616279 *   4.00000    1.000000    
     40 Si    c    0.749807 *  0.665507 *  0.450978 *   4.00000    1.000000    
     41 Ge    c    0.358285 *  0.087959 *  0.778418 *   4.00000    1.000000    
     42 Si    c    0.903018 *  0.251784 *  0.113200 *   4.00000    1.000000    
     43 Si    c    0.332387 *  0.251646 *  0.380438 *   4.00000    1.000000    
     44 Si    c    0.897069 *  0.660161 *  0.038848 *   4.00000    1.000000    
     45 Si    c    0.748722 *  0.087492 *  0.711265 *   4.00000    1.000000    
     46 Si    c    0.664222 *  0.750296 *  0.878845 *   4.00000    1.000000    
     47 Si    c    0.091280 *  0.340120 *  0.543804 *   4.00000    1.000000    
     48 Si    c    0.247426 *  0.913696 *  0.211650 *   4.00000    1.000000    
     49 Si    c    0.973351 *  0.120974 *  0.962337 *   4.00000    1.000000    
     50 Si    c    0.875622 *  0.847177 *  0.297382 *   4.00000    1.000000    
     51 Si    c    0.146025 *  0.024230 *  0.629766 *   4.00000    1.000000    
     52 Si    c    0.034543 *  0.876735 *  0.464211 *   4.00000    1.000000    
     53 Si    c    0.128515 *  0.144049 *  0.795999 *   4.00000    1.000000    
     54 Si    c    0.848637 *  0.976760 *  0.130126 *   4.00000    1.000000    
     55 Si    c    0.119934 *  0.968490 *  0.363064 *   4.00000    1.000000    
     56 Si    c    0.847745 *  0.883989 *  0.028751 *   4.00000    1.000000    
     57 Si    c    0.031649 *  0.151348 *  0.696226 *   4.00000    1.000000    
     58 Si    c    0.882806 *  0.027142 *  0.861529 *   4.00000    1.000000    
     59 Si    c    0.144289 *  0.114942 *  0.530358 *   4.00000    1.000000    
     60 Si    c    0.967018 *  0.853122 *  0.195218 *   4.00000    1.000000    
     61 O2    c    0.928418 *  0.005080 *  0.997044 *   0.87073    1.000000    
     62 O2    c    0.997884 *  0.928261 *  0.330106 *   0.87073    1.000000    
     63 O2    c    0.070056 *  0.068440 *  0.663561 *   0.87073    1.000000    
     64 O2    c    0.068277 *  0.998520 *  0.495443 *   0.87073    1.000000    
     65 O2    c    0.001765 *  0.070349 *  0.828012 *   0.87073    1.000000    
     66 O2    c    0.928304 *  0.938167 *  0.164423 *   0.87073    1.000000    
     67 O2    c    0.333423 *  0.570294 *  0.322394 *   0.87073    1.000000    
     68 O2    c    0.421821 *  0.760880 *  0.661823 *   0.87073    1.000000    
     69 O2    c    0.229146 *  0.655985 *  0.992579 *   0.87073    1.000000    
     70 O2    c    0.674191 *  0.427551 *  0.833749 *   0.87073    1.000000    
     71 O2    c    0.579029 *  0.244588 *  0.171204 *   0.87073    1.000000    
     72 O2    c    0.763139 *  0.343176 *  0.498043 *   0.87073    1.000000    
     73 O3    c    0.566162 *  0.338252 *  0.999529 *   1.33043    1.000000    
     74 O2    c    0.763568 *  0.421059 *  0.664903 *   0.87073    1.000000    
     75 O2    c    0.656126 *  0.234663 *  0.333638 *   0.87073    1.000000    
     76 O3    c    0.421307 *  0.656311 *  0.495463 *   1.33043    1.000000    
     77 O2    c    0.234591 *  0.586367 *  0.158792 *   0.87073    1.000000    
     78 O2    c    0.341125 *  0.747902 *  0.827641 *   0.87073    1.000000    
     79 O2    c    0.127144 *  0.213943 *  0.968598 *   0.87073    1.000000    
     80 O2    c    0.782853 *  0.908844 *  0.302567 *   0.87073    1.000000    
     81 O2    c    0.086001 *  0.871465 *  0.636624 *   0.87073    1.000000    
     82 O2    c    0.882009 *  0.784074 *  0.470000 *   0.87073    1.000000    
     83 O3    c    0.212230 *  0.078463 *  0.799986 *   1.33043    1.000000    
     84 O2    c    0.908880 *  0.130681 *  0.134455 *   0.87073    1.000000    
     85 O2    c    0.211279 *  0.122564 *  0.359100 *   0.87073    1.000000    
     86 O2    c    0.914659 *  0.796940 *  0.022744 *   0.87073    1.000000    
     87 O2    c    0.875960 *  0.091115 *  0.690661 *   0.87073    1.000000    
     88 O2    c    0.790226 *  0.873299 *  0.857528 *   0.87073    1.000000    
     89 O2    c    0.089406 *  0.212551 *  0.523649 *   0.87073    1.000000    
     90 O2    c    0.122314 *  0.916321 *  0.191411 *   0.87073    1.000000    
     91 O2    c    0.925166 *  0.857324 *  0.246474 *   0.87073    1.000000    
     92 O2    c    0.118955 *  0.056736 *  0.579973 *   0.87073    1.000000    
     93 O2    c    0.937353 *  0.065068 *  0.912065 *   0.87073    1.000000    
     94 O2    c    0.069181 *  0.139758 *  0.746567 *   0.87073    1.000000    
     95 O2    c    0.862359 *  0.935105 *  0.080103 *   0.87073    1.000000    
     96 O2    c    0.069636 *  0.926426 *  0.413312 *   0.87073    1.000000    
     97 O2    c    0.901038 *  0.201014 *  0.972680 *   0.87073    1.000000    
     98 O2    c    0.793286 *  0.696650 *  0.310321 *   0.87073    1.000000    
     99 O2    c    0.301469 *  0.094923 *  0.637151 *   0.87073    1.000000    
    100 O2    c    0.106633 *  0.798246 *  0.477403 *   0.87073    1.000000    
    101 O2    c    0.214341 *  0.296381 *  0.808611 *   0.87073    1.000000    
    102 O2    c    0.696530 *  0.907599 *  0.142717 *   0.87073    1.000000    
    103 O2    c    0.200264 *  0.897575 *  0.350003 *   0.87073    1.000000    
    104 O2    c    0.694665 *  0.801349 *  0.017485 *   0.87073    1.000000    
    105 O2    c    0.101396 *  0.301191 *  0.682700 *   0.87073    1.000000    
    106 O2    c    0.796424 *  0.093950 *  0.850691 *   0.87073    1.000000    
    107 O2    c    0.297970 *  0.188065 *  0.519564 *   0.87073    1.000000    
    108 O2    c    0.897199 *  0.704221 *  0.179939 *   0.87073    1.000000    
    109 O2    c    0.317218 *  0.645609 *  0.242328 *   0.87073    1.000000    
    110 O2    c    0.354982 *  0.671841 *  0.579623 *   0.87073    1.000000    
    111 O2    c    0.319384 *  0.674931 *  0.911123 *   0.87073    1.000000    
    112 O2    c    0.675591 *  0.352951 *  0.748343 *   0.87073    1.000000    
    113 O3    c    0.613252 *  0.304824 *  0.085757 *   1.33043    1.000000    
    114 O2    c    0.675480 *  0.330029 *  0.415313 *   0.87073    1.000000    
    115 O2    c    0.373918 *  0.334525 *  0.967072 *   0.87073    1.000000    
    116 O2    c    0.666620 *  0.039221 *  0.302731 *   0.87073    1.000000    
    117 O2    c    0.956893 *  0.624482 *  0.635516 *   0.87073    1.000000    
    118 O3    c    0.636241 *  0.684588 *  0.469237 *   1.33043    1.000000    
    119 O3    c    0.321228 *  0.939323 *  0.802985 *   1.33043    1.000000    
    120 O2    c    0.035675 *  0.378638 *  0.129527 *   0.87073    1.000000    
    121 O2    c    0.322007 *  0.371496 *  0.360753 *   0.87073    1.000000    
    122 O2    c    0.031064 *  0.664788 *  0.023112 *   0.87073    1.000000    
    123 O2    c    0.624192 *  0.957566 *  0.692888 *   0.87073    1.000000    
    124 O2    c    0.677166 *  0.628540 *  0.862249 *   0.87073    1.000000    
    125 O2    c    0.956228 *  0.329128 *  0.526585 *   0.87073    1.000000    
    126 O2    c    0.371623 *  0.046674 *  0.195569 *   0.87073    1.000000    
    127 O3    c    0.753019 *  0.281910 *  0.002420 *   1.33043    1.000000    
    128 O2    c    0.691736 *  0.466526 *  0.343560 *   0.87073    1.000000    
    129 O2    c    0.531993 *  0.231020 *  0.674761 *   0.87073    1.000000    
    130 O2    c    0.232304 *  0.695950 *  0.508620 *   0.87073    1.000000    
    131 O2    c    0.307304 *  0.526506 *  0.839531 *   0.87073    1.000000    
    132 O2    c    0.464781 *  0.776758 *  0.172147 *   0.87073    1.000000    
    133 O2    c    0.298628 *  0.765672 *  0.317093 *   0.87073    1.000000    
    134 O2    c    0.462023 *  0.699458 *  0.985573 *   0.87073    1.000000    
    135 O2    c    0.229886 *  0.532240 *  0.652480 *   0.87073    1.000000    
    136 O2    c    0.696607 *  0.226462 *  0.819151 *   0.87073    1.000000    
    137 O2    c    0.530248 *  0.302969 *  0.486436 *   0.87073    1.000000    
    138 O2    c    0.760918 *  0.470058 *  0.150376 *   0.87073    1.000000    
    139 O3    c    0.770986 *  0.545185 *  0.018315 *   1.33043    1.000000    
    140 O2    c    0.465170 *  0.260222 *  0.363214 *   0.87073    1.000000    
    141 O2    c    0.739968 *  0.209964 *  0.694972 *   0.87073    1.000000    
    142 O2    c    0.214336 *  0.464108 *  0.523157 *   0.87073    1.000000    
    143 O2    c    0.538306 *  0.748905 *  0.858057 *   0.87073    1.000000    
    144 O2    c    0.245219 *  0.788292 *  0.190211 *   0.87073    1.000000    
    145 O2    c    0.530041 *  0.779708 *  0.299139 *   0.87073    1.000000    
    146 O2    c    0.244329 *  0.464534 *  0.966941 *   0.87073    1.000000    
    147 O2    c    0.216618 *  0.748705 *  0.634819 *   0.87073    1.000000    
    148 O3    c    0.472197 *  0.230733 *  0.806691 *   1.33043    1.000000    
    149 O2    c    0.740146 *  0.534081 *  0.469690 *   0.87073    1.000000    
    150 O2    c    0.779870 *  0.256482 *  0.133443 *   0.87073    1.000000    
    151 O2    c    0.233350 *  0.321620 *  0.893827 *   0.87073    1.000000    
    152 O2    c    0.675091 *  0.910502 *  0.227744 *   0.87073    1.000000    
    153 O2    c    0.089987 *  0.765829 *  0.562102 *   0.87073    1.000000    
    154 O2    c    0.762218 *  0.673139 *  0.395850 *   0.87073    1.000000    
    155 O3    c    0.311039 *  0.093103 *  0.721549 *   1.33043    1.000000    
    156 O2    c    0.898199 *  0.233229 *  0.059135 *   0.87073    1.000000    
    157 O2    c    0.318610 *  0.238352 *  0.434530 *   0.87073    1.000000    
    158 O2    c    0.891368 *  0.669874 *  0.094247 *   0.87073    1.000000    
    159 O2    c    0.759320 *  0.086292 *  0.765386 *   0.87073    1.000000    
    160 O2    c    0.677666 *  0.771575 *  0.933244 *   0.87073    1.000000    
    161 O2    c    0.095905 *  0.323955 *  0.597955 *   0.87073    1.000000    
    162 O2    c    0.227273 *  0.907179 *  0.265865 *   0.87073    1.000000    
    163 O2    c    0.583247 *  0.562832 *  0.989151 *   0.87073    1.000000    
    164 O2    c    0.437382 *  0.024956 *  0.322687 *   0.87073    1.000000    
    165 O2    c    0.969342 *  0.406958 *  0.653946 *   0.87073    1.000000    
    166 O3    c    0.397591 *  0.428016 *  0.495585 *   1.33043    1.000000    
    167 O2    c    0.554963 *  0.970149 *  0.819948 *   0.87073    1.000000    
    168 O2    c    0.016404 *  0.586194 *  0.146816 *   0.87073    1.000000    
    169 O2    c    0.552275 *  0.582151 *  0.341177 *   0.87073    1.000000    
    170 O2    c    0.010288 *  0.437390 *  0.003851 *   0.87073    1.000000    
    171 O2    c    0.414575 *  0.973941 *  0.672602 *   0.87073    1.000000    
    172 O2    c    0.450732 *  0.413600 *  0.841954 *   0.87073    1.000000    
    173 O2    c    0.971846 *  0.558782 *  0.506601 *   0.87073    1.000000    
    174 O2    c    0.588043 *  0.034899 *  0.174970 *   0.87073    1.000000    
    175 O2    c    0.581398 *  0.165435 *  0.250958 *   0.87073    1.000000    
    176 O2    c    0.832307 *  0.416845 *  0.580868 *   0.87073    1.000000    
    177 O2    c    0.590247 *  0.424204 *  0.916572 *   0.87073    1.000000    
    178 O2    c    0.416052 *  0.835417 *  0.745220 *   0.87073    1.000000    
    179 O2    c    0.150632 *  0.578343 *  0.075323 *   0.87073    1.000000    
    180 O3    c    0.397506 *  0.586589 *  0.408197 *   1.33043    1.000000    
    181 F     c    0.449136 *  0.905669 *  0.247079 *   0.56000    1.000000    
    182 F     c    0.089274 *  0.543207 *  0.580978 *   0.56000    1.000000    
    183 F     c    0.451086 *  0.554294 *  0.914355 *   0.56000    1.000000    
    184 F     c    0.509118 *  0.092199 *  0.751778 *   0.56000    1.000000    
    185 F     c    0.851349 *  0.435370 *  0.069548 *   0.56000    1.000000    
    186 F     c    0.524518 *  0.475191 *  0.423160 *   0.56000    1.000000    
    187 O2    s    0.924264 *  0.004319 *  0.996759 *  -2.87073    1.000000    
    188 O2    s    0.997641 *  0.923651 *  0.330073 *  -2.87073    1.000000    
    189 O2    s    0.074292 *  0.072754 *  0.663404 *  -2.87073    1.000000    
    190 O2    s    0.073057 *  0.997806 *  0.495826 *  -2.87073    1.000000    
    191 O2    s    0.001163 *  0.073041 *  0.828555 *  -2.87073    1.000000    
    192 O2    s    0.923936 *  0.932970 *  0.164102 *  -2.87073    1.000000    
    193 O2    s    0.344687 *  0.579443 *  0.323153 *  -2.87073    1.000000    
    194 O2    s    0.413908 *  0.764968 *  0.661924 *  -2.87073    1.000000    
    195 O2    s    0.224619 *  0.644282 *  0.992802 *  -2.87073    1.000000    
    196 O2    s    0.661226 *  0.419671 *  0.833538 *  -2.87073    1.000000    
    197 O2    s    0.584722 *  0.238546 *  0.170250 *  -2.87073    1.000000    
    198 O2    s    0.766501 *  0.354766 *  0.497920 *  -2.87073    1.000000    
    199 O3    s    0.572799 *  0.349732 *  0.998771 *  -3.33043    1.000000    
    200 O2    s    0.766956 *  0.413230 *  0.664962 *  -2.87073    1.000000    
    201 O2    s    0.644658 *  0.231370 *  0.333602 *  -2.87073    1.000000    
    202 O3    s    0.411656 *  0.646157 *  0.496557 *  -3.33043    1.000000    
    203 O2    s    0.229984 *  0.593124 *  0.158958 *  -2.87073    1.000000    
    204 O2    s    0.352773 *  0.753477 *  0.828069 *  -2.87073    1.000000    
    205 O2    s    0.123150 *  0.216853 *  0.965842 *  -2.87073    1.000000    
    206 O2    s    0.779588 *  0.902219 *  0.299900 *  -2.87073    1.000000    
    207 O2    s    0.092553 *  0.874621 *  0.633819 *  -2.87073    1.000000    
    208 O2    s    0.884670 *  0.781409 *  0.467256 *  -2.87073    1.000000    
    209 O3    s    0.212305 *  0.086595 *  0.798118 *  -3.33043    1.000000    
    210 O2    s    0.901977 *  0.127046 *  0.131838 *  -2.87073    1.000000    
    211 O2    s    0.214213 *  0.119712 *  0.361713 *  -2.87073    1.000000    
    212 O2    s    0.905619 *  0.792352 *  0.025023 *  -2.87073    1.000000    
    213 O2    s    0.878210 *  0.096913 *  0.693426 *  -2.87073    1.000000    
    214 O2    s    0.786970 *  0.876894 *  0.860142 *  -2.87073    1.000000    
    215 O2    s    0.095397 *  0.215221 *  0.526385 *  -2.87073    1.000000    
    216 O2    s    0.118759 *  0.909294 *  0.193905 *  -2.87073    1.000000    
    217 O2    s    0.924248 *  0.855722 *  0.246495 *  -2.87073    1.000000    
    218 O2    s    0.124868 *  0.059766 *  0.579847 *  -2.87073    1.000000    
    219 O2    s    0.935342 *  0.067202 *  0.912145 *  -2.87073    1.000000    
    220 O2    s    0.071074 *  0.141577 *  0.745888 *  -2.87073    1.000000    
    221 O2    s    0.859193 *  0.934384 *  0.080293 *  -2.87073    1.000000    
    222 O2    s    0.071541 *  0.925750 *  0.413179 *  -2.87073    1.000000    
    223 O2    s    0.907653 *  0.202012 *  0.975573 *  -2.87073    1.000000    
    224 O2    s    0.791835 *  0.702758 *  0.312905 *  -2.87073    1.000000    
    225 O2    s    0.294388 *  0.087812 *  0.640392 *  -2.87073    1.000000    
    226 O2    s    0.098175 *  0.796702 *  0.479775 *  -2.87073    1.000000    
    227 O2    s    0.215558 *  0.291340 *  0.811493 *  -2.87073    1.000000    
    228 O2    s    0.702690 *  0.915032 *  0.145430 *  -2.87073    1.000000    
    229 O2    s    0.201845 *  0.905371 *  0.347382 *  -2.87073    1.000000    
    230 O2    s    0.701364 *  0.800190 *  0.014862 *  -2.87073    1.000000    
    231 O2    s    0.093653 *  0.295150 *  0.680216 *  -2.87073    1.000000    
    232 O2    s    0.794850 *  0.086938 *  0.847883 *  -2.87073    1.000000    
    233 O2    s    0.291323 *  0.191461 *  0.517038 *  -2.87073    1.000000    
    234 O2    s    0.904133 *  0.709962 *  0.177594 *  -2.87073    1.000000    
    235 O2    s    0.323138 *  0.657207 *  0.242437 *  -2.87073    1.000000    
    236 O2    s    0.343921 *  0.666877 *  0.579761 *  -2.87073    1.000000    
    237 O2    s    0.325627 *  0.668719 *  0.911360 *  -2.87073    1.000000    
    238 O2    s    0.670746 *  0.342744 *  0.748095 *  -2.87073    1.000000    
    239 O3    s    0.626447 *  0.311039 *  0.087170 *  -3.33043    1.000000    
    240 O2    s    0.669733 *  0.334473 *  0.415166 *  -2.87073    1.000000    
    241 O2    s    0.376327 *  0.344062 *  0.964924 *  -2.87073    1.000000    
    242 O2    s    0.656586 *  0.032995 *  0.300368 *  -2.87073    1.000000    
    243 O2    s    0.963484 *  0.621095 *  0.633111 *  -2.87073    1.000000    
    244 O3    s    0.637292 *  0.674606 *  0.466576 *  -3.33043    1.000000    
    245 O3    s    0.333204 *  0.943501 *  0.800677 *  -3.33043    1.000000    
    246 O2    s    0.029491 *  0.381744 *  0.127551 *  -2.87073    1.000000    
    247 O2    s    0.331058 *  0.374146 *  0.362796 *  -2.87073    1.000000    
    248 O2    s    0.025153 *  0.655319 *  0.024781 *  -2.87073    1.000000    
    249 O2    s    0.621334 *  0.963990 *  0.695014 *  -2.87073    1.000000    
    250 O2    s    0.666925 *  0.625329 *  0.864369 *  -2.87073    1.000000    
    251 O2    s    0.963260 *  0.339567 *  0.528778 *  -2.87073    1.000000    
    252 O2    s    0.374579 *  0.039563 *  0.197748 *  -2.87073    1.000000    
    253 O3    s    0.763893 *  0.289273 *  0.005444 *  -3.33043    1.000000    
    254 O2    s    0.684644 *  0.465704 *  0.346329 *  -2.87073    1.000000    
    255 O2    s    0.532905 *  0.224715 *  0.677512 *  -2.87073    1.000000    
    256 O2    s    0.224784 *  0.688609 *  0.511363 *  -2.87073    1.000000    
    257 O2    s    0.314969 *  0.527434 *  0.842775 *  -2.87073    1.000000    
    258 O2    s    0.463802 *  0.783164 *  0.175348 *  -2.87073    1.000000    
    259 O2    s    0.306219 *  0.772858 *  0.314023 *  -2.87073    1.000000    
    260 O2    s    0.461697 *  0.691547 *  0.982389 *  -2.87073    1.000000    
    261 O2    s    0.222911 *  0.532381 *  0.649261 *  -2.87073    1.000000    
    262 O2    s    0.689471 *  0.219947 *  0.816582 *  -2.87073    1.000000    
    263 O2    s    0.531484 *  0.310554 *  0.484037 *  -2.87073    1.000000    
    264 O2    s    0.767571 *  0.469818 *  0.147614 *  -2.87073    1.000000    
    265 O3    s    0.780763 *  0.547613 *  0.021491 *  -3.33043    1.000000    
    266 O2    s    0.467754 *  0.266248 *  0.365229 *  -2.87073    1.000000    
    267 O2    s    0.733984 *  0.206098 *  0.697006 *  -2.87073    1.000000    
    268 O2    s    0.209414 *  0.465915 *  0.525896 *  -2.87073    1.000000    
    269 O2    s    0.535682 *  0.740771 *  0.860702 *  -2.87073    1.000000    
    270 O2    s    0.253300 *  0.793152 *  0.192789 *  -2.87073    1.000000    
    271 O2    s    0.527493 *  0.785279 *  0.296693 *  -2.87073    1.000000    
    272 O2    s    0.252914 *  0.467534 *  0.964397 *  -2.87073    1.000000    
    273 O2    s    0.210983 *  0.740608 *  0.632279 *  -2.87073    1.000000    
    274 O3    s    0.479456 *  0.227444 *  0.803952 *  -3.33043    1.000000    
    275 O2    s    0.734006 *  0.530829 *  0.467463 *  -2.87073    1.000000    
    276 O2    s    0.784113 *  0.262392 *  0.131111 *  -2.87073    1.000000    
    277 O2    s    0.242870 *  0.331103 *  0.894802 *  -2.87073    1.000000    
    278 O2    s    0.665352 *  0.910084 *  0.228701 *  -2.87073    1.000000    
    279 O2    s    0.090748 *  0.756676 *  0.562949 *  -2.87073    1.000000    
    280 O2    s    0.753660 *  0.664733 *  0.396256 *  -2.87073    1.000000    
    281 O3    s    0.322833 *  0.093175 *  0.721081 *  -3.33043    1.000000    
    282 O2    s    0.897793 *  0.241022 *  0.060248 *  -2.87073    1.000000    
    283 O2    s    0.327041 *  0.245511 *  0.433355 *  -2.87073    1.000000    
    284 O2    s    0.891892 *  0.661649 *  0.094073 *  -2.87073    1.000000    
    285 O2    s    0.751535 *  0.087079 *  0.764532 *  -2.87073    1.000000    
    286 O2    s    0.668114 *  0.762084 *  0.932239 *  -2.87073    1.000000    
    287 O2    s    0.095615 *  0.333246 *  0.597157 *  -2.87073    1.000000    
    288 O2    s    0.236838 *  0.907072 *  0.264845 *  -2.87073    1.000000    
    289 O2    s    0.579394 *  0.563452 *  0.985756 *  -2.87073    1.000000    
    290 O2    s    0.437735 *  0.020451 *  0.319177 *  -2.87073    1.000000    
    291 O2    s    0.974657 *  0.412351 *  0.650664 *  -2.87073    1.000000    
    292 O3    s    0.401767 *  0.422951 *  0.491903 *  -3.33043    1.000000    
    293 O2    s    0.556272 *  0.974544 *  0.817041 *  -2.87073    1.000000    
    294 O2    s    0.012798 *  0.582452 *  0.144076 *  -2.87073    1.000000    
    295 O2    s    0.553440 *  0.579089 *  0.343939 *  -2.87073    1.000000    
    296 O2    s    0.007544 *  0.437922 *  0.006701 *  -2.87073    1.000000    
    297 O2    s    0.418061 *  0.977499 *  0.675548 *  -2.87073    1.000000    
    298 O2    s    0.450143 *  0.417943 *  0.845085 *  -2.87073    1.000000    
    299 O2    s    0.976992 *  0.559038 *  0.510014 *  -2.87073    1.000000    
    300 O2    s    0.583049 *  0.029456 *  0.178271 *  -2.87073    1.000000    
    301 O2    s    0.575700 *  0.154152 *  0.250922 *  -2.87073    1.000000    
    302 O2    s    0.844025 *  0.422439 *  0.580925 *  -2.87073    1.000000    
    303 O2    s    0.584594 *  0.429045 *  0.916271 *  -2.87073    1.000000    
    304 O2    s    0.420919 *  0.844802 *  0.745040 *  -2.87073    1.000000    
    305 O2    s    0.141107 *  0.573695 *  0.075688 *  -2.87073    1.000000    
    306 O3    s    0.402867 *  0.579306 *  0.406498 *  -3.33043    1.000000    
    307 F     s    0.448960 *  0.905496 *  0.247123 *  -1.56000    1.000000    
    308 F     s    0.088623 *  0.542953 *  0.581074 *  -1.56000    1.000000    
    309 F     s    0.450508 *  0.555291 *  0.914425 *  -1.56000    1.000000    
    310 F     s    0.500504 *  0.092232 *  0.753219 *  -1.56000    1.000000    
    311 F     s    0.841124 *  0.431324 *  0.067374 *  -1.56000    1.000000    
    312 F     s    0.520540 *  0.481396 *  0.425616 *  -1.56000    1.000000    
--------------------------------------------------------------------------------



********************************************************************************
*  General input information                                                   *
********************************************************************************

  Species output for all configurations : 

--------------------------------------------------------------------------------
  Species    Type    Atomic    Atomic    Charge       Radii (Angs)     Library
                     Number     Mass       (e)     Cova   Ionic  VDW   Symbol
--------------------------------------------------------------------------------
    Si       Core       14      28.09   4.000000   1.200  0.000  2.100          
    O1       Core        8      16.00   1.733957   0.730  0.000  1.360          
    O1       Shell       8       0.00  -3.733957   0.730  0.000  1.360          
    O2       Core        8      16.00   0.870733   0.730  0.000  1.360          
    O2       Shell       8       0.00  -2.870733   0.730  0.000  1.360          
    O3       Core        8      16.00   1.330431   0.730  0.000  1.360          
    O3       Shell       8       0.00  -3.330431   0.730  0.000  1.360          
    F        Core        9      19.00   0.560000   0.710  0.000  1.300          
    F        Shell       9       0.00  -1.560000   0.710  0.000  1.300          
    Ge       Core       32      72.61   4.000000   1.170  0.000  1.750          
--------------------------------------------------------------------------------


  Lattice summation method               =    Ewald          (3-D)
                                         =    Parry          (2-D)
                                         =    Saunders et al (1-D)
  Accuracy factor for lattice sums       =   12.000


  Time limit = Infinity

  Maximum range for interatomic potentials =        16.000000 Angstroms

  Taper potentials to zero over   1.0000 Angstroms using polynomial

  General interatomic potentials :

--------------------------------------------------------------------------------
Atom  Types   Potential         A         B         C         D     Cutoffs(Ang)
  1     2                                                            Min    Max 
--------------------------------------------------------------------------------
Si   c O1   s Buckingham    0.132E+04 0.318      10.1      0.00     0.000 16.000
Si   c O2   s Buckingham    0.132E+04 0.318      10.1      0.00     0.000 16.000
Si   c O3   s Buckingham    0.132E+04 0.318      10.1      0.00     0.000 16.000
Ge   c O1   s Buckingham    0.150E+04 0.326      16.8      0.00     0.000 16.000
Ge   c O2   s Buckingham    0.150E+04 0.326      16.8      0.00     0.000 16.000
Ge   c O3   s Buckingham    0.150E+04 0.326      16.8      0.00     0.000 16.000
O1   s O1   s Buckingham    0.228E+05 0.149      10.9      0.00     0.000 16.000
O1   s O2   s Buckingham    0.228E+05 0.149      10.9      0.00     0.000 16.000
O1   s O3   s Buckingham    0.228E+05 0.149      10.9      0.00     0.000 16.000
O2   s O2   s Buckingham    0.228E+05 0.149      10.9      0.00     0.000 16.000
O2   s O3   s Buckingham    0.228E+05 0.149      10.9      0.00     0.000 16.000
O3   s O3   s Buckingham    0.228E+05 0.149      10.9      0.00     0.000 16.000
Si   c F    s Buckingham     977.     0.282      0.00      0.00     0.000 16.000
Ge   c F    s Buckingham     681.     0.320      0.00      0.00     0.000 16.000
F    s F    s Buckingham     540.     0.262      0.00      0.00     0.000 16.000
O1   s F    s Buckingham    0.168E+04 0.268      0.00      0.00     0.000 16.000
O2   s F    s Buckingham    0.168E+04 0.268      0.00      0.00     0.000 16.000
O3   s F    s Buckingham    0.168E+04 0.268      0.00      0.00     0.000 16.000
O2   c O2   s Spring (c-s)   76.0      0.00      0.00      0.00     0.000  0.800
O3   c O3   s Spring (c-s)   128.      0.00      0.00      0.00     0.000  0.800
O1   c O1   s Spring (c-s)   180.      0.00      0.00      0.00     0.000  0.800
F    c F    s Spring (c-s)   33.5      0.00      0.00      0.00     0.000  0.800
--------------------------------------------------------------------------------

  General Three-body potentials :

  Harmonic form:

--------------------------------------------------------------------------------
Atom    Atom    Atom           Force Constants            Theta     Cutoffs  
  1       2       3     (eVrad**-2/eVrad**-3/eVrad**-4)   (deg)  1-2  1-3  2-3
--------------------------------------------------------------------------------
Si    c O1    s O1    s  1.261        0.0000    0.0000   109.470 0.00 0.00 0.00
                                                                 1.90 1.90 3.50
Si    c O1    s O2    s  1.261        0.0000    0.0000   109.470 0.00 0.00 0.00
                                                                 1.90 1.90 3.50
Si    c O2    s O2    s  1.261        0.0000    0.0000   109.470 0.00 0.00 0.00
                                                                 1.90 1.90 3.50
--------------------------------------------------------------------------------

********************************************************************************
*  Output for configuration   1                                                *
********************************************************************************


  Components of energy : 

--------------------------------------------------------------------------------
  Interatomic potentials     =        2066.29482796 eV
  Three-body potentials      =           0.47650824 eV
  Monopole - monopole (real) =       -6615.83285616 eV
  Monopole - monopole (recip)=       -3171.75294724 eV
  Monopole - monopole (total)=       -9787.58580339 eV
  Neutralising energy        =          -6.46087101 eV
--------------------------------------------------------------------------------
  Total lattice energy       =       -7727.27533820 eV
--------------------------------------------------------------------------------
  Total lattice energy       =         -745563.9479 kJ/(mole unit cells)
--------------------------------------------------------------------------------


  Number of variables =      939

  Maximum number of calculations  =          5000
  Maximum Hessian update interval =            10
  Maximum step size               =   0.100000000
  Maximum parameter tolerance     =   0.000010000
  Maximum function  tolerance     =   0.000010000
  Maximum gradient  tolerance     =   0.001000000
  Maximum gradient  component     =   0.010000000

  Symmetry not applied to optimisation

  Cell parameters to be optimised using strains

  Newton-Raphson optimiser to be used

  BFGS hessian update to be used

  Dumpfile to be written after every cycle

  Start of bulk optimisation :

  Cycle:      0 Energy:     -7727.275338  Gnorm:      0.008368  CPU:    2.039
  ** Hessian calculated **
  Cycle:      1 Energy:     -7727.275464  Gnorm:      0.002365  CPU:    5.297
  Cycle:      2 Energy:     -7727.275491  Gnorm:      0.001367  CPU:    8.178
  Cycle:      3 Energy:     -7727.275513  Gnorm:      0.000996  CPU:   11.054
  Cycle:      4 Energy:     -7727.275539  Gnorm:      0.000910  CPU:   13.934
  Cycle:      5 Energy:     -7727.275575  Gnorm:      0.001052  CPU:   16.813
  Cycle:      6 Energy:     -7727.275626  Gnorm:      0.001385  CPU:   19.703
  Cycle:      7 Energy:     -7727.275702  Gnorm:      0.001899  CPU:   22.594
  Cycle:      8 Energy:     -7727.276081  Gnorm:      0.004720  CPU:   28.269
  Cycle:      9 Energy:     -7727.276533  Gnorm:      0.007625  CPU:   32.532
  Cycle:     10 Energy:     -7727.277095  Gnorm:      0.011206  CPU:   36.798
  ** Hessian calculated **
  Cycle:     11 Energy:     -7727.277339  Gnorm:      0.004482  CPU:   41.365
  Cycle:     12 Energy:     -7727.277399  Gnorm:      0.002945  CPU:   44.244
  Cycle:     13 Energy:     -7727.277475  Gnorm:      0.001460  CPU:   48.508
  Cycle:     14 Energy:     -7727.277548  Gnorm:      0.002588  CPU:   52.771
  Cycle:     15 Energy:     -7727.277631  Gnorm:      0.003701  CPU:   57.040
  Cycle:     16 Energy:     -7727.277743  Gnorm:      0.004743  CPU:   61.305
  Cycle:     17 Energy:     -7727.277902  Gnorm:      0.005377  CPU:   65.569
  Cycle:     18 Energy:     -7727.278133  Gnorm:      0.005627  CPU:   69.833
  Cycle:     19 Energy:     -7727.278465  Gnorm:      0.005346  CPU:   74.095
  Cycle:     20 Energy:     -7727.278929  Gnorm:      0.004453  CPU:   78.361
  ** Hessian calculated **
  Cycle:     21 Energy:     -7727.279747  Gnorm:      0.004436  CPU:   84.317
  Cycle:     22 Energy:     -7727.281131  Gnorm:      0.004408  CPU:   89.276
  Cycle:     23 Energy:     -7727.283269  Gnorm:      0.004364  CPU:   94.233
  Cycle:     24 Energy:     -7727.286476  Gnorm:      0.004296  CPU:   99.192
  Cycle:     25 Energy:     -7727.290429  Gnorm:      0.004211  CPU:  103.455
  Cycle:     26 Energy:     -7727.296979  Gnorm:      0.004066  CPU:  108.414
  Cycle:     27 Energy:     -7727.306736  Gnorm:      0.003839  CPU:  113.371
  Cycle:     28 Energy:     -7727.318273  Gnorm:      0.003551  CPU:  117.638
  Cycle:     29 Energy:     -7727.335912  Gnorm:      0.003058  CPU:  122.595
  Cycle:     30 Energy:     -7727.354851  Gnorm:      0.002432  CPU:  126.858
  ** Hessian calculated **
  Cycle:     31 Energy:     -7727.375258  Gnorm:      0.001510  CPU:  132.813
  Cycle:     32 Energy:     -7727.383360  Gnorm:      0.000977  CPU:  137.079
  Cycle:     33 Energy:     -7727.385349  Gnorm:      0.000581  CPU:  141.343
  Cycle:     34 Energy:     -7727.385844  Gnorm:      0.000317  CPU:  145.612
  Cycle:     35 Energy:     -7727.385968  Gnorm:      0.000166  CPU:  149.877
  Cycle:     36 Energy:     -7727.385989  Gnorm:      0.000117  CPU:  152.753
  Cycle:     37 Energy:     -7727.386000  Gnorm:      0.000082  CPU:  155.633
  Cycle:     38 Energy:     -7727.386005  Gnorm:      0.000058  CPU:  158.511
  Cycle:     39 Energy:     -7727.386007  Gnorm:      0.000040  CPU:  161.387
  Cycle:     40 Energy:     -7727.386009  Gnorm:      0.000028  CPU:  164.264
  ** Hessian calculated **


  **** Optimisation achieved ****


  Final energy =   -7727.38600861 eV
  Final Gnorm  =       0.00001643

  Components of energy : 

--------------------------------------------------------------------------------
  Interatomic potentials     =        2066.50351031 eV
  Three-body potentials      =           0.47763899 eV
  Monopole - monopole (real) =       -6617.98522040 eV
  Monopole - monopole (recip)=       -3169.92478735 eV
  Monopole - monopole (total)=       -9787.91000775 eV
  Neutralising energy        =          -6.45715016 eV
--------------------------------------------------------------------------------
  Total lattice energy       =       -7727.38600861 eV
--------------------------------------------------------------------------------
  Total lattice energy       =         -745574.6259 kJ/(mole unit cells)
--------------------------------------------------------------------------------

  Final fractional coordinates of atoms :

--------------------------------------------------------------------------------
   No.  Atomic        x           y          z          Radius
        Label       (Frac)      (Frac)     (Frac)       (Angs) 
--------------------------------------------------------------------------------
     1  Ge    c     0.699600    0.375700    0.033890    0.000000
     2  Si    c     0.592254    0.306079    0.364124    0.000000
     3  Si    c     0.650027    0.279829    0.696617    0.000000
     4  Si    c     0.273826    0.600033    0.527083    0.000000
     5  Si    c     0.365123    0.653433    0.861675    0.000000
     6  Si    c     0.299837    0.694529    0.192790    0.000000
     7  Si    c     0.348658    0.682587    0.292947    0.000000
     8  Si    c     0.307965    0.606301    0.961231    0.000000
     9  Si    c     0.270657    0.654746    0.628624    0.000000
    10  Si    c     0.603057    0.284428    0.799778    0.000000
    11  Si    c     0.647157    0.362364    0.466190    0.000000
    12  Si    c     0.669393    0.308782    0.131831    0.000000
    13  Si    c     0.522667    0.409538    0.966850    0.000000
    14  Si    c     0.554796    0.093132    0.299959    0.000000
    15  Si    c     0.861243    0.449830    0.631033    0.000000
    16  Ge    c     0.438663    0.547421    0.458775    0.000000
    17  Si    c     0.388930    0.858209    0.797679    0.000000
    18  Si    c     0.090706    0.520792    0.127000    0.000000
    19  Si    c     0.375822    0.510362    0.359571    0.000000
    20  Si    c     0.092065    0.571273    0.024190    0.000000
    21  Si    c     0.442862    0.865419    0.693822    0.000000
    22  Si    c     0.577683    0.460025    0.864803    0.000000
    23  Si    c     0.860724    0.399418    0.530009    0.000000
    24  Si    c     0.507281    0.102215    0.198995    0.000000
    25  Si    c     0.292574    0.378240    0.847033    0.000000
    26  Si    c     0.580223    0.895964    0.181011    0.000000
    27  Si    c     0.068954    0.677260    0.515130    0.000000
    28  Si    c     0.665917    0.584122    0.347799    0.000000
    29  Si    c     0.368404    0.076381    0.677972    0.000000
    30  Si    c     0.880282    0.283843    0.009861    0.000000
    31  Si    c     0.360831    0.277698    0.482459    0.000000
    32  Si    c     0.875792    0.592682    0.141505    0.000000
    33  Si    c     0.674415    0.074093    0.812877    0.000000
    34  Si    c     0.586977    0.688933    0.978006    0.000000
    35  Si    c     0.070752    0.377701    0.643976    0.000000
    36  Si    c     0.273393    0.883874    0.310985    0.000000
    37  Si    c     0.241442    0.328563    0.947817    0.000000
    38  Si    c     0.631651    0.892991    0.281702    0.000000
    39  Si    c     0.060020    0.727000    0.615705    0.000000
    40  Si    c     0.719972    0.646760    0.449950    0.000000
    41  Ge    c     0.336317    0.068779    0.777925    0.000000
    42  Si    c     0.886882    0.240084    0.113012    0.000000
    43  Si    c     0.303749    0.233033    0.379342    0.000000
    44  Si    c     0.891394    0.657128    0.039321    0.000000
    45  Si    c     0.724473    0.067725    0.710691    0.000000
    46  Si    c     0.649100    0.736173    0.877752    0.000000
    47  Si    c     0.061493    0.320095    0.543042    0.000000
    48  Si    c     0.226412    0.900607    0.210908    0.000000
    49  Si    c     0.962013    0.110828    0.961384    0.000000
    50  Si    c     0.848821    0.829127    0.296978    0.000000
    51  Si    c     0.120554    0.005218    0.629319    0.000000
    52  Si    c     0.004902    0.857396    0.463778    0.000000
    53  Si    c     0.110283    0.130105    0.795345    0.000000
    54  Si    c     0.829367    0.964683    0.129955    0.000000
    55  Si    c     0.092852    0.950139    0.362744    0.000000
    56  Si    c     0.835330    0.875613    0.028508    0.000000
    57  Si    c     0.008824    0.134689    0.695937    0.000000
    58  Si    c     0.864773    0.013709    0.861099    0.000000
    59  Si    c     0.115113    0.095247    0.529881    0.000000
    60  Si    c     0.945659    0.839048    0.195266    0.000000
    61  O2    c     0.915217    0.996217    0.996699    0.000000
    62  O2    c     0.969521    0.907448    0.330374    0.000000
    63  O2    c     0.047456    0.051402    0.663629    0.000000
    64  O2    c     0.037662    0.977525    0.495693    0.000000
    65  O2    c     0.983639    0.059634    0.827462    0.000000
    66  O2    c     0.906350    0.923303    0.164330    0.000000
    67  O2    c     0.306307    0.553676    0.321634    0.000000
    68  O2    c     0.395403    0.741403    0.660948    0.000000
    69  O2    c     0.219241    0.644322    0.993009    0.000000
    70  O2    c     0.655915    0.410356    0.832640    0.000000
    71  O2    c     0.559896    0.231613    0.169981    0.000000
    72  O2    c     0.733183    0.324446    0.497521    0.000000
    73  O3    c     0.563532    0.333408    0.999328    0.000000
    74  O2    c     0.736476    0.400751    0.664345    0.000000
    75  O2    c     0.629477    0.217814    0.333136    0.000000
    76  O3    c     0.390752    0.635984    0.494516    0.000000
    77  O2    c     0.217050    0.573506    0.159041    0.000000
    78  O2    c     0.322006    0.729780    0.827460    0.000000
    79  O2    c     0.116143    0.200580    0.967573    0.000000
    80  O2    c     0.757372    0.892175    0.302278    0.000000
    81  O2    c     0.058515    0.852272    0.635950    0.000000
    82  O2    c     0.851947    0.765981    0.468549    0.000000
    83  O3    c     0.190770    0.061135    0.799245    0.000000
    84  O2    c     0.890700    0.118368    0.134597    0.000000
    85  O2    c     0.183023    0.103934    0.358095    0.000000
    86  O2    c     0.908210    0.793524    0.023815    0.000000
    87  O2    c     0.852816    0.072327    0.690654    0.000000
    88  O2    c     0.775079    0.859910    0.856812    0.000000
    89  O2    c     0.059472    0.192276    0.523190    0.000000
    90  O2    c     0.100980    0.903565    0.191156    0.000000
    91  O2    c     0.901566    0.841752    0.246361    0.000000
    92  O2    c     0.092994    0.039045    0.579777    0.000000
    93  O2    c     0.921106    0.053449    0.911462    0.000000
    94  O2    c     0.050362    0.127604    0.746169    0.000000
    95  O2    c     0.844757    0.925547    0.079744    0.000000
    96  O2    c     0.044225    0.909632    0.413261    0.000000
    97  O2    c     0.893288    0.194094    0.971932    0.000000
    98  O2    c     0.764225    0.678333    0.309186    0.000000
    99  O2    c     0.275869    0.073451    0.636407    0.000000
   100  O2    c     0.075281    0.777354    0.476858    0.000000
   101  O2    c     0.199450    0.281663    0.808147    0.000000
   102  O2    c     0.677102    0.896370    0.142215    0.000000
   103  O2    c     0.174211    0.880497    0.349398    0.000000
   104  O2    c     0.683600    0.790088    0.016375    0.000000
   105  O2    c     0.076097    0.283591    0.681806    0.000000
   106  O2    c     0.774694    0.076561    0.850339    0.000000
   107  O2    c     0.268209    0.168120    0.518309    0.000000
   108  O2    c     0.878167    0.690447    0.180250    0.000000
   109  O2    c     0.295417    0.632525    0.241879    0.000000
   110  O2    c     0.325692    0.652062    0.578621    0.000000
   111  O2    c     0.305039    0.659915    0.911009    0.000000
   112  O2    c     0.650213    0.332240    0.747560    0.000000
   113  O3    c     0.604614    0.300281    0.084481    0.000000
   114  O2    c     0.647254    0.312965    0.414592    0.000000
   115  O2    c     0.364456    0.323225    0.967163    0.000000
   116  O2    c     0.641541    0.023401    0.302314    0.000000
   117  O2    c     0.928993    0.605107    0.635127    0.000000
   118  O3    c     0.605859    0.665133    0.468113    0.000000
   119  O3    c     0.298564    0.919865    0.802619    0.000000
   120  O2    c     0.018613    0.366130    0.130034    0.000000
   121  O2    c     0.292997    0.352490    0.359442    0.000000
   122  O2    c     0.024667    0.659630    0.023971    0.000000
   123  O2    c     0.600382    0.937929    0.692005    0.000000
   124  O2    c     0.663059    0.615106    0.860973    0.000000
   125  O2    c     0.926237    0.309092    0.525961    0.000000
   126  O2    c     0.350363    0.033562    0.194576    0.000000
   127  O3    c     0.746316    0.276995    0.002188    0.000000
   128  O2    c     0.662923    0.448270    0.342482    0.000000
   129  O2    c     0.506438    0.209989    0.674055    0.000000
   130  O2    c     0.201709    0.675400    0.507796    0.000000
   131  O2    c     0.291573    0.510939    0.839328    0.000000
   132  O2    c     0.444786    0.764766    0.171542    0.000000
   133  O2    c     0.273850    0.750326    0.316575    0.000000
   134  O2    c     0.450228    0.686653    0.985056    0.000000
   135  O2    c     0.202521    0.513659    0.651545    0.000000
   136  O2    c     0.674145    0.207591    0.818446    0.000000
   137  O2    c     0.500793    0.284439    0.485504    0.000000
   138  O2    c     0.744987    0.458160    0.150308    0.000000
   139  O3    c     0.767189    0.542474    0.017668    0.000000
   140  O2    c     0.436952    0.241997    0.362343    0.000000
   141  O2    c     0.714810    0.189555    0.694296    0.000000
   142  O2    c     0.184036    0.444064    0.522255    0.000000
   143  O2    c     0.522554    0.733857    0.857010    0.000000
   144  O2    c     0.224780    0.775818    0.189295    0.000000
   145  O2    c     0.505354    0.764449    0.299043    0.000000
   146  O2    c     0.233115    0.451165    0.966938    0.000000
   147  O2    c     0.188808    0.729339    0.633968    0.000000
   148  O3    c     0.449822    0.211193    0.806531    0.000000
   149  O2    c     0.710462    0.515779    0.469047    0.000000
   150  O2    c     0.762911    0.244606    0.132490    0.000000
   151  O2    c     0.222139    0.307816    0.893706    0.000000
   152  O2    c     0.652368    0.896089    0.227491    0.000000
   153  O2    c     0.060164    0.745533    0.561519    0.000000
   154  O2    c     0.732620    0.653914    0.394818    0.000000
   155  O3    c     0.286814    0.072676    0.721133    0.000000
   156  O2    c     0.886616    0.223976    0.058873    0.000000
   157  O2    c     0.289279    0.219653    0.433424    0.000000
   158  O2    c     0.878378    0.660339    0.094625    0.000000
   159  O2    c     0.735103    0.066073    0.764794    0.000000
   160  O2    c     0.664142    0.758830    0.932061    0.000000
   161  O2    c     0.067586    0.305021    0.597178    0.000000
   162  O2    c     0.204434    0.892824    0.265058    0.000000
   163  O2    c     0.573250    0.552166    0.988454    0.000000
   164  O2    c     0.412140    0.008968    0.322084    0.000000
   165  O2    c     0.942265    0.388125    0.653380    0.000000
   166  O3    c     0.367127    0.408099    0.494643    0.000000
   167  O2    c     0.532568    0.952132    0.819702    0.000000
   168  O2    c     0.000034    0.573939    0.147116    0.000000
   169  O2    c     0.523061    0.563028    0.340229    0.000000
   170  O2    c     0.999748    0.429755    0.003678    0.000000
   171  O2    c     0.390060    0.953840    0.672067    0.000000
   172  O2    c     0.436794    0.400462    0.841040    0.000000
   173  O2    c     0.941517    0.538703    0.505936    0.000000
   174  O2    c     0.567547    0.022230    0.174446    0.000000
   175  O2    c     0.557645    0.150697    0.250320    0.000000
   176  O2    c     0.803365    0.397351    0.580409    0.000000
   177  O2    c     0.578241    0.412711    0.915828    0.000000
   178  O2    c     0.393826    0.816664    0.744795    0.000000
   179  O2    c     0.136739    0.566034    0.075827    0.000000
   180  O3    c     0.366967    0.566161    0.407341    0.000000
   181  F     c     0.426409    0.891551    0.246365    0.000000
   182  F     c     0.059089    0.523232    0.580156    0.000000
   183  F     c     0.438483    0.541463    0.913631    0.000000
   184  F     c     0.485277    0.072349    0.751217    0.000000
   185  F     c     0.845214    0.430514    0.069929    0.000000
   186  F     c     0.494821    0.455850    0.422265    0.000000
   187  O2    s     0.911280    0.995269    0.996381    0.000000
   188  O2    s     0.969632    0.903408    0.330208    0.000000
   189  O2    s     0.051352    0.055520    0.663370    0.000000
   190  O2    s     0.042710    0.977166    0.495918    0.000000
   191  O2    s     0.983033    0.061696    0.828024    0.000000
   192  O2    s     0.902291    0.918500    0.164006    0.000000
   193  O2    s     0.317669    0.562716    0.322436    0.000000
   194  O2    s     0.387722    0.745540    0.661084    0.000000
   195  O2    s     0.214348    0.632669    0.993207    0.000000
   196  O2    s     0.642916    0.402719    0.832531    0.000000
   197  O2    s     0.565572    0.225784    0.169137    0.000000
   198  O2    s     0.736653    0.335984    0.497376    0.000000
   199  O3    s     0.568987    0.344764    0.998322    0.000000
   200  O2    s     0.740033    0.392985    0.664374    0.000000
   201  O2    s     0.617973    0.214499    0.333053    0.000000
   202  O3    s     0.381165    0.625840    0.495616    0.000000
   203  O2    s     0.212190    0.580399    0.159133    0.000000
   204  O2    s     0.333736    0.735648    0.827831    0.000000
   205  O2    s     0.112106    0.203788    0.964930    0.000000
   206  O2    s     0.754044    0.885520    0.299594    0.000000
   207  O2    s     0.065182    0.855399    0.633192    0.000000
   208  O2    s     0.854696    0.763117    0.465965    0.000000
   209  O3    s     0.191161    0.069521    0.797425    0.000000
   210  O2    s     0.883891    0.114807    0.131913    0.000000
   211  O2    s     0.186051    0.101136    0.360765    0.000000
   212  O2    s     0.898692    0.788149    0.025918    0.000000
   213  O2    s     0.854958    0.078220    0.693327    0.000000
   214  O2    s     0.771545    0.863445    0.859417    0.000000
   215  O2    s     0.065547    0.195028    0.525880    0.000000
   216  O2    s     0.097460    0.896375    0.193632    0.000000
   217  O2    s     0.900553    0.840046    0.246362    0.000000
   218  O2    s     0.098586    0.041696    0.579589    0.000000
   219  O2    s     0.919508    0.055575    0.911572    0.000000
   220  O2    s     0.051827    0.128682    0.745471    0.000000
   221  O2    s     0.841948    0.924621    0.079946    0.000000
   222  O2    s     0.045464    0.908492    0.413055    0.000000
   223  O2    s     0.899412    0.194719    0.974884    0.000000
   224  O2    s     0.763029    0.684425    0.311843    0.000000
   225  O2    s     0.268813    0.066672    0.639675    0.000000
   226  O2    s     0.067069    0.776018    0.479252    0.000000
   227  O2    s     0.200398    0.276706    0.811000    0.000000
   228  O2    s     0.683189    0.903576    0.144954    0.000000
   229  O2    s     0.175804    0.888313    0.346818    0.000000
   230  O2    s     0.690320    0.789272    0.013888    0.000000
   231  O2    s     0.068395    0.277536    0.679377    0.000000
   232  O2    s     0.773477    0.069833    0.847549    0.000000
   233  O2    s     0.261607    0.171613    0.515872    0.000000
   234  O2    s     0.885181    0.696334    0.177859    0.000000
   235  O2    s     0.301390    0.644190    0.242054    0.000000
   236  O2    s     0.314776    0.647201    0.578822    0.000000
   237  O2    s     0.311378    0.653768    0.911242    0.000000
   238  O2    s     0.645582    0.322158    0.747336    0.000000
   239  O3    s     0.617518    0.305932    0.086370    0.000000
   240  O2    s     0.641406    0.317241    0.414441    0.000000
   241  O2    s     0.366605    0.332454    0.964975    0.000000
   242  O2    s     0.631522    0.017168    0.299934    0.000000
   243  O2    s     0.935639    0.601797    0.632679    0.000000
   244  O3    s     0.607022    0.655218    0.465471    0.000000
   245  O3    s     0.310610    0.924036    0.800340    0.000000
   246  O2    s     0.012530    0.369288    0.127955    0.000000
   247  O2    s     0.302067    0.355196    0.361538    0.000000
   248  O2    s     0.018348    0.650138    0.025552    0.000000
   249  O2    s     0.597444    0.944237    0.694158    0.000000
   250  O2    s     0.652771    0.611848    0.863149    0.000000
   251  O2    s     0.933289    0.319506    0.528132    0.000000
   252  O2    s     0.353413    0.026584    0.196764    0.000000
   253  O3    s     0.757708    0.284299    0.005196    0.000000
   254  O2    s     0.655894    0.447509    0.345285    0.000000
   255  O2    s     0.507336    0.203727    0.676810    0.000000
   256  O2    s     0.194238    0.668083    0.510569    0.000000
   257  O2    s     0.299390    0.511908    0.842520    0.000000
   258  O2    s     0.443904    0.771242    0.174787    0.000000
   259  O2    s     0.281475    0.757501    0.313532    0.000000
   260  O2    s     0.449914    0.678756    0.981886    0.000000
   261  O2    s     0.195646    0.513876    0.648360    0.000000
   262  O2    s     0.667016    0.201047    0.815946    0.000000
   263  O2    s     0.502013    0.291987    0.483117    0.000000
   264  O2    s     0.751683    0.458149    0.147564    0.000000
   265  O3    s     0.776742    0.544506    0.021035    0.000000
   266  O2    s     0.439462    0.248026    0.364342    0.000000
   267  O2    s     0.708900    0.185679    0.696336    0.000000
   268  O2    s     0.179154    0.445822    0.525011    0.000000
   269  O2    s     0.520059    0.725803    0.859707    0.000000
   270  O2    s     0.232845    0.780740    0.191946    0.000000
   271  O2    s     0.502764    0.769934    0.296569    0.000000
   272  O2    s     0.241704    0.454257    0.964385    0.000000
   273  O2    s     0.183286    0.721298    0.631478    0.000000
   274  O3    s     0.457232    0.208173    0.803784    0.000000
   275  O2    s     0.704386    0.512512    0.466788    0.000000
   276  O2    s     0.767338    0.250542    0.130290    0.000000
   277  O2    s     0.231507    0.317370    0.894598    0.000000
   278  O2    s     0.642637    0.895753    0.228385    0.000000
   279  O2    s     0.061032    0.736439    0.562377    0.000000
   280  O2    s     0.724108    0.645628    0.395222    0.000000
   281  O3    s     0.298672    0.072816    0.720546    0.000000
   282  O2    s     0.886025    0.231546    0.059958    0.000000
   283  O2    s     0.297761    0.226775    0.432256    0.000000
   284  O2    s     0.879309    0.652557    0.094367    0.000000
   285  O2    s     0.727502    0.067082    0.763965    0.000000
   286  O2    s     0.654581    0.749238    0.931130    0.000000
   287  O2    s     0.067276    0.314263    0.596364    0.000000
   288  O2    s     0.214012    0.892717    0.264109    0.000000
   289  O2    s     0.569404    0.552934    0.985107    0.000000
   290  O2    s     0.412453    0.004444    0.318577    0.000000
   291  O2    s     0.947629    0.393512    0.650063    0.000000
   292  O3    s     0.371393    0.403102    0.490953    0.000000
   293  O2    s     0.533988    0.956454    0.816777    0.000000
   294  O2    s     0.996320    0.570171    0.144368    0.000000
   295  O2    s     0.524270    0.560025    0.342991    0.000000
   296  O2    s     0.997345    0.430192    0.006556    0.000000
   297  O2    s     0.393534    0.957338    0.674991    0.000000
   298  O2    s     0.436033    0.404578    0.844212    0.000000
   299  O2    s     0.946715    0.538957    0.509364    0.000000
   300  O2    s     0.562482    0.016824    0.177711    0.000000
   301  O2    s     0.552052    0.139496    0.250214    0.000000
   302  O2    s     0.815180    0.402943    0.580403    0.000000
   303  O2    s     0.572657    0.417461    0.915501    0.000000
   304  O2    s     0.398552    0.825947    0.744561    0.000000
   305  O2    s     0.127203    0.561665    0.076105    0.000000
   306  O3    s     0.372523    0.559023    0.405625    0.000000
   307  F     s     0.426250    0.891371    0.246387    0.000000
   308  F     s     0.058270    0.522921    0.580241    0.000000
   309  F     s     0.437902    0.542502    0.913670    0.000000
   310  F     s     0.476290    0.072343    0.752740    0.000000
   311  F     s     0.834252    0.426497    0.067376    0.000000
   312  F     s     0.490782    0.462010    0.424718    0.000000
--------------------------------------------------------------------------------

  Final Cartesian lattice vectors (Angstroms) :

       11.897430    0.002676    0.003774
       -5.997052   10.425667    0.006512
        0.101696   -0.291035   29.516646


  Final cell parameters and derivatives :

--------------------------------------------------------------------------------
       a           11.897431 Angstrom     dE/de1(xx)     0.001989 eV/strain
       b           12.027436 Angstrom     dE/de2(yy)     0.000710 eV/strain
       c           29.518256 Angstrom     dE/de3(zz)     0.002429 eV/strain
       alpha       90.557089 Degrees      dE/de4(yz)     0.000620 eV/strain
       beta        89.784560 Degrees      dE/de5(xz)    -0.000377 eV/strain
       gamma      119.895469 Degrees      dE/de6(xy)     0.000391 eV/strain
--------------------------------------------------------------------------------

  Primitive cell volume =          3661.703515 Angs**3

  Density of cell =      1.747299 g/cm**3

  Non-primitive cell volume =          3661.703515 Angs**3


  Final internal derivatives :

--------------------------------------------------------------------------------
   No.  Atomic          a             b             c           Radius
        Label          (eV)          (eV)          (eV)        (eV/Angs)
--------------------------------------------------------------------------------
      1 Ge    c       0.000000      0.000000      0.000000      0.000000
      2 Si    c      -0.000052     -0.000017      0.000065      0.000000
      3 Si    c      -0.000024      0.000082      0.000256      0.000000
      4 Si    c       0.000798      0.000369      0.000124      0.000000
      5 Si    c       0.000219     -0.000180      0.000741      0.000000
      6 Si    c       0.000329      0.000041      0.000217      0.000000
      7 Si    c       0.000473      0.000433     -0.000155      0.000000
      8 Si    c       0.000205      0.000024      0.000048      0.000000
      9 Si    c       0.000392      0.000489      0.000701      0.000000
     10 Si    c       0.000119     -0.000348     -0.001111      0.000000
     11 Si    c       0.000177     -0.000249     -0.000158      0.000000
     12 Si    c       0.001610     -0.000041      0.006459      0.000000
     13 Si    c      -0.001707     -0.000271     -0.000875      0.000000
     14 Si    c       0.000368      0.000394      0.000642      0.000000
     15 Si    c       0.000243      0.000137     -0.000440      0.000000
     16 Ge    c       0.000495      0.000582      0.000457      0.000000
     17 Si    c       0.000156      0.000656     -0.000811      0.000000
     18 Si    c       0.000150      0.000287      0.001187      0.000000
     19 Si    c       0.000771      0.000146      0.001445      0.000000
     20 Si    c       0.000296      0.000114      0.000243      0.000000
     21 Si    c       0.000153      0.000141      0.000795      0.000000
     22 Si    c      -0.000484      0.000133      0.000716      0.000000
     23 Si    c       0.000429      0.000189      0.000172      0.000000
     24 Si    c       0.000059     -0.000038      0.000156      0.000000
     25 Si    c       0.000019      0.000088     -0.001024      0.000000
     26 Si    c       0.000120     -0.000056     -0.000322      0.000000
     27 Si    c       0.000453     -0.000004      0.001089      0.000000
     28 Si    c       0.000262      0.000263      0.000498      0.000000
     29 Si    c       0.000279      0.000191      0.000250      0.000000
     30 Si    c       0.001450      0.000681     -0.000772      0.000000
     31 Si    c       0.000221      0.000087     -0.000174      0.000000
     32 Si    c       0.000427      0.000089      0.000187      0.000000
     33 Si    c       0.000117      0.000025     -0.000274      0.000000
     34 Si    c       0.000172     -0.000053      0.000716      0.000000
     35 Si    c      -0.000009      0.000198     -0.000891      0.000000
     36 Si    c       0.000401      0.000237      0.000321      0.000000
     37 Si    c      -0.000293     -0.000166      0.000273      0.000000
     38 Si    c       0.000345      0.000249      0.000061      0.000000
     39 Si    c       0.000321      0.000254      0.000224      0.000000
     40 Si    c       0.000697      0.000135      0.000660      0.000000
     41 Ge    c       0.000220      0.000652     -0.000602      0.000000
     42 Si    c       0.000351      0.000525      0.000220      0.000000
     43 Si    c       0.000327      0.000175      0.000121      0.000000
     44 Si    c       0.000674     -0.000234     -0.002001      0.000000
     45 Si    c       0.000003     -0.000067      0.000318      0.000000
     46 Si    c      -0.000175     -0.000122      0.000220      0.000000
     47 Si    c       0.000376      0.000160     -0.000209      0.000000
     48 Si    c       0.000535      0.000295     -0.000029      0.000000
     49 Si    c       0.000032     -0.000271      0.000453      0.000000
     50 Si    c       0.000551      0.000430      0.000049      0.000000
     51 Si    c       0.000094      0.000121      0.000619      0.000000
     52 Si    c       0.000424      0.000154      0.001065      0.000000
     53 Si    c      -0.000143      0.000153     -0.000684      0.000000
     54 Si    c      -0.000002     -0.000311     -0.000344      0.000000
     55 Si    c       0.000569      0.000081      0.000166      0.000000
     56 Si    c      -0.000242     -0.000011      0.000104      0.000000
     57 Si    c      -0.000320     -0.000242     -0.000853      0.000000
     58 Si    c       0.000070      0.000139      0.000448      0.000000
     59 Si    c       0.000016      0.000065     -0.000540      0.000000
     60 Si    c       0.000355     -0.000028      0.000158      0.000000
     61 O2    c      -0.000122     -0.000078      0.000462      0.000000
     62 O2    c       0.000138      0.000214      0.000170      0.000000
     63 O2    c      -0.000021      0.000002      0.000203      0.000000
     64 O2    c       0.000064     -0.000054      0.000249      0.000000
     65 O2    c       0.000111     -0.000205      0.000004      0.000000
     66 O2    c       0.000159      0.000091      0.000522      0.000000
     67 O2    c       0.000152     -0.000405      0.000369      0.000000
     68 O2    c      -0.000050     -0.000051     -0.000106      0.000000
     69 O2    c       0.000270      0.000058      0.000001      0.000000
     70 O2    c       0.000388      0.000330      0.000453      0.000000
     71 O2    c      -0.000251      0.000089      0.000510      0.000000
     72 O2    c       0.000317      0.000086      0.000331      0.000000
     73 O3    c      -0.000633     -0.001345      0.000399      0.000000
     74 O2    c       0.000281      0.000072     -0.000114      0.000000
     75 O2    c       0.000094      0.000167      0.000078      0.000000
     76 O3    c      -0.000050     -0.000319      0.000058      0.000000
     77 O2    c      -0.000010     -0.000153     -0.000669      0.000000
     78 O2    c      -0.000032     -0.000099      0.000249      0.000000
     79 O2    c       0.000171     -0.000252      0.000324      0.000000
     80 O2    c       0.000016      0.000024     -0.000015      0.000000
     81 O2    c       0.000181     -0.000335      0.000189      0.000000
     82 O2    c       0.000185     -0.000038     -0.000163      0.000000
     83 O3    c       0.000407     -0.000404      0.001007      0.000000
     84 O2    c       0.000111     -0.000171      0.000218      0.000000
     85 O2    c       0.000179      0.000230      0.000196      0.000000
     86 O2    c       0.000811     -0.000609     -0.000002      0.000000
     87 O2    c       0.000024      0.000094      0.000248      0.000000
     88 O2    c      -0.000091     -0.000240      0.000314      0.000000
     89 O2    c       0.000103      0.000124      0.000419      0.000000
     90 O2    c       0.000175      0.000175      0.000222      0.000000
     91 O2    c       0.000063     -0.000001      0.000068      0.000000
     92 O2    c      -0.000017      0.000020      0.000626      0.000000
     93 O2    c      -0.000187     -0.000178     -0.001012      0.000000
     94 O2    c      -0.000057      0.000052      0.001694      0.000000
     95 O2    c       0.000115      0.000054      0.001886      0.000000
     96 O2    c      -0.000011     -0.000002      0.001024      0.000000
     97 O2    c      -0.000191      0.000127      0.000238      0.000000
     98 O2    c       0.000118     -0.000296      0.000423      0.000000
     99 O2    c       0.000117     -0.000014     -0.000368      0.000000
    100 O2    c       0.000081     -0.000030      0.000092      0.000000
    101 O2    c      -0.000081      0.000465      0.000470      0.000000
    102 O2    c       0.000200     -0.000018      0.000411      0.000000
    103 O2    c       0.000191      0.000004     -0.000361      0.000000
    104 O2    c      -0.000559     -0.000423     -0.000442      0.000000
    105 O2    c       0.000045      0.000197      0.000375      0.000000
    106 O2    c      -0.000356      0.000362      0.000235      0.000000
    107 O2    c       0.000057     -0.000058      0.000250      0.000000
    108 O2    c       0.000060     -0.000007     -0.000639      0.000000
    109 O2    c       0.000093     -0.000121      0.000121      0.000000
    110 O2    c      -0.000200     -0.000019     -0.000235      0.000000
    111 O2    c      -0.000282      0.000291     -0.000487      0.000000
    112 O2    c       0.000060     -0.000025     -0.000044      0.000000
    113 O3    c      -0.002978     -0.001649     -0.000087      0.000000
    114 O2    c      -0.000050      0.000033     -0.000288      0.000000
    115 O2    c       0.000162     -0.000238     -0.000049      0.000000
    116 O2    c      -0.000067     -0.000119     -0.000460      0.000000
    117 O2    c       0.000023      0.000096      0.000354      0.000000
    118 O3    c       0.000135     -0.000010     -0.000610      0.000000
    119 O3    c       0.000094     -0.000015      0.001351      0.000000
    120 O2    c       0.000258     -0.000041      0.000001      0.000000
    121 O2    c      -0.000050      0.000046     -0.000483      0.000000
    122 O2    c      -0.000068      0.000490      0.000288      0.000000
    123 O2    c       0.000023      0.000099     -0.000253      0.000000
    124 O2    c       0.000050      0.000190      0.000024      0.000000
    125 O2    c       0.000113     -0.000005     -0.000078      0.000000
    126 O2    c       0.000124      0.000177     -0.000236      0.000000
    127 O3    c      -0.000143     -0.000565     -0.001535      0.000000
    128 O2    c       0.000297      0.000116     -0.000167      0.000000
    129 O2    c       0.000059      0.000047      0.000091      0.000000
    130 O2    c      -0.000065     -0.000112      0.000248      0.000000
    131 O2    c      -0.000105      0.000294     -0.000048      0.000000
    132 O2    c       0.000169     -0.000033      0.000333      0.000000
    133 O2    c       0.000095     -0.000103      0.000046      0.000000
    134 O2    c       0.000060     -0.000017      0.000545      0.000000
    135 O2    c      -0.000087     -0.000165      0.000160      0.000000
    136 O2    c       0.000095     -0.000182      0.000061      0.000000
    137 O2    c       0.000096      0.000149     -0.000163      0.000000
    138 O2    c      -0.000153      0.000208     -0.000339      0.000000
    139 O3    c      -0.000535      0.000247     -0.001181      0.000000
    140 O2    c      -0.000018      0.000141      0.000146      0.000000
    141 O2    c       0.000032      0.000131     -0.000086      0.000000
    142 O2    c       0.000146      0.000167     -0.000221      0.000000
    143 O2    c       0.000088      0.000234     -0.000460      0.000000
    144 O2    c      -0.000062     -0.000019     -0.000245      0.000000
    145 O2    c      -0.000023      0.000153     -0.000119      0.000000
    146 O2    c      -0.000057     -0.000174      0.000077      0.000000
    147 O2    c      -0.000093     -0.000052     -0.000144      0.000000
    148 O3    c       0.000278     -0.000180      0.000848      0.000000
    149 O2    c      -0.000083     -0.000214      0.000499      0.000000
    150 O2    c       0.000003     -0.000125     -0.000493      0.000000
    151 O2    c      -0.000152     -0.000021      0.001232      0.000000
    152 O2    c      -0.000065      0.000115      0.000793      0.000000
    153 O2    c       0.000204     -0.000025      0.000542      0.000000
    154 O2    c       0.000144      0.000033      0.000552      0.000000
    155 O3    c       0.000011     -0.000090     -0.000386      0.000000
    156 O2    c      -0.000068     -0.000081     -0.000772      0.000000
    157 O2    c       0.000186     -0.000106     -0.000222      0.000000
    158 O2    c       0.000134      0.000475      0.001841      0.000000
    159 O2    c       0.000069      0.000117     -0.000236      0.000000
    160 O2    c       0.000318     -0.000059      0.000113      0.000000
    161 O2    c       0.000020      0.000042     -0.000155      0.000000
    162 O2    c      -0.000219      0.000121      0.000339      0.000000
    163 O2    c       0.000275     -0.000379     -0.000006      0.000000
    164 O2    c       0.000035      0.000116     -0.000123      0.000000
    165 O2    c       0.000062     -0.000013      0.000228      0.000000
    166 O3    c      -0.000094     -0.000099      0.000520      0.000000
    167 O2    c       0.000037      0.000038      0.000027      0.000000
    168 O2    c      -0.000027      0.000007     -0.000341      0.000000
    169 O2    c      -0.000094      0.000192     -0.000137      0.000000
    170 O2    c       0.000452      0.000271      0.000097      0.000000
    171 O2    c      -0.000048      0.000037     -0.000090      0.000000
    172 O2    c       0.000033     -0.000113      0.000007      0.000000
    173 O2    c       0.000167      0.000165     -0.000609      0.000000
    174 O2    c       0.000029      0.000061      0.000381      0.000000
    175 O2    c       0.000166     -0.000060      0.000084      0.000000
    176 O2    c      -0.000107     -0.000087     -0.000043      0.000000
    177 O2    c       0.000091     -0.000448      0.001248      0.000000
    178 O2    c      -0.000130     -0.000058      0.000813      0.000000
    179 O2    c       0.000188      0.000170     -0.000004      0.000000
    180 O3    c      -0.000331      0.000305     -0.002086      0.000000
    181 F     c       0.000343     -0.000022      0.000096      0.000000
    182 F     c       0.000309      0.000017      0.000201      0.000000
    183 F     c       0.000065     -0.000309      0.000084      0.000000
    184 F     c      -0.000215      0.000292      0.000552      0.000000
    185 F     c       0.000338      0.000189     -0.000675      0.000000
    186 F     c       0.000432     -0.000223      0.000363      0.000000
    187 O2    s      -0.000017      0.000659     -0.001450      0.000000
    188 O2    s      -0.000208      0.000135     -0.001044      0.000000
    189 O2    s      -0.000143     -0.000129     -0.000689      0.000000
    190 O2    s       0.000160     -0.000077     -0.000625      0.000000
    191 O2    s       0.000320     -0.000052     -0.000646      0.000000
    192 O2    s       0.000001      0.000021     -0.000151      0.000000
    193 O2    s       0.000424      0.000016      0.001068      0.000000
    194 O2    s      -0.000227     -0.000144     -0.000785      0.000000
    195 O2    s       0.000004     -0.000302      0.000527      0.000000
    196 O2    s       0.000105     -0.000022     -0.001006      0.000000
    197 O2    s       0.000227     -0.000540      0.002009      0.000000
    198 O2    s       0.000066     -0.000062      0.000006      0.000000
    199 O3    s       0.001311      0.001161      0.000561      0.000000
    200 O2    s      -0.000038     -0.000204      0.000085      0.000000
    201 O2    s       0.000068     -0.000061     -0.000229      0.000000
    202 O3    s       0.000118      0.000023      0.001065      0.000000
    203 O2    s      -0.000129     -0.000151      0.000195      0.000000
    204 O2    s       0.000181     -0.000022      0.000358      0.000000
    205 O2    s       0.000803      0.000175      0.000103      0.000000
    206 O2    s      -0.000041      0.000318      0.000023      0.000000
    207 O2    s       0.000305     -0.000359     -0.000869      0.000000
    208 O2    s      -0.000088     -0.000289     -0.000133      0.000000
    209 O3    s       0.000386     -0.000312     -0.000763      0.000000
    210 O2    s       0.000110      0.000084      0.000611      0.000000
    211 O2    s       0.000069     -0.000241     -0.000235      0.000000
    212 O2    s       0.000833     -0.000469     -0.001159      0.000000
    213 O2    s      -0.000015     -0.000059     -0.000247      0.000000
    214 O2    s       0.000000     -0.000238      0.000522      0.000000
    215 O2    s       0.000116      0.000042      0.000122      0.000000
    216 O2    s      -0.000204      0.000020     -0.000078      0.000000
    217 O2    s       0.000121      0.000090     -0.000054      0.000000
    218 O2    s      -0.000005      0.000036     -0.000625      0.000000
    219 O2    s      -0.000147     -0.000339     -0.000819      0.000000
    220 O2    s      -0.000117     -0.000106      0.000194      0.000000
    221 O2    s      -0.000228      0.000343      0.000794      0.000000
    222 O2    s       0.000003     -0.000194      0.000130      0.000000
    223 O2    s      -0.000056      0.000307      0.000562      0.000000
    224 O2    s       0.000110     -0.000365      0.000323      0.000000
    225 O2    s      -0.000014     -0.000036      0.000562      0.000000
    226 O2    s       0.000115      0.000186     -0.000491      0.000000
    227 O2    s      -0.000272      0.000349     -0.000327      0.000000
    228 O2    s       0.000090     -0.000036     -0.000415      0.000000
    229 O2    s       0.000196      0.000054      0.000009      0.000000
    230 O2    s      -0.000522     -0.000000     -0.001132      0.000000
    231 O2    s      -0.000005      0.000044      0.000044      0.000000
    232 O2    s      -0.000318      0.000320     -0.000316      0.000000
    233 O2    s       0.000112     -0.000104      0.000273      0.000000
    234 O2    s       0.000349     -0.000334      0.000664      0.000000
    235 O2    s       0.000178     -0.000036     -0.000489      0.000000
    236 O2    s      -0.000008      0.000060     -0.000490      0.000000
    237 O2    s      -0.000076      0.000072      0.000381      0.000000
    238 O2    s       0.000279     -0.000229     -0.000228      0.000000
    239 O3    s       0.000867      0.001963     -0.001583      0.000000
    240 O2    s       0.000123     -0.000189     -0.000063      0.000000
    241 O2    s       0.000135      0.000428     -0.000854      0.000000
    242 O2    s       0.000121      0.000102     -0.000526      0.000000
    243 O2    s      -0.000049     -0.000109      0.000393      0.000000
    244 O3    s      -0.000626     -0.000063      0.001498      0.000000
    245 O3    s       0.000266     -0.000274     -0.000973      0.000000
    246 O2    s       0.000294     -0.000206      0.000903      0.000000
    247 O2    s       0.000192     -0.000027      0.000008      0.000000
    248 O2    s      -0.000070      0.000644      0.000029      0.000000
    249 O2    s      -0.000067      0.000048      0.000089      0.000000
    250 O2    s      -0.000283      0.000365      0.000219      0.000000
    251 O2    s      -0.000003      0.000128     -0.000246      0.000000
    252 O2    s      -0.000217     -0.000114      0.000450      0.000000
    253 O3    s       0.000025      0.000581     -0.000768      0.000000
    254 O2    s       0.000257     -0.000203     -0.000101      0.000000
    255 O2    s      -0.000149     -0.000226     -0.000183      0.000000
    256 O2    s       0.000089      0.000138      0.000186      0.000000
    257 O2    s       0.000022     -0.000152     -0.000181      0.000000
    258 O2    s       0.000086     -0.000080      0.000371      0.000000
    259 O2    s       0.000195      0.000171      0.000716      0.000000
    260 O2    s       0.000224     -0.000203      0.000490      0.000000
    261 O2    s      -0.000021      0.000026     -0.000070      0.000000
    262 O2    s       0.000180     -0.000104     -0.000677      0.000000
    263 O2    s      -0.000003     -0.000018     -0.000146      0.000000
    264 O2    s       0.000033     -0.000662      0.001406      0.000000
    265 O3    s      -0.000745     -0.000243     -0.001245      0.000000
    266 O2    s      -0.000058      0.000059      0.000521      0.000000
    267 O2    s      -0.000042     -0.000029      0.000294      0.000000
    268 O2    s       0.000022     -0.000243      0.000380      0.000000
    269 O2    s       0.000069     -0.000232     -0.000106      0.000000
    270 O2    s       0.000119      0.000005     -0.000092      0.000000
    271 O2    s      -0.000205      0.000134     -0.000284      0.000000
    272 O2    s       0.000282     -0.000117     -0.000526      0.000000
    273 O2    s      -0.000062      0.000111     -0.000400      0.000000
    274 O3    s       0.000148     -0.000564     -0.002618      0.000000
    275 O2    s       0.000165      0.000159     -0.000522      0.000000
    276 O2    s      -0.000284      0.000183      0.001889      0.000000
    277 O2    s       0.000088      0.000046      0.000263      0.000000
    278 O2    s      -0.000126      0.000174      0.000247      0.000000
    279 O2    s       0.000221     -0.000030     -0.000506      0.000000
    280 O2    s       0.000118      0.000028     -0.000794      0.000000
    281 O3    s       0.000281      0.000210      0.001161      0.000000
    282 O2    s       0.000410     -0.000478     -0.000383      0.000000
    283 O2    s       0.000267     -0.000205     -0.000357      0.000000
    284 O2    s       0.000364      0.000266      0.000965      0.000000
    285 O2    s      -0.000110      0.000200     -0.000140      0.000000
    286 O2    s       0.000104     -0.000276     -0.000049      0.000000
    287 O2    s       0.000077      0.000008     -0.000058      0.000000
    288 O2    s      -0.000031      0.000284     -0.000322      0.000000
    289 O2    s      -0.000303      0.000227     -0.000697      0.000000
    290 O2    s      -0.000107     -0.000046      0.000439      0.000000
    291 O2    s       0.000043      0.000070      0.000055      0.000000
    292 O3    s       0.000159      0.000298      0.001458      0.000000
    293 O2    s      -0.000078      0.000193      0.000274      0.000000
    294 O2    s       0.000124      0.000094      0.000420      0.000000
    295 O2    s      -0.000340      0.000134      0.000365      0.000000
    296 O2    s       0.000118     -0.001317     -0.000763      0.000000
    297 O2    s       0.000026      0.000099      0.000055      0.000000
    298 O2    s      -0.000084      0.000377      0.000549      0.000000
    299 O2    s       0.000034     -0.000175     -0.000150      0.000000
    300 O2    s       0.000132      0.000129      0.000213      0.000000
    301 O2    s       0.000189     -0.000055      0.000104      0.000000
    302 O2    s       0.000086     -0.000021      0.000156      0.000000
    303 O2    s      -0.000538      0.000558     -0.000527      0.000000
    304 O2    s      -0.000080      0.000157     -0.000280      0.000000
    305 O2    s       0.000208      0.000130     -0.000472      0.000000
    306 O3    s      -0.000009      0.000576      0.000388      0.000000
    307 F     s       0.000287     -0.000090      0.000116      0.000000
    308 F     s       0.000186     -0.000068     -0.000008      0.000000
    309 F     s       0.000259     -0.000289      0.000305      0.000000
    310 F     s      -0.000193      0.000224      0.000581      0.000000
    311 F     s      -0.000338     -0.000561     -0.000805      0.000000
    312 F     s       0.000501     -0.000263      0.000021      0.000000
--------------------------------------------------------------------------------
  Maximum abs         0.002978      0.001963      0.006459      0.000000
--------------------------------------------------------------------------------


  Time to end of optimisation =     168.8365 seconds


  Peak dynamic memory used =      19.13 MB 


  Timing analysis for GULP :

--------------------------------------------------------------------------------
  Task / Subroutine                                          Time (Seconds)
--------------------------------------------------------------------------------
  Calculation of reciprocal space energy and derivatives          4.0599
  Calculation of real space energy and derivatives              147.9264
  Calculation of three-body energy and derivatives               14.7554
  Calculation of matrix inversion                                 1.8599
  Global summation overhead                                       0.0003
--------------------------------------------------------------------------------
  Total CPU time                                                168.8365
--------------------------------------------------------------------------------


  Dump file written as out.res                                                 
  CIF file written as out.cif                                                 


  Job Finished at 16:44.27 30th October    2016                               

