********************************************************************************
*                       GENERAL UTILITY LATTICE PROGRAM                        *
*                                 Julian Gale                                  *
*                      Nanochemistry Research Institute                        *
*                           Department of Chemistry                            *
*                    Curtin University, Western Australia                      *
********************************************************************************
* Version = 4.2.0 * Last modified =  20th January 2014                         *
********************************************************************************
*  optimise     - perform optimisation run                                     *
*  conp         - constant pressure calculation                                *
*  qok          - running with non charge neutral cell is OK                   *
********************************************************************************

  Job Started  at 15:00.42 30th October    2016                               

  Number of CPUs =     1


  Total number of configurations input =   1

********************************************************************************
*  Input for Configuration =   1                                               *
********************************************************************************

  Formula = Ge3Si57O120F6                                               

  Number of irreducible atoms/shells =     312


  Total number atoms/shells =     312

  Dimensionality = 3               :  Bulk   


  Charge on solid   =  -6.000000 =>neutralising background added


  Cartesian lattice vectors (Angstroms) :

       11.936080    0.000000    0.000000
       -5.948950   10.402134    0.000000
       -0.295777   -0.197645   29.402277

  Cell parameters (Angstroms/Degrees):

  a =      11.9361    alpha =  90.0482
  b =      11.9831    beta  =  90.5763
  c =      29.4044    gamma = 119.7651

  Initial cell volume =        3650.607333 Angs**3

  Temperature of configuration =  0.000     K 

  Pressure of configuration =         0.000 GPa 

  Fractional coordinates of asymmetric unit :

--------------------------------------------------------------------------------
   No.  Atomic       x           y          z         Charge      Occupancy
        Label      (Frac)      (Frac)     (Frac)        (e)         (Frac)  
--------------------------------------------------------------------------------
      1 Ge    c    0.699600    0.375700    0.033890     4.00000    1.000000    
      2 Si    c    0.617126 *  0.316278 *  0.366086 *   4.00000    1.000000    
      3 Si    c    0.670712 *  0.303825 *  0.699056 *   4.00000    1.000000    
      4 Si    c    0.304530 *  0.610286 *  0.529854 *   4.00000    1.000000    
      5 Si    c    0.374529 *  0.675158 *  0.860773 *   4.00000    1.000000    
      6 Si    c    0.317059 *  0.704465 *  0.192401 *   4.00000    1.000000    
      7 Si    c    0.370988 *  0.692909 *  0.292940 *   4.00000    1.000000    
      8 Si    c    0.315910 *  0.622939 *  0.960634 *   4.00000    1.000000    
      9 Si    c    0.312193 *  0.677090 *  0.632697 *   4.00000    1.000000    
     10 Si    c    0.617307 *  0.297847 *  0.799809 *   4.00000    1.000000    
     11 Si    c    0.674390 *  0.373507 *  0.468518 *   4.00000    1.000000    
     12 Si    c    0.684083 *  0.317581 *  0.132703 *   4.00000    1.000000    
     13 Si    c    0.526342 *  0.420809 *  0.967725 *   4.00000    1.000000    
     14 Si    c    0.576294 *  0.102899 *  0.301479 *   4.00000    1.000000    
     15 Si    c    0.883648 *  0.465950 *  0.636922 *   4.00000    1.000000    
     16 Ge    c    0.466851 *  0.559722 *  0.460219 *   4.00000    1.000000    
     17 Si    c    0.418876 *  0.888136 *  0.796101 *   4.00000    1.000000    
     18 Si    c    0.104526 *  0.531650 *  0.126143 *   4.00000    1.000000    
     19 Si    c    0.402519 *  0.522544 *  0.360403 *   4.00000    1.000000    
     20 Si    c    0.098149 *  0.580136 *  0.022763 *   4.00000    1.000000    
     21 Si    c    0.478049 *  0.898842 *  0.694748 *   4.00000    1.000000    
     22 Si    c    0.578887 *  0.469475 *  0.865188 *   4.00000    1.000000    
     23 Si    c    0.886232 *  0.406030 *  0.533918 *   4.00000    1.000000    
     24 Si    c    0.524494 *  0.112382 *  0.200277 *   4.00000    1.000000    
     25 Si    c    0.296661 *  0.396716 *  0.847885 *   4.00000    1.000000    
     26 Si    c    0.596861 *  0.905952 *  0.181354 *   4.00000    1.000000    
     27 Si    c    0.098198 *  0.688751 *  0.517411 *   4.00000    1.000000    
     28 Si    c    0.690900 *  0.595432 *  0.349237 *   4.00000    1.000000    
     29 Si    c    0.395834 *  0.100486 *  0.682288 *   4.00000    1.000000    
     30 Si    c    0.885984 *  0.292070 *  0.009388 *   4.00000    1.000000    
     31 Si    c    0.389425 *  0.289051 *  0.484438 *   4.00000    1.000000    
     32 Si    c    0.889499 *  0.602155 *  0.140980 *   4.00000    1.000000    
     33 Si    c    0.699125 *  0.098944 *  0.812013 *   4.00000    1.000000    
     34 Si    c    0.593156 *  0.701828 *  0.978266 *   4.00000    1.000000    
     35 Ge    c    0.101374 *  0.408922 *  0.641310 *   4.00000    1.000000    
     36 Si    c    0.296153 *  0.894066 *  0.311679 *   4.00000    1.000000    
     37 Si    c    0.246802 *  0.343823 *  0.948695 *   4.00000    1.000000    
     38 Si    c    0.652952 *  0.902667 *  0.282365 *   4.00000    1.000000    
     39 Si    c    0.092337 *  0.745045 *  0.618972 *   4.00000    1.000000    
     40 Si    c    0.746812 *  0.658588 *  0.451725 *   4.00000    1.000000    
     41 Si    c    0.337942 *  0.088000 *  0.782950 *   4.00000    1.000000    
     42 Si    c    0.900354 *  0.250158 *  0.112934 *   4.00000    1.000000    
     43 Si    c    0.330319 *  0.244022 *  0.380833 *   4.00000    1.000000    
     44 Si    c    0.893403 *  0.659696 *  0.038122 *   4.00000    1.000000    
     45 Si    c    0.755316 *  0.102443 *  0.711159 *   4.00000    1.000000    
     46 Si    c    0.655879 *  0.748801 *  0.877703 *   4.00000    1.000000    
     47 Si    c    0.089763 *  0.324668 *  0.545251 *   4.00000    1.000000    
     48 Si    c    0.244743 *  0.911636 *  0.211365 *   4.00000    1.000000    
     49 Si    c    0.970925 *  0.121499 *  0.962385 *   4.00000    1.000000    
     50 Si    c    0.871873 *  0.840274 *  0.297803 *   4.00000    1.000000    
     51 Si    c    0.144222 *  0.023071 *  0.632510 *   4.00000    1.000000    
     52 Si    c    0.031716 *  0.866514 *  0.464443 *   4.00000    1.000000    
     53 Si    c    0.118235 *  0.147214 *  0.796656 *   4.00000    1.000000    
     54 Si    c    0.844012 *  0.974135 *  0.130394 *   4.00000    1.000000    
     55 Si    c    0.117841 *  0.961087 *  0.363279 *   4.00000    1.000000    
     56 Si    c    0.843170 *  0.883865 *  0.028653 *   4.00000    1.000000    
     57 Si    c    0.034438 *  0.159034 *  0.694857 *   4.00000    1.000000    
     58 Si    c    0.877130 *  0.025033 *  0.861878 *   4.00000    1.000000    
     59 Si    c    0.145450 *  0.105540 *  0.530610 *   4.00000    1.000000    
     60 Si    c    0.963981 *  0.849426 *  0.195618 *   4.00000    1.000000    
     61 O2    c    0.926626 *  0.007782 *  0.998418 *   0.87073    1.000000    
     62 O2    c    0.994360 *  0.920741 *  0.330720 *   0.87073    1.000000    
     63 O2    c    0.061678 *  0.062638 *  0.663993 *   0.87073    1.000000    
     64 O2    c    0.070259 *  0.986569 *  0.496651 *   0.87073    1.000000    
     65 O2    c    0.996529 *  0.065641 *  0.828831 *   0.87073    1.000000    
     66 O2    c    0.922971 *  0.934800 *  0.165351 *   0.87073    1.000000    
     67 O2    c    0.330990 *  0.564023 *  0.321991 *   0.87073    1.000000    
     68 O2    c    0.439663 *  0.778621 *  0.660633 *   0.87073    1.000000    
     69 O2    c    0.224111 *  0.657583 *  0.991707 *   0.87073    1.000000    
     70 O2    c    0.655382 *  0.418314 *  0.833864 *   0.87073    1.000000    
     71 O2    c    0.577422 *  0.242937 *  0.171561 *   0.87073    1.000000    
     72 O2    c    0.760130 *  0.335064 *  0.500538 *   0.87073    1.000000    
     73 O3    c    0.563568 *  0.339420 *  0.000210 *   1.33043    1.000000    
     74 O2    c    0.754464 *  0.427170 *  0.666327 *   0.87073    1.000000    
     75 O2    c    0.652475 *  0.227066 *  0.335056 *   0.87073    1.000000    
     76 O3    c    0.418080 *  0.646657 *  0.496150 *   1.33043    1.000000    
     77 O2    c    0.232207 *  0.584748 *  0.158101 *   0.87073    1.000000    
     78 O2    c    0.339820 *  0.760652 *  0.826827 *   0.87073    1.000000    
     79 O2    c    0.123634 *  0.216041 *  0.969123 *   0.87073    1.000000    
     80 O2    c    0.779500 *  0.902263 *  0.302804 *   0.87073    1.000000    
     81 O2    c    0.091970 *  0.870583 *  0.638791 *   0.87073    1.000000    
     82 O2    c    0.879490 *  0.777861 *  0.469967 *   0.87073    1.000000    
     83 O2    c    0.210716 *  0.085269 *  0.803149 *   0.87073    1.000000    
     84 O2    c    0.906084 *  0.128318 *  0.134361 *   0.87073    1.000000    
     85 O2    c    0.209021 *  0.115254 *  0.359423 *   0.87073    1.000000    
     86 O2    c    0.909166 *  0.796242 *  0.022100 *   0.87073    1.000000    
     87 O2    c    0.880061 *  0.105893 *  0.689356 *   0.87073    1.000000    
     88 O2    c    0.783036 *  0.871528 *  0.857146 *   0.87073    1.000000    
     89 O2    c    0.090331 *  0.202146 *  0.520674 *   0.87073    1.000000    
     90 O2    c    0.118688 *  0.914131 *  0.191593 *   0.87073    1.000000    
     91 O2    c    0.922129 *  0.850896 *  0.247052 *   0.87073    1.000000    
     92 O2    c    0.122262 *  0.050519 *  0.580826 *   0.87073    1.000000    
     93 O2    c    0.934335 *  0.061008 *  0.912569 *   0.87073    1.000000    
     94 O2    c    0.065783 *  0.134306 *  0.746077 *   0.87073    1.000000    
     95 O2    c    0.856538 *  0.930813 *  0.080601 *   0.87073    1.000000    
     96 O2    c    0.068975 *  0.917826 *  0.413675 *   0.87073    1.000000    
     97 O2    c    0.897832 *  0.201388 *  0.971545 *   0.87073    1.000000    
     98 O2    c    0.789004 *  0.689482 *  0.310713 *   0.87073    1.000000    
     99 O2    c    0.297249 *  0.099915 *  0.643539 *   0.87073    1.000000    
    100 O2    c    0.099403 *  0.782732 *  0.477417 *   0.87073    1.000000    
    101 O2    c    0.199453 *  0.298445 *  0.809481 *   0.87073    1.000000    
    102 O2    c    0.692725 *  0.906854 *  0.142634 *   0.87073    1.000000    
    103 O2    c    0.197928 *  0.890470 *  0.350051 *   0.87073    1.000000    
    104 O2    c    0.691081 *  0.803981 *  0.016480 *   0.87073    1.000000    
    105 O3    c    0.111534 *  0.304392 *  0.682794 *   1.33043    1.000000    
    106 O2    c    0.796256 *  0.097087 *  0.850894 *   0.87073    1.000000    
    107 O2    c    0.298660 *  0.178505 *  0.520190 *   0.87073    1.000000    
    108 O2    c    0.895601 *  0.701140 *  0.179926 *   0.87073    1.000000    
    109 O2    c    0.315369 *  0.642356 *  0.241752 *   0.87073    1.000000    
    110 O2    c    0.355859 *  0.663826 *  0.581233 *   0.87073    1.000000    
    111 O2    c    0.314079 *  0.678735 *  0.910194 *   0.87073    1.000000    
    112 O2    c    0.672524 *  0.359210 *  0.749887 *   0.87073    1.000000    
    113 O3    c    0.612625 *  0.303593 *  0.085615 *   1.33043    1.000000    
    114 O2    c    0.672868 *  0.322800 *  0.416922 *   0.87073    1.000000    
    115 O2    c    0.369004 *  0.336098 *  0.967835 *   0.87073    1.000000    
    116 O2    c    0.662880 *  0.032801 *  0.303420 *   0.87073    1.000000    
    117 O2    c    0.960569 *  0.622929 *  0.636348 *   0.87073    1.000000    
    118 O3    c    0.633838 *  0.677045 *  0.470089 *   1.33043    1.000000    
    119 O2    c    0.330741 *  0.956298 *  0.800185 *   0.87073    1.000000    
    120 O2    c    0.032681 *  0.376537 *  0.129441 *   0.87073    1.000000    
    121 O2    c    0.319858 *  0.364446 *  0.360854 *   0.87073    1.000000    
    122 O2    c    0.026856 *  0.664829 *  0.022584 *   0.87073    1.000000    
    123 O2    c    0.633665 *  0.969543 *  0.692816 *   0.87073    1.000000    
    124 O2    c    0.664888 *  0.624841 *  0.860949 *   0.87073    1.000000    
    125 O2    c    0.953508 *  0.317866 *  0.529980 *   0.87073    1.000000    
    126 O2    c    0.368235 *  0.045010 *  0.195413 *   0.87073    1.000000    
    127 O3    c    0.750119 *  0.281644 *  0.001716 *   1.33043    1.000000    
    128 O2    c    0.687904 *  0.459064 *  0.344466 *   0.87073    1.000000    
    129 O2    c    0.527413 *  0.236501 *  0.675889 *   0.87073    1.000000    
    130 O2    c    0.228836 *  0.684411 *  0.511845 *   0.87073    1.000000    
    131 O2    c    0.299334 *  0.531512 *  0.838595 *   0.87073    1.000000    
    132 O2    c    0.461352 *  0.774985 *  0.171560 *   0.87073    1.000000    
    133 O2    c    0.296610 *  0.759834 *  0.317028 *   0.87073    1.000000    
    134 O2    c    0.458089 *  0.702478 *  0.984842 *   0.87073    1.000000    
    135 O3    c    0.252301 *  0.542944 *  0.657878 *   1.33043    1.000000    
    136 O2    c    0.694290 *  0.229715 *  0.821397 *   0.87073    1.000000    
    137 O2    c    0.529625 *  0.297045 *  0.487942 *   0.87073    1.000000    
    138 O2    c    0.759946 *  0.467542 *  0.150601 *   0.87073    1.000000    
    139 O3    c    0.768462 *  0.544483 *  0.017336 *   1.33043    1.000000    
    140 O2    c    0.462557 *  0.252732 *  0.363950 *   0.87073    1.000000    
    141 O2    c    0.747735 *  0.225307 *  0.692890 *   0.87073    1.000000    
    142 O2    c    0.210106 *  0.455167 *  0.525927 *   0.87073    1.000000    
    143 O2    c    0.530900 *  0.749715 *  0.856973 *   0.87073    1.000000    
    144 O2    c    0.243048 *  0.787018 *  0.189531 *   0.87073    1.000000    
    145 O2    c    0.527241 *  0.773781 *  0.299394 *   0.87073    1.000000    
    146 O2    c    0.240605 *  0.467731 *  0.967517 *   0.87073    1.000000    
    147 O2    c    0.218204 *  0.740596 *  0.635680 *   0.87073    1.000000    
    148 O2    c    0.461362 *  0.214609 *  0.803756 *   0.87073    1.000000    
    149 O2    c    0.739994 *  0.527695 *  0.470847 *   0.87073    1.000000    
    150 O2    c    0.777910 *  0.253864 *  0.133536 *   0.87073    1.000000    
    151 O2    c    0.225009 *  0.325637 *  0.894288 *   0.87073    1.000000    
    152 O2    c    0.670605 *  0.905822 *  0.227931 *   0.87073    1.000000    
    153 O2    c    0.091750 *  0.755431 *  0.564093 *   0.87073    1.000000    
    154 O2    c    0.757597 *  0.666003 *  0.396411 *   0.87073    1.000000    
    155 O2    c    0.319339 *  0.091461 *  0.728489 *   0.87073    1.000000    
    156 O2    c    0.895314 *  0.232665 *  0.058638 *   0.87073    1.000000    
    157 O2    c    0.317913 *  0.230703 *  0.435076 *   0.87073    1.000000    
    158 O2    c    0.886687 *  0.667202 *  0.093772 *   0.87073    1.000000    
    159 O2    c    0.773157 *  0.102136 *  0.765828 *   0.87073    1.000000    
    160 O2    c    0.670706 *  0.770022 *  0.932284 *   0.87073    1.000000    
    161 O3    c    0.095811 *  0.300390 *  0.597758 *   1.33043    1.000000    
    162 O2    c    0.225662 *  0.904024 *  0.265765 *   0.87073    1.000000    
    163 O2    c    0.577721 *  0.563723 *  0.989509 *   0.87073    1.000000    
    164 O2    c    0.434651 *  0.018566 *  0.323505 *   0.87073    1.000000    
    165 O3    c    0.961170 *  0.407453 *  0.661988 *   1.33043    1.000000    
    166 O3    c    0.395532 *  0.419935 *  0.496204 *   1.33043    1.000000    
    167 O2    c    0.560964 *  0.971498 *  0.819299 *   0.87073    1.000000    
    168 O2    c    0.014439 *  0.584527 *  0.146322 *   0.87073    1.000000    
    169 O2    c    0.548550 *  0.574484 *  0.341100 *   0.87073    1.000000    
    170 O2    c    0.005532 *  0.437529 *  0.002705 *   0.87073    1.000000    
    171 O2    c    0.414909 *  0.978647 *  0.671912 *   0.87073    1.000000    
    172 O2    c    0.437046 *  0.410699 *  0.841755 *   0.87073    1.000000    
    173 O2    c    0.974704 *  0.546990 *  0.512179 *   0.87073    1.000000    
    174 O2    c    0.583537 *  0.032506 *  0.175182 *   0.87073    1.000000    
    175 O2    c    0.576653 *  0.160913 *  0.251760 *   0.87073    1.000000    
    176 O2    c    0.837518 *  0.410453 *  0.584640 *   0.87073    1.000000    
    177 O2    c    0.580714 *  0.423469 *  0.916749 *   0.87073    1.000000    
    178 O2    c    0.420980 *  0.839993 *  0.744553 *   0.87073    1.000000    
    179 O2    c    0.146399 *  0.575998 *  0.074530 *   0.87073    1.000000    
    180 O3    c    0.395929 *  0.579725 *  0.408217 *   1.33043    1.000000    
    181 F     c    0.445870 *  0.901865 *  0.247287 *   0.56000    1.000000    
    182 F     c    0.095245 *  0.510560 *  0.592826 *   0.56000    1.000000    
    183 F     c    0.442519 *  0.554431 *  0.914059 *   0.56000    1.000000    
    184 F     c    0.546517 *  0.101721 *  0.747102 *   0.56000    1.000000    
    185 F     c    0.849839 *  0.434368 *  0.069459 *   0.56000    1.000000    
    186 F     c    0.522847 *  0.468015 *  0.424085 *   0.56000    1.000000    
    187 O2    s    0.922041 *  0.006398 *  0.997831 *  -2.87073    1.000000    
    188 O2    s    0.994313 *  0.916256 *  0.330638 *  -2.87073    1.000000    
    189 O2    s    0.068314 *  0.068009 *  0.663559 *  -2.87073    1.000000    
    190 O2    s    0.074308 *  0.985974 *  0.496721 *  -2.87073    1.000000    
    191 O2    s    0.996407 *  0.070014 *  0.829034 *  -2.87073    1.000000    
    192 O2    s    0.918925 *  0.929592 *  0.164913 *  -2.87073    1.000000    
    193 O2    s    0.342310 *  0.573196 *  0.322819 *  -2.87073    1.000000    
    194 O2    s    0.430129 *  0.780314 *  0.661194 *  -2.87073    1.000000    
    195 O2    s    0.219740 *  0.645930 *  0.991956 *  -2.87073    1.000000    
    196 O2    s    0.643558 *  0.411167 *  0.833575 *  -2.87073    1.000000    
    197 O2    s    0.582766 *  0.236653 *  0.170623 *  -2.87073    1.000000    
    198 O2    s    0.763720 *  0.346359 *  0.500480 *  -2.87073    1.000000    
    199 O3    s    0.569780 *  0.350717 *  0.999291 *  -3.33043    1.000000    
    200 O2    s    0.759074 *  0.418852 *  0.666628 *  -2.87073    1.000000    
    201 O2    s    0.641046 *  0.223945 *  0.334951 *  -2.87073    1.000000    
    202 O3    s    0.408993 *  0.636605 *  0.497338 *  -3.33043    1.000000    
    203 O2    s    0.227556 *  0.591493 *  0.158290 *  -2.87073    1.000000    
    204 O2    s    0.351567 *  0.765007 *  0.827155 *  -2.87073    1.000000    
    205 O2    s    0.119577 *  0.218768 *  0.966345 *  -2.87073    1.000000    
    206 O2    s    0.776200 *  0.895687 *  0.300177 *  -2.87073    1.000000    
    207 O2    s    0.097448 *  0.873050 *  0.636055 *  -2.87073    1.000000    
    208 O2    s    0.882119 *  0.774710 *  0.467343 *  -2.87073    1.000000    
    209 O2    s    0.214201 *  0.092067 *  0.800398 *  -2.87073    1.000000    
    210 O2    s    0.898964 *  0.124680 *  0.131756 *  -2.87073    1.000000    
    211 O2    s    0.211950 *  0.112322 *  0.362018 *  -2.87073    1.000000    
    212 O2    s    0.900394 *  0.791611 *  0.024450 *  -2.87073    1.000000    
    213 O2    s    0.882178 *  0.110872 *  0.692233 *  -2.87073    1.000000    
    214 O2    s    0.779879 *  0.875127 *  0.859748 *  -2.87073    1.000000    
    215 O2    s    0.096070 *  0.204013 *  0.524059 *  -2.87073    1.000000    
    216 O2    s    0.115367 *  0.907009 *  0.194057 *  -2.87073    1.000000    
    217 O2    s    0.921109 *  0.849543 *  0.247066 *  -2.87073    1.000000    
    218 O2    s    0.127375 *  0.053828 *  0.580723 *  -2.87073    1.000000    
    219 O2    s    0.932150 *  0.063913 *  0.912632 *  -2.87073    1.000000    
    220 O2    s    0.068532 *  0.138460 *  0.746487 *  -2.87073    1.000000    
    221 O2    s    0.853614 *  0.930748 *  0.080731 *  -2.87073    1.000000    
    222 O2    s    0.070421 *  0.917041 *  0.413572 *  -2.87073    1.000000    
    223 O2    s    0.904505 *  0.202457 *  0.974606 *  -2.87073    1.000000    
    224 O2    s    0.787626 *  0.695577 *  0.313297 *  -2.87073    1.000000    
    225 O2    s    0.291086 *  0.091873 *  0.646291 *  -2.87073    1.000000    
    226 O2    s    0.092087 *  0.781971 *  0.480131 *  -2.87073    1.000000    
    227 O2    s    0.201037 *  0.292783 *  0.812140 *  -2.87073    1.000000    
    228 O2    s    0.698699 *  0.913873 *  0.145396 *  -2.87073    1.000000    
    229 O2    s    0.199509 *  0.898412 *  0.347478 *  -2.87073    1.000000    
    230 O2    s    0.697597 *  0.802433 *  0.014021 *  -2.87073    1.000000    
    231 O3    s    0.102196 *  0.294946 *  0.681426 *  -3.33043    1.000000    
    232 O2    s    0.795012 *  0.089643 *  0.848134 *  -2.87073    1.000000    
    233 O2    s    0.292157 *  0.182273 *  0.517597 *  -2.87073    1.000000    
    234 O2    s    0.902358 *  0.706951 *  0.177602 *  -2.87073    1.000000    
    235 O2    s    0.321252 *  0.653982 *  0.241914 *  -2.87073    1.000000    
    236 O2    s    0.346330 *  0.659670 *  0.581126 *  -2.87073    1.000000    
    237 O2    s    0.320307 *  0.672676 *  0.910415 *  -2.87073    1.000000    
    238 O2    s    0.666749 *  0.347343 *  0.749731 *  -2.87073    1.000000    
    239 O3    s    0.625768 *  0.309714 *  0.087186 *  -3.33043    1.000000    
    240 O2    s    0.667142 *  0.327232 *  0.416755 *  -2.87073    1.000000    
    241 O2    s    0.371258 *  0.345523 *  0.965680 *  -2.87073    1.000000    
    242 O2    s    0.652867 *  0.026632 *  0.301040 *  -2.87073    1.000000    
    243 O2    s    0.966868 *  0.620147 *  0.634542 *  -2.87073    1.000000    
    244 O3    s    0.634998 *  0.667210 *  0.467395 *  -3.33043    1.000000    
    245 O2    s    0.340592 *  0.963182 *  0.797937 *  -2.87073    1.000000    
    246 O2    s    0.026527 *  0.379697 *  0.127395 *  -2.87073    1.000000    
    247 O2    s    0.328914 *  0.367070 *  0.362913 *  -2.87073    1.000000    
    248 O2    s    0.020995 *  0.655343 *  0.024176 *  -2.87073    1.000000    
    249 O2    s    0.629927 *  0.976046 *  0.694976 *  -2.87073    1.000000    
    250 O2    s    0.655072 *  0.621913 *  0.863162 *  -2.87073    1.000000    
    251 O2    s    0.959589 *  0.327760 *  0.531877 *  -2.87073    1.000000    
    252 O2    s    0.371201 *  0.037825 *  0.197606 *  -2.87073    1.000000    
    253 O3    s    0.761132 *  0.289073 *  0.004769 *  -3.33043    1.000000    
    254 O2    s    0.680852 *  0.458273 *  0.347213 *  -2.87073    1.000000    
    255 O2    s    0.528258 *  0.229099 *  0.678973 *  -2.87073    1.000000    
    256 O2    s    0.221579 *  0.677572 *  0.514272 *  -2.87073    1.000000    
    257 O2    s    0.306776 *  0.532229 *  0.841876 *  -2.87073    1.000000    
    258 O2    s    0.460470 *  0.781309 *  0.174783 *  -2.87073    1.000000    
    259 O2    s    0.304167 *  0.767180 *  0.313966 *  -2.87073    1.000000    
    260 O2    s    0.457509 *  0.694401 *  0.981703 *  -2.87073    1.000000    
    261 O3    s    0.247908 *  0.547427 *  0.654077 *  -3.33043    1.000000    
    262 O2    s    0.686905 *  0.222936 *  0.818167 *  -2.87073    1.000000    
    263 O2    s    0.530879 *  0.304413 *  0.485471 *  -2.87073    1.000000    
    264 O2    s    0.766367 *  0.467312 *  0.147807 *  -2.87073    1.000000    
    265 O3    s    0.778303 *  0.547011 *  0.020602 *  -3.33043    1.000000    
    266 O2    s    0.465110 *  0.258723 *  0.365971 *  -2.87073    1.000000    
    267 O2    s    0.740271 *  0.220154 *  0.695485 *  -2.87073    1.000000    
    268 O2    s    0.206802 *  0.457163 *  0.528360 *  -2.87073    1.000000    
    269 O2    s    0.528268 *  0.741769 *  0.859611 *  -2.87073    1.000000    
    270 O2    s    0.251037 *  0.791773 *  0.192149 *  -2.87073    1.000000    
    271 O2    s    0.524728 *  0.779456 *  0.296921 *  -2.87073    1.000000    
    272 O2    s    0.249001 *  0.470576 *  0.964872 *  -2.87073    1.000000    
    273 O2    s    0.213310 *  0.734723 *  0.633545 *  -2.87073    1.000000    
    274 O2    s    0.464433 *  0.209606 *  0.801122 *  -2.87073    1.000000    
    275 O2    s    0.733451 *  0.524291 *  0.468658 *  -2.87073    1.000000    
    276 O2    s    0.782029 *  0.259878 *  0.131204 *  -2.87073    1.000000    
    277 O2    s    0.234774 *  0.335009 *  0.895203 *  -2.87073    1.000000    
    278 O2    s    0.661023 *  0.905496 *  0.228877 *  -2.87073    1.000000    
    279 O2    s    0.092478 *  0.747236 *  0.564783 *  -2.87073    1.000000    
    280 O2    s    0.749235 *  0.657580 *  0.396826 *  -2.87073    1.000000    
    281 O2    s    0.329332 *  0.092034 *  0.729356 *  -2.87073    1.000000    
    282 O2    s    0.894934 *  0.240344 *  0.059742 *  -2.87073    1.000000    
    283 O2    s    0.326168 *  0.237840 *  0.433879 *  -2.87073    1.000000    
    284 O2    s    0.887582 *  0.659203 *  0.093632 *  -2.87073    1.000000    
    285 O2    s    0.763513 *  0.101835 *  0.764966 *  -2.87073    1.000000    
    286 O2    s    0.661106 *  0.760731 *  0.931341 *  -2.87073    1.000000    
    287 O3    s    0.095510 *  0.310099 *  0.595060 *  -3.33043    1.000000    
    288 O2    s    0.235093 *  0.903798 *  0.264776 *  -2.87073    1.000000    
    289 O2    s    0.573976 *  0.564451 *  0.986084 *  -2.87073    1.000000    
    290 O2    s    0.434901 *  0.014144 *  0.319941 *  -2.87073    1.000000    
    291 O3    s    0.963359 *  0.413828 *  0.657914 *  -3.33043    1.000000    
    292 O3    s    0.399792 *  0.414978 *  0.492553 *  -3.33043    1.000000    
    293 O2    s    0.560935 *  0.976621 *  0.816087 *  -2.87073    1.000000    
    294 O2    s    0.010661 *  0.580656 *  0.143598 *  -2.87073    1.000000    
    295 O2    s    0.549836 *  0.571534 *  0.343916 *  -2.87073    1.000000    
    296 O2    s    0.003060 *  0.437987 *  0.005567 *  -2.87073    1.000000    
    297 O2    s    0.419536 *  0.983557 *  0.675393 *  -2.87073    1.000000    
    298 O2    s    0.436710 *  0.415502 *  0.844874 *  -2.87073    1.000000    
    299 O2    s    0.978819 *  0.547531 *  0.515005 *  -2.87073    1.000000    
    300 O2    s    0.578672 *  0.026986 *  0.178459 *  -2.87073    1.000000    
    301 O2    s    0.571129 *  0.149630 *  0.251682 *  -2.87073    1.000000    
    302 O2    s    0.847131 *  0.415263 *  0.584238 *  -2.87073    1.000000    
    303 O2    s    0.575075 *  0.428123 *  0.916416 *  -2.87073    1.000000    
    304 O2    s    0.426605 *  0.851028 *  0.744761 *  -2.87073    1.000000    
    305 O2    s    0.137002 *  0.571596 *  0.074912 *  -2.87073    1.000000    
    306 O3    s    0.401215 *  0.572408 *  0.406570 *  -3.33043    1.000000    
    307 F     s    0.445678 *  0.901703 *  0.247354 *  -1.56000    1.000000    
    308 F     s    0.095418 *  0.503804 *  0.595839 *  -1.56000    1.000000    
    309 F     s    0.441796 *  0.555246 *  0.914149 *  -1.56000    1.000000    
    310 F     s    0.546539 *  0.102243 *  0.747063 *  -1.56000    1.000000    
    311 F     s    0.839179 *  0.430192 *  0.067144 *  -1.56000    1.000000    
    312 F     s    0.518911 *  0.474235 *  0.426533 *  -1.56000    1.000000    
--------------------------------------------------------------------------------



********************************************************************************
*  General input information                                                   *
********************************************************************************

  Species output for all configurations : 

--------------------------------------------------------------------------------
  Species    Type    Atomic    Atomic    Charge       Radii (Angs)     Library
                     Number     Mass       (e)     Cova   Ionic  VDW   Symbol
--------------------------------------------------------------------------------
    Si       Core       14      28.09   4.000000   1.200  0.000  2.100          
    O1       Core        8      16.00   1.733957   0.730  0.000  1.360          
    O1       Shell       8       0.00  -3.733957   0.730  0.000  1.360          
    O2       Core        8      16.00   0.870733   0.730  0.000  1.360          
    O2       Shell       8       0.00  -2.870733   0.730  0.000  1.360          
    O3       Core        8      16.00   1.330431   0.730  0.000  1.360          
    O3       Shell       8       0.00  -3.330431   0.730  0.000  1.360          
    F        Core        9      19.00   0.560000   0.710  0.000  1.300          
    F        Shell       9       0.00  -1.560000   0.710  0.000  1.300          
    Ge       Core       32      72.61   4.000000   1.170  0.000  1.750          
--------------------------------------------------------------------------------


  Lattice summation method               =    Ewald          (3-D)
                                         =    Parry          (2-D)
                                         =    Saunders et al (1-D)
  Accuracy factor for lattice sums       =   12.000


  Time limit = Infinity

  Maximum range for interatomic potentials =        16.000000 Angstroms

  Taper potentials to zero over   1.0000 Angstroms using polynomial

  General interatomic potentials :

--------------------------------------------------------------------------------
Atom  Types   Potential         A         B         C         D     Cutoffs(Ang)
  1     2                                                            Min    Max 
--------------------------------------------------------------------------------
Si   c O1   s Buckingham    0.132E+04 0.318      10.1      0.00     0.000 16.000
Si   c O2   s Buckingham    0.132E+04 0.318      10.1      0.00     0.000 16.000
Si   c O3   s Buckingham    0.132E+04 0.318      10.1      0.00     0.000 16.000
Ge   c O1   s Buckingham    0.150E+04 0.326      16.8      0.00     0.000 16.000
Ge   c O2   s Buckingham    0.150E+04 0.326      16.8      0.00     0.000 16.000
Ge   c O3   s Buckingham    0.150E+04 0.326      16.8      0.00     0.000 16.000
O1   s O1   s Buckingham    0.228E+05 0.149      10.9      0.00     0.000 16.000
O1   s O2   s Buckingham    0.228E+05 0.149      10.9      0.00     0.000 16.000
O1   s O3   s Buckingham    0.228E+05 0.149      10.9      0.00     0.000 16.000
O2   s O2   s Buckingham    0.228E+05 0.149      10.9      0.00     0.000 16.000
O2   s O3   s Buckingham    0.228E+05 0.149      10.9      0.00     0.000 16.000
O3   s O3   s Buckingham    0.228E+05 0.149      10.9      0.00     0.000 16.000
Si   c F    s Buckingham     977.     0.282      0.00      0.00     0.000 16.000
Ge   c F    s Buckingham     681.     0.320      0.00      0.00     0.000 16.000
F    s F    s Buckingham     540.     0.262      0.00      0.00     0.000 16.000
O1   s F    s Buckingham    0.168E+04 0.268      0.00      0.00     0.000 16.000
O2   s F    s Buckingham    0.168E+04 0.268      0.00      0.00     0.000 16.000
O3   s F    s Buckingham    0.168E+04 0.268      0.00      0.00     0.000 16.000
O2   c O2   s Spring (c-s)   76.0      0.00      0.00      0.00     0.000  0.800
O3   c O3   s Spring (c-s)   128.      0.00      0.00      0.00     0.000  0.800
O1   c O1   s Spring (c-s)   180.      0.00      0.00      0.00     0.000  0.800
F    c F    s Spring (c-s)   33.5      0.00      0.00      0.00     0.000  0.800
--------------------------------------------------------------------------------

  General Three-body potentials :

  Harmonic form:

--------------------------------------------------------------------------------
Atom    Atom    Atom           Force Constants            Theta     Cutoffs  
  1       2       3     (eVrad**-2/eVrad**-3/eVrad**-4)   (deg)  1-2  1-3  2-3
--------------------------------------------------------------------------------
Si    c O1    s O1    s  1.261        0.0000    0.0000   109.470 0.00 0.00 0.00
                                                                 1.90 1.90 3.50
Si    c O1    s O2    s  1.261        0.0000    0.0000   109.470 0.00 0.00 0.00
                                                                 1.90 1.90 3.50
Si    c O2    s O2    s  1.261        0.0000    0.0000   109.470 0.00 0.00 0.00
                                                                 1.90 1.90 3.50
--------------------------------------------------------------------------------

********************************************************************************
*  Output for configuration   1                                                *
********************************************************************************


  Components of energy : 

--------------------------------------------------------------------------------
  Interatomic potentials     =        2067.04018496 eV
  Three-body potentials      =           0.49319891 eV
  Monopole - monopole (real) =       -6615.34983145 eV
  Monopole - monopole (recip)=       -3173.12398792 eV
  Monopole - monopole (total)=       -9788.47381938 eV
  Neutralising energy        =          -6.46368581 eV
--------------------------------------------------------------------------------
  Total lattice energy       =       -7727.40412131 eV
--------------------------------------------------------------------------------
  Total lattice energy       =         -745576.3735 kJ/(mole unit cells)
--------------------------------------------------------------------------------


  Number of variables =      939

  Maximum number of calculations  =          5000
  Maximum Hessian update interval =            10
  Maximum step size               =   0.100000000
  Maximum parameter tolerance     =   0.000010000
  Maximum function  tolerance     =   0.000010000
  Maximum gradient  tolerance     =   0.001000000
  Maximum gradient  component     =   0.010000000

  Symmetry not applied to optimisation

  Cell parameters to be optimised using strains

  Newton-Raphson optimiser to be used

  BFGS hessian update to be used

  Dumpfile to be written after every cycle

  Start of bulk optimisation :

  Cycle:      0 Energy:     -7727.404121  Gnorm:      0.000450  CPU:    2.011
  ** Hessian calculated **
  Cycle:      1 Energy:     -7727.416793  Gnorm:      0.000399  CPU:    6.588
  Cycle:      2 Energy:     -7727.431540  Gnorm:      0.000451  CPU:   10.793
  Cycle:      3 Energy:     -7727.446789  Gnorm:      0.000784  CPU:   14.997
  Cycle:      4 Energy:     -7727.453281  Gnorm:      0.000822  CPU:   19.201
  Cycle:      5 Energy:     -7727.454879  Gnorm:      0.000547  CPU:   23.405
  Cycle:      6 Energy:     -7727.455280  Gnorm:      0.000313  CPU:   27.610
  Cycle:      7 Energy:     -7727.455380  Gnorm:      0.000168  CPU:   31.811
  Cycle:      8 Energy:     -7727.455397  Gnorm:      0.000119  CPU:   34.660
  Cycle:      9 Energy:     -7727.455406  Gnorm:      0.000084  CPU:   37.509
  Cycle:     10 Energy:     -7727.455410  Gnorm:      0.000059  CPU:   40.354
  ** Hessian calculated **
  Cycle:     11 Energy:     -7727.455410  Gnorm:      0.000031  CPU:   44.887


  **** Optimisation achieved ****


  Final energy =   -7727.45540991 eV
  Final Gnorm  =       0.00002257

  Components of energy : 

--------------------------------------------------------------------------------
  Interatomic potentials     =        2067.26421577 eV
  Three-body potentials      =           0.48671618 eV
  Monopole - monopole (real) =       -6616.85122650 eV
  Monopole - monopole (recip)=       -3171.89393340 eV
  Monopole - monopole (total)=       -9788.74515990 eV
  Neutralising energy        =          -6.46118196 eV
--------------------------------------------------------------------------------
  Total lattice energy       =       -7727.45540991 eV
--------------------------------------------------------------------------------
  Total lattice energy       =         -745581.3221 kJ/(mole unit cells)
--------------------------------------------------------------------------------

  Final fractional coordinates of atoms :

--------------------------------------------------------------------------------
   No.  Atomic        x           y          z          Radius
        Label       (Frac)      (Frac)     (Frac)       (Angs) 
--------------------------------------------------------------------------------
     1  Ge    c     0.699600    0.375700    0.033890    0.000000
     2  Si    c     0.599215    0.300165    0.366048    0.000000
     3  Si    c     0.653704    0.286026    0.698669    0.000000
     4  Si    c     0.286968    0.592862    0.530260    0.000000
     5  Si    c     0.363217    0.661633    0.861296    0.000000
     6  Si    c     0.303929    0.692222    0.193211    0.000000
     7  Si    c     0.355554    0.678923    0.293762    0.000000
     8  Si    c     0.307941    0.610339    0.961397    0.000000
     9  Si    c     0.294931    0.660123    0.633077    0.000000
    10  Si    c     0.602649    0.282816    0.799504    0.000000
    11  Si    c     0.656185    0.355657    0.468540    0.000000
    12  Si    c     0.672924    0.307597    0.132362    0.000000
    13  Si    c     0.518095    0.408558    0.967401    0.000000
    14  Si    c     0.560133    0.088545    0.301218    0.000000
    15  Si    c     0.866381    0.448430    0.636657    0.000000
    16  Ge    c     0.448835    0.541617    0.460744    0.000000
    17  Si    c     0.404616    0.873478    0.796553    0.000000
    18  Si    c     0.093292    0.519404    0.127232    0.000000
    19  Si    c     0.384749    0.506219    0.360950    0.000000
    20  Si    c     0.092763    0.572280    0.024009    0.000000
    21  Si    c     0.461768    0.881706    0.695083    0.000000
    22  Si    c     0.567515    0.456698    0.864620    0.000000
    23  Si    c     0.868751    0.388617    0.533669    0.000000
    24  Si    c     0.510930    0.100347    0.199791    0.000000
    25  Si    c     0.285357    0.383626    0.847857    0.000000
    26  Si    c     0.583031    0.893250    0.181759    0.000000
    27  Si    c     0.080693    0.671250    0.517502    0.000000
    28  Si    c     0.672962    0.579379    0.349374    0.000000
    29  Si    c     0.379129    0.083006    0.682351    0.000000
    30  Si    c     0.880247    0.285295    0.009471    0.000000
    31  Si    c     0.371245    0.270630    0.484574    0.000000
    32  Si    c     0.879467    0.591284    0.141878    0.000000
    33  Si    c     0.684572    0.083969    0.812148    0.000000
    34  Si    c     0.585412    0.689386    0.978324    0.000000
    35  Ge    c     0.084124    0.391863    0.641247    0.000000
    36  Si    c     0.280370    0.880055    0.311930    0.000000
    37  Si    c     0.238532    0.331446    0.948918    0.000000
    38  Si    c     0.637097    0.888446    0.282842    0.000000
    39  Si    c     0.074905    0.727612    0.619042    0.000000
    40  Si    c     0.728759    0.640881    0.451910    0.000000
    41  Si    c     0.323430    0.072928    0.783142    0.000000
    42  Si    c     0.888865    0.238957    0.113090    0.000000
    43  Si    c     0.312529    0.227582    0.380932    0.000000
    44  Si    c     0.891873    0.656726    0.039264    0.000000
    45  Si    c     0.738972    0.085270    0.711171    0.000000
    46  Si    c     0.644812    0.735666    0.877497    0.000000
    47  Si    c     0.072179    0.307126    0.545306    0.000000
    48  Si    c     0.231249    0.899182    0.211461    0.000000
    49  Si    c     0.961551    0.112027    0.962408    0.000000
    50  Si    c     0.855029    0.824872    0.298234    0.000000
    51  Si    c     0.127059    0.005523    0.632873    0.000000
    52  Si    c     0.013674    0.849038    0.464786    0.000000
    53  Si    c     0.105385    0.134364    0.796940    0.000000
    54  Si    c     0.830708    0.962271    0.131003    0.000000
    55  Si    c     0.100700    0.945056    0.363699    0.000000
    56  Si    c     0.834391    0.874988    0.029226    0.000000
    57  Si    c     0.018474    0.142560    0.695157    0.000000
    58  Si    c     0.864407    0.012664    0.862289    0.000000
    59  Si    c     0.127146    0.087485    0.530862    0.000000
    60  Si    c     0.950463    0.836992    0.196312    0.000000
    61  O2    c     0.914890    0.999703    0.999151    0.000000
    62  O2    c     0.976626    0.903659    0.331500    0.000000
    63  O2    c     0.045619    0.045374    0.664798    0.000000
    64  O2    c     0.050655    0.967812    0.497400    0.000000
    65  O2    c     0.984455    0.054516    0.829553    0.000000
    66  O2    c     0.908970    0.922048    0.165979    0.000000
    67  O2    c     0.314234    0.549525    0.322727    0.000000
    68  O2    c     0.422196    0.761103    0.661132    0.000000
    69  O2    c     0.219122    0.647447    0.993069    0.000000
    70  O2    c     0.642395    0.404381    0.833021    0.000000
    71  O2    c     0.564492    0.230602    0.170670    0.000000
    72  O2    c     0.742598    0.317557    0.500406    0.000000
    73  O3    c     0.561559    0.333017    0.000002    0.000000
    74  O2    c     0.736850    0.409270    0.665802    0.000000
    75  O2    c     0.635543    0.212259    0.334839    0.000000
    76  O3    c     0.400748    0.628836    0.496703    0.000000
    77  O2    c     0.219973    0.571500    0.159424    0.000000
    78  O2    c     0.326767    0.746556    0.827672    0.000000
    79  O2    c     0.114750    0.203130    0.968901    0.000000
    80  O2    c     0.763371    0.887593    0.303286    0.000000
    81  O2    c     0.074239    0.852875    0.638865    0.000000
    82  O2    c     0.861538    0.759800    0.469989    0.000000
    83  O2    c     0.196802    0.071230    0.803399    0.000000
    84  O2    c     0.892792    0.116338    0.134755    0.000000
    85  O2    c     0.191149    0.099168    0.359581    0.000000
    86  O2    c     0.907199    0.793199    0.023563    0.000000
    87  O2    c     0.864026    0.088666    0.689685    0.000000
    88  O2    c     0.771759    0.859199    0.857198    0.000000
    89  O2    c     0.072842    0.184738    0.520774    0.000000
    90  O2    c     0.105117    0.902217    0.192046    0.000000
    91  O2    c     0.907288    0.837314    0.247665    0.000000
    92  O2    c     0.104585    0.033790    0.581317    0.000000
    93  O2    c     0.921085    0.049233    0.913051    0.000000
    94  O2    c     0.051470    0.120631    0.746555    0.000000
    95  O2    c     0.843381    0.919788    0.081161    0.000000
    96  O2    c     0.052420    0.901938    0.414206    0.000000
    97  O2    c     0.892744    0.196013    0.971338    0.000000
    98  O2    c     0.770902    0.673858    0.310799    0.000000
    99  O2    c     0.280045    0.081564    0.643651    0.000000
   100  O2    c     0.081805    0.765533    0.477577    0.000000
   101  O2    c     0.187713    0.285531    0.809595    0.000000
   102  O2    c     0.679482    0.894765    0.143169    0.000000
   103  O2    c     0.181540    0.875481    0.350231    0.000000
   104  O2    c     0.683426    0.790898    0.016457    0.000000
   105  O3    c     0.095065    0.287552    0.682668    0.000000
   106  O2    c     0.782220    0.083230    0.851055    0.000000
   107  O2    c     0.280054    0.159279    0.520086    0.000000
   108  O2    c     0.883479    0.688809    0.180880    0.000000
   109  O2    c     0.301177    0.629383    0.242512    0.000000
   110  O2    c     0.338341    0.646740    0.581563    0.000000
   111  O2    c     0.304151    0.665315    0.910963    0.000000
   112  O2    c     0.656442    0.342526    0.749286    0.000000
   113  O3    c     0.607140    0.299801    0.084864    0.000000
   114  O2    c     0.654440    0.305543    0.416889    0.000000
   115  O2    c     0.360696    0.323198    0.967964    0.000000
   116  O2    c     0.646860    0.018654    0.303555    0.000000
   117  O2    c     0.943194    0.605301    0.636275    0.000000
   118  O3    c     0.615741    0.658817    0.470474    0.000000
   119  O2    c     0.316165    0.941307    0.800628    0.000000
   120  O2    c     0.020826    0.364358    0.130200    0.000000
   121  O2    c     0.301934    0.348194    0.361115    0.000000
   122  O2    c     0.024485    0.660104    0.023942    0.000000
   123  O2    c     0.617354    0.952310    0.692985    0.000000
   124  O2    c     0.653789    0.612069    0.860326    0.000000
   125  O2    c     0.936369    0.300795    0.529764    0.000000
   126  O2    c     0.354603    0.032384    0.195165    0.000000
   127  O3    c     0.746742    0.278850    0.001660    0.000000
   128  O2    c     0.669958    0.443133    0.344545    0.000000
   129  O2    c     0.510525    0.218744    0.675556    0.000000
   130  O2    c     0.211219    0.666741    0.511995    0.000000
   131  O2    c     0.287684    0.518401    0.839010    0.000000
   132  O2    c     0.447806    0.762465    0.172038    0.000000
   133  O2    c     0.281100    0.746056    0.317531    0.000000
   134  O2    c     0.450446    0.689846    0.985088    0.000000
   135  O3    c     0.234625    0.525698    0.658096    0.000000
   136  O2    c     0.679703    0.214756    0.821097    0.000000
   137  O2    c     0.511528    0.278783    0.488072    0.000000
   138  O2    c     0.749454    0.456920    0.150957    0.000000
   139  O3    c     0.767322    0.542823    0.017494    0.000000
   140  O2    c     0.444701    0.236557    0.363868    0.000000
   141  O2    c     0.730862    0.207605    0.692547    0.000000
   142  O2    c     0.192943    0.437821    0.526286    0.000000
   143  O2    c     0.519481    0.736450    0.857080    0.000000
   144  O2    c     0.229595    0.774550    0.189771    0.000000
   145  O2    c     0.511652    0.759787    0.300202    0.000000
   146  O2    c     0.232663    0.455076    0.968231    0.000000
   147  O2    c     0.200812    0.723451    0.635865    0.000000
   148  O2    c     0.446885    0.199542    0.803732    0.000000
   149  O2    c     0.721647    0.509688    0.470920    0.000000
   150  O2    c     0.766015    0.242966    0.133019    0.000000
   151  O2    c     0.215504    0.312980    0.894582    0.000000
   152  O2    c     0.655671    0.892003    0.228446    0.000000
   153  O2    c     0.074331    0.737859    0.564152    0.000000
   154  O2    c     0.739410    0.649112    0.396593    0.000000
   155  O2    c     0.303688    0.075254    0.728692    0.000000
   156  O2    c     0.886831    0.223857    0.058738    0.000000
   157  O2    c     0.300126    0.213255    0.435166    0.000000
   158  O2    c     0.880391    0.659489    0.094803    0.000000
   159  O2    c     0.757358    0.085828    0.765830    0.000000
   160  O2    c     0.661253    0.756976    0.932028    0.000000
   161  O3    c     0.077661    0.282770    0.597833    0.000000
   162  O2    c     0.211203    0.890796    0.265826    0.000000
   163  O2    c     0.569616    0.551269    0.989263    0.000000
   164  O2    c     0.418683    0.004585    0.323435    0.000000
   165  O3    c     0.943689    0.389858    0.661879    0.000000
   166  O3    c     0.377300    0.401269    0.496558    0.000000
   167  O2    c     0.546536    0.956928    0.819694    0.000000
   168  O2    c     0.003552    0.572541    0.147487    0.000000
   169  O2    c     0.530551    0.558233    0.341466    0.000000
   170  O2    c     0.999920    0.430958    0.003451    0.000000
   171  O2    c     0.398230    0.961159    0.672220    0.000000
   172  O2    c     0.425771    0.398269    0.841268    0.000000
   173  O2    c     0.957239    0.529777    0.512048    0.000000
   174  O2    c     0.569972    0.019892    0.175297    0.000000
   175  O2    c     0.561586    0.147476    0.251469    0.000000
   176  O2    c     0.820461    0.393133    0.584421    0.000000
   177  O2    c     0.570281    0.410593    0.916084    0.000000
   178  O2    c     0.405842    0.824064    0.745155    0.000000
   179  O2    c     0.138025    0.565681    0.075925    0.000000
   180  O3    c     0.377782    0.562282    0.408867    0.000000
   181  F     c     0.431256    0.888145    0.247500    0.000000
   182  F     c     0.078202    0.493559    0.592820    0.000000
   183  F     c     0.432681    0.541029    0.914023    0.000000
   184  F     c     0.530419    0.085191    0.747060    0.000000
   185  F     c     0.845882    0.429610    0.070084    0.000000
   186  F     c     0.504611    0.450382    0.424371    0.000000
   187  O2    s     0.910823    0.997954    0.998485    0.000000
   188  O2    s     0.976769    0.899473    0.331344    0.000000
   189  O2    s     0.052132    0.050784    0.664262    0.000000
   190  O2    s     0.055037    0.967476    0.497368    0.000000
   191  O2    s     0.984161    0.058582    0.829679    0.000000
   192  O2    s     0.905051    0.916996    0.165542    0.000000
   193  O2    s     0.325602    0.558581    0.323546    0.000000
   194  O2    s     0.412849    0.762906    0.661665    0.000000
   195  O2    s     0.214315    0.635738    0.993268    0.000000
   196  O2    s     0.630572    0.397233    0.832810    0.000000
   197  O2    s     0.569862    0.224583    0.169856    0.000000
   198  O2    s     0.746125    0.328807    0.500354    0.000000
   199  O3    s     0.566868    0.344295    0.998939    0.000000
   200  O2    s     0.741600    0.400997    0.666134    0.000000
   201  O2    s     0.624071    0.209053    0.334751    0.000000
   202  O3    s     0.391587    0.618801    0.497873    0.000000
   203  O2    s     0.215267    0.578452    0.159521    0.000000
   204  O2    s     0.338589    0.750933    0.827925    0.000000
   205  O2    s     0.110666    0.206229    0.966206    0.000000
   206  O2    s     0.760037    0.880992    0.300654    0.000000
   207  O2    s     0.079803    0.855396    0.636161    0.000000
   208  O2    s     0.864152    0.756760    0.467418    0.000000
   209  O2    s     0.200333    0.078049    0.800647    0.000000
   210  O2    s     0.885854    0.112771    0.132149    0.000000
   211  O2    s     0.194161    0.096208    0.362194    0.000000
   212  O2    s     0.897826    0.787771    0.025792    0.000000
   213  O2    s     0.866107    0.093716    0.692522    0.000000
   214  O2    s     0.768477    0.862713    0.859810    0.000000
   215  O2    s     0.078488    0.186525    0.524166    0.000000
   216  O2    s     0.101813    0.895006    0.194491    0.000000
   217  O2    s     0.906199    0.835894    0.247664    0.000000
   218  O2    s     0.109686    0.036854    0.581174    0.000000
   219  O2    s     0.919433    0.052348    0.913074    0.000000
   220  O2    s     0.054217    0.124570    0.746932    0.000000
   221  O2    s     0.840914    0.919847    0.081279    0.000000
   222  O2    s     0.053630    0.900958    0.414072    0.000000
   223  O2    s     0.898894    0.196512    0.974465    0.000000
   224  O2    s     0.769681    0.679923    0.313414    0.000000
   225  O2    s     0.273934    0.073691    0.646424    0.000000
   226  O2    s     0.074457    0.764710    0.480307    0.000000
   227  O2    s     0.189228    0.279881    0.812249    0.000000
   228  O2    s     0.685417    0.901757    0.145923    0.000000
   229  O2    s     0.183108    0.883427    0.347693    0.000000
   230  O2    s     0.689914    0.789884    0.014058    0.000000
   231  O3    s     0.085704    0.278114    0.681343    0.000000
   232  O2    s     0.781070    0.075828    0.848324    0.000000
   233  O2    s     0.273637    0.163249    0.517556    0.000000
   234  O2    s     0.890313    0.694750    0.178512    0.000000
   235  O2    s     0.307096    0.641064    0.242699    0.000000
   236  O2    s     0.328856    0.642574    0.581463    0.000000
   237  O2    s     0.310449    0.659311    0.911159    0.000000
   238  O2    s     0.650686    0.330659    0.749189    0.000000
   239  O3    s     0.620010    0.305394    0.086772    0.000000
   240  O2    s     0.648798    0.310045    0.416736    0.000000
   241  O2    s     0.362936    0.332647    0.965797    0.000000
   242  O2    s     0.636857    0.012446    0.301166    0.000000
   243  O2    s     0.949519    0.602570    0.634462    0.000000
   244  O3    s     0.616949    0.649061    0.467767    0.000000
   245  O2    s     0.326038    0.948209    0.798357    0.000000
   246  O2    s     0.014807    0.367661    0.128126    0.000000
   247  O2    s     0.311010    0.350795    0.363180    0.000000
   248  O2    s     0.018245    0.650590    0.025511    0.000000
   249  O2    s     0.613621    0.958789    0.695134    0.000000
   250  O2    s     0.643997    0.609131    0.862579    0.000000
   251  O2    s     0.942364    0.310607    0.531680    0.000000
   252  O2    s     0.357610    0.025343    0.197356    0.000000
   253  O3    s     0.758042    0.286004    0.004723    0.000000
   254  O2    s     0.662914    0.442334    0.347288    0.000000
   255  O2    s     0.511365    0.211356    0.678676    0.000000
   256  O2    s     0.203990    0.659953    0.514439    0.000000
   257  O2    s     0.295191    0.519041    0.842256    0.000000
   258  O2    s     0.446999    0.768860    0.175290    0.000000
   259  O2    s     0.288655    0.753362    0.314473    0.000000
   260  O2    s     0.449812    0.681763    0.981971    0.000000
   261  O3    s     0.230356    0.530290    0.654289    0.000000
   262  O2    s     0.672307    0.207952    0.817909    0.000000
   263  O2    s     0.512773    0.286165    0.485598    0.000000
   264  O2    s     0.755966    0.456894    0.148175    0.000000
   265  O3    s     0.776830    0.544633    0.020889    0.000000
   266  O2    s     0.447234    0.242522    0.365913    0.000000
   267  O2    s     0.723459    0.202480    0.695172    0.000000
   268  O2    s     0.189552    0.439778    0.528690    0.000000
   269  O2    s     0.516935    0.728513    0.859723    0.000000
   270  O2    s     0.237574    0.779366    0.192423    0.000000
   271  O2    s     0.509104    0.765415    0.297700    0.000000
   272  O2    s     0.241004    0.457973    0.965550    0.000000
   273  O2    s     0.195951    0.717564    0.633737    0.000000
   274  O2    s     0.449959    0.194569    0.801097    0.000000
   275  O2    s     0.715154    0.506327    0.468737    0.000000
   276  O2    s     0.770308    0.249006    0.130778    0.000000
   277  O2    s     0.225230    0.322358    0.895447    0.000000
   278  O2    s     0.646094    0.891756    0.229367    0.000000
   279  O2    s     0.075052    0.729693    0.564853    0.000000
   280  O2    s     0.731091    0.640700    0.397000    0.000000
   281  O2    s     0.313697    0.075815    0.729538    0.000000
   282  O2    s     0.886410    0.231442    0.059861    0.000000
   283  O2    s     0.308362    0.220424    0.433978    0.000000
   284  O2    s     0.881348    0.651665    0.094569    0.000000
   285  O2    s     0.747768    0.085574    0.764993    0.000000
   286  O2    s     0.651615    0.747698    0.931146    0.000000
   287  O3    s     0.077475    0.292514    0.595104    0.000000
   288  O2    s     0.220629    0.890571    0.264878    0.000000
   289  O2    s     0.565938    0.552252    0.985858    0.000000
   290  O2    s     0.418878    0.000083    0.319886    0.000000
   291  O3    s     0.945927    0.396273    0.657795    0.000000
   292  O3    s     0.381583    0.396381    0.492897    0.000000
   293  O2    s     0.546558    0.962041    0.816461    0.000000
   294  O2    s     0.999770    0.568774    0.144725    0.000000
   295  O2    s     0.531877    0.555306    0.344274    0.000000
   296  O2    s     0.997572    0.431418    0.006317    0.000000
   297  O2    s     0.402901    0.966100    0.675680    0.000000
   298  O2    s     0.425393    0.402960    0.844425    0.000000
   299  O2    s     0.961339    0.530254    0.514885    0.000000
   300  O2    s     0.565062    0.014477    0.178554    0.000000
   301  O2    s     0.556120    0.136294    0.251353    0.000000
   302  O2    s     0.830036    0.397926    0.584005    0.000000
   303  O2    s     0.564753    0.415346    0.915760    0.000000
   304  O2    s     0.411449    0.835104    0.745304    0.000000
   305  O2    s     0.128578    0.561330    0.076213    0.000000
   306  O3    s     0.383117    0.555026    0.407188    0.000000
   307  F     s     0.431080    0.887929    0.247560    0.000000
   308  F     s     0.078368    0.486745    0.595867    0.000000
   309  F     s     0.431942    0.541788    0.914099    0.000000
   310  F     s     0.530390    0.085686    0.747007    0.000000
   311  F     s     0.835022    0.425716    0.067562    0.000000
   312  F     s     0.500669    0.456569    0.426837    0.000000
--------------------------------------------------------------------------------

  Final Cartesian lattice vectors (Angstroms) :

       11.941214    0.004421    0.000161
       -5.947656   10.407916    0.014017
       -0.295580   -0.158059   29.401032


  Final cell parameters and derivatives :

--------------------------------------------------------------------------------
       a           11.941214 Angstrom     dE/de1(xx)     0.001835 eV/strain
       b           11.987474 Angstrom     dE/de2(yy)     0.001192 eV/strain
       c           29.402942 Angstrom     dE/de3(zz)     0.002055 eV/strain
       alpha       89.914646 Degrees      dE/de4(yz)    -0.000292 eV/strain
       beta        90.575330 Degrees      dE/de5(xz)     0.000210 eV/strain
       gamma      119.724789 Degrees      dE/de6(xy)     0.000224 eV/strain
--------------------------------------------------------------------------------

  Primitive cell volume =          3654.853041 Angs**3

  Density of cell =      1.750574 g/cm**3

  Non-primitive cell volume =          3654.853041 Angs**3


  Final internal derivatives :

--------------------------------------------------------------------------------
   No.  Atomic          a             b             c           Radius
        Label          (eV)          (eV)          (eV)        (eV/Angs)
--------------------------------------------------------------------------------
      1 Ge    c       0.000000      0.000000      0.000000      0.000000
      2 Si    c       0.000057      0.000284      0.000312      0.000000
      3 Si    c       0.000019      0.000036     -0.000872      0.000000
      4 Si    c       0.000102      0.000075      0.000046      0.000000
      5 Si    c       0.000214     -0.000037      0.000227      0.000000
      6 Si    c       0.000257     -0.000011      0.000373      0.000000
      7 Si    c       0.000282      0.000271     -0.000252      0.000000
      8 Si    c       0.000775     -0.000339     -0.000756      0.000000
      9 Si    c       0.000045      0.000068     -0.000009      0.000000
     10 Si    c      -0.000135     -0.000389     -0.000237      0.000000
     11 Si    c       0.000141      0.000104      0.000108      0.000000
     12 Si    c       0.000508     -0.000297      0.007809      0.000000
     13 Si    c      -0.002837      0.003188     -0.008229      0.000000
     14 Si    c      -0.000016      0.000081     -0.000134      0.000000
     15 Si    c       0.000031     -0.000026     -0.000022      0.000000
     16 Ge    c       0.000193      0.000190     -0.000047      0.000000
     17 Si    c       0.000114      0.000213      0.000501      0.000000
     18 Si    c       0.000527      0.000048      0.001539      0.000000
     19 Si    c       0.000201      0.000278      0.000192      0.000000
     20 Si    c      -0.000121     -0.000420     -0.000131      0.000000
     21 Si    c       0.000166      0.000119     -0.000178      0.000000
     22 Si    c      -0.000479      0.000510     -0.000225      0.000000
     23 Si    c       0.000068      0.000080     -0.000139      0.000000
     24 Si    c      -0.000097      0.000010      0.000463      0.000000
     25 Si    c       0.000211     -0.000094     -0.000121      0.000000
     26 Si    c       0.000136     -0.000045      0.000220      0.000000
     27 Si    c       0.000172      0.000151     -0.000028      0.000000
     28 Si    c       0.000135      0.000258      0.000057      0.000000
     29 Si    c       0.000036      0.000079     -0.000359      0.000000
     30 Si    c       0.001172     -0.000157     -0.000856      0.000000
     31 Si    c       0.000159      0.000122     -0.000025      0.000000
     32 Si    c       0.000282      0.000231      0.001549      0.000000
     33 Si    c      -0.000078     -0.000070      0.000320      0.000000
     34 Si    c      -0.000337      0.000183     -0.000442      0.000000
     35 Ge    c       0.000034      0.000017     -0.000043      0.000000
     36 Si    c       0.000200      0.000222     -0.000367      0.000000
     37 Si    c      -0.000201      0.000188     -0.000132      0.000000
     38 Si    c       0.000120      0.000073     -0.000236      0.000000
     39 Si    c       0.000077     -0.000010     -0.000289      0.000000
     40 Si    c       0.000181      0.000208     -0.000071      0.000000
     41 Si    c       0.000068      0.000105      0.000365      0.000000
     42 Si    c       0.000841     -0.000524      0.001098      0.000000
     43 Si    c       0.000183      0.000095      0.000156      0.000000
     44 Si    c      -0.000759     -0.000764     -0.003910      0.000000
     45 Si    c      -0.000017     -0.000048     -0.000149      0.000000
     46 Si    c      -0.000084      0.000099      0.000018      0.000000
     47 Si    c       0.000072      0.000101      0.000124      0.000000
     48 Si    c       0.000058      0.000086      0.000295      0.000000
     49 Si    c      -0.000047     -0.000078     -0.000184      0.000000
     50 Si    c       0.000115      0.000188      0.000160      0.000000
     51 Si    c       0.000199      0.000116     -0.000239      0.000000
     52 Si    c       0.000139      0.000008     -0.000316      0.000000
     53 Si    c       0.000238      0.000017      0.000491      0.000000
     54 Si    c      -0.000084      0.000194      0.000715      0.000000
     55 Si    c       0.000123      0.000208      0.000228      0.000000
     56 Si    c      -0.000163      0.001413      0.001583      0.000000
     57 Si    c      -0.000071      0.000207     -0.000841      0.000000
     58 Si    c       0.000136      0.000214     -0.000304      0.000000
     59 Si    c       0.000242      0.000250      0.000130      0.000000
     60 Si    c       0.000185      0.000231     -0.000170      0.000000
     61 O2    c       0.000635      0.000032     -0.000215      0.000000
     62 O2    c       0.000228      0.000251     -0.000012      0.000000
     63 O2    c      -0.000000      0.000018      0.000025      0.000000
     64 O2    c       0.000118      0.000180      0.000088      0.000000
     65 O2    c      -0.000045     -0.000164      0.000048      0.000000
     66 O2    c       0.000026      0.000110      0.000071      0.000000
     67 O2    c       0.000173      0.000252     -0.000017      0.000000
     68 O2    c      -0.000120     -0.000032     -0.000109      0.000000
     69 O2    c       0.000003      0.000443      0.000002      0.000000
     70 O2    c       0.000125      0.000172     -0.000043      0.000000
     71 O2    c      -0.000382     -0.000432      0.001480      0.000000
     72 O2    c       0.000204      0.000210      0.000050      0.000000
     73 O3    c      -0.002323     -0.003478      0.000224      0.000000
     74 O2    c       0.000168     -0.000107      0.000032      0.000000
     75 O2    c       0.000085      0.000134     -0.000106      0.000000
     76 O3    c       0.000051      0.000025      0.000254      0.000000
     77 O2    c       0.000007     -0.000033     -0.000406      0.000000
     78 O2    c      -0.000045      0.000195     -0.000358      0.000000
     79 O2    c       0.001275      0.000157      0.000228      0.000000
     80 O2    c       0.000032      0.000226     -0.000198      0.000000
     81 O2    c       0.000073     -0.000087     -0.000192      0.000000
     82 O2    c       0.000166      0.000104     -0.000140      0.000000
     83 O2    c       0.000080      0.000065     -0.000143      0.000000
     84 O2    c       0.000082     -0.000169     -0.000089      0.000000
     85 O2    c       0.000188      0.000174      0.000208      0.000000
     86 O2    c       0.003181     -0.003092     -0.001648      0.000000
     87 O2    c      -0.000038      0.000018      0.000100      0.000000
     88 O2    c       0.000076     -0.000081      0.000130      0.000000
     89 O2    c       0.000152      0.000165      0.000198      0.000000
     90 O2    c       0.000095      0.000012      0.000365      0.000000
     91 O2    c       0.000199      0.000071     -0.000403      0.000000
     92 O2    c       0.000104      0.000078      0.000200      0.000000
     93 O2    c       0.000063     -0.000450     -0.003417      0.000000
     94 O2    c       0.000147     -0.000096      0.000724      0.000000
     95 O2    c      -0.000215      0.000875      0.004657      0.000000
     96 O2    c       0.000136      0.000130     -0.000262      0.000000
     97 O2    c      -0.001555      0.001288     -0.000086      0.000000
     98 O2    c       0.000055      0.000038      0.000377      0.000000
     99 O2    c       0.000025     -0.000033      0.000153      0.000000
    100 O2    c       0.000136      0.000020      0.000389      0.000000
    101 O2    c       0.000103      0.000036      0.000164      0.000000
    102 O2    c       0.000176      0.000210      0.000104      0.000000
    103 O2    c       0.000305      0.000135     -0.000216      0.000000
    104 O2    c      -0.003169      0.000582     -0.000938      0.000000
    105 O3    c      -0.000025      0.000124     -0.000283      0.000000
    106 O2    c      -0.000080      0.000126     -0.000106      0.000000
    107 O2    c       0.000157      0.000212     -0.000234      0.000000
    108 O2    c       0.000146      0.000113      0.000492      0.000000
    109 O2    c       0.000089      0.000244      0.000012      0.000000
    110 O2    c      -0.000033      0.000053      0.000114      0.000000
    111 O2    c       0.000252     -0.000156     -0.000206      0.000000
    112 O2    c       0.000075      0.000060     -0.000200      0.000000
    113 O3    c      -0.003173     -0.001097     -0.002375      0.000000
    114 O2    c       0.000040      0.000225     -0.000128      0.000000
    115 O2    c      -0.001415      0.000358     -0.000254      0.000000
    116 O2    c       0.000081      0.000197     -0.000097      0.000000
    117 O2    c       0.000109      0.000027     -0.000182      0.000000
    118 O3    c       0.000202     -0.000009     -0.000223      0.000000
    119 O2    c       0.000082      0.000076     -0.000155      0.000000
    120 O2    c       0.000533      0.000001      0.000328      0.000000
    121 O2    c       0.000231      0.000107      0.000132      0.000000
    122 O2    c      -0.000143      0.001029     -0.000598      0.000000
    123 O2    c      -0.000084      0.000082      0.000140      0.000000
    124 O2    c      -0.000116      0.000030      0.000457      0.000000
    125 O2    c       0.000167      0.000186      0.000142      0.000000
    126 O2    c       0.000129     -0.000088      0.000281      0.000000
    127 O3    c      -0.000408     -0.000740     -0.001113      0.000000
    128 O2    c       0.000074      0.000241      0.000134      0.000000
    129 O2    c       0.000141     -0.000083      0.000304      0.000000
    130 O2    c       0.000038      0.000080      0.000186      0.000000
    131 O2    c       0.000150      0.000061      0.000310      0.000000
    132 O2    c       0.000085      0.000199      0.000256      0.000000
    133 O2    c       0.000181      0.000273     -0.000149      0.000000
    134 O2    c       0.000604     -0.000372     -0.000280      0.000000
    135 O3    c      -0.000027      0.000164     -0.000494      0.000000
    136 O2    c       0.000040      0.000073     -0.000110      0.000000
    137 O2    c       0.000161      0.000233     -0.000257      0.000000
    138 O2    c      -0.000103      0.000444      0.000175      0.000000
    139 O3    c      -0.001406     -0.001170     -0.001310      0.000000
    140 O2    c       0.000229      0.000201      0.000112      0.000000
    141 O2    c      -0.000042      0.000015      0.000155      0.000000
    142 O2    c       0.000115      0.000160      0.000093      0.000000
    143 O2    c       0.000131     -0.000145      0.000371      0.000000
    144 O2    c       0.000126      0.000143      0.000215      0.000000
    145 O2    c       0.000067      0.000267     -0.000113      0.000000
    146 O2    c       0.000274     -0.000088     -0.000084      0.000000
    147 O2    c      -0.000030      0.000006     -0.000170      0.000000
    148 O2    c       0.000115      0.000045     -0.000169      0.000000
    149 O2    c       0.000089      0.000188     -0.000174      0.000000
    150 O2    c       0.000222     -0.000238      0.000305      0.000000
    151 O2    c       0.000198     -0.000017      0.000507      0.000000
    152 O2    c       0.000004      0.000199      0.000041      0.000000
    153 O2    c       0.000099     -0.000036      0.000246      0.000000
    154 O2    c       0.000089      0.000078      0.000006      0.000000
    155 O2    c       0.000062      0.000002      0.000173      0.000000
    156 O2    c       0.000501     -0.000612     -0.000576      0.000000
    157 O2    c       0.000233      0.000200     -0.000089      0.000000
    158 O2    c      -0.000196      0.000989      0.001349      0.000000
    159 O2    c      -0.000011      0.000075     -0.000291      0.000000
    160 O2    c      -0.000022      0.000033      0.000293      0.000000
    161 O3    c       0.000070      0.000172     -0.000599      0.000000
    162 O2    c       0.000218      0.000056     -0.000166      0.000000
    163 O2    c      -0.000069      0.000976      0.000203      0.000000
    164 O2    c       0.000207      0.000112     -0.000203      0.000000
    165 O3    c       0.000051      0.000096     -0.000541      0.000000
    166 O3    c       0.000224      0.000264     -0.000389      0.000000
    167 O2    c      -0.000026      0.000114     -0.000247      0.000000
    168 O2    c       0.000267     -0.000000      0.000541      0.000000
    169 O2    c       0.000277      0.000088      0.000268      0.000000
    170 O2    c       0.000499     -0.000478     -0.000655      0.000000
    171 O2    c       0.000046      0.000002      0.000171      0.000000
    172 O2    c       0.000126      0.000122      0.000728      0.000000
    173 O2    c       0.000149      0.000041      0.000207      0.000000
    174 O2    c       0.000127      0.000004      0.000188      0.000000
    175 O2    c       0.000118      0.000039     -0.000013      0.000000
    176 O2    c       0.000169      0.000079     -0.000059      0.000000
    177 O2    c      -0.000295      0.000582     -0.001742      0.000000
    178 O2    c       0.000014      0.000019     -0.000092      0.000000
    179 O2    c       0.000671     -0.000127      0.000189      0.000000
    180 O3    c       0.000302      0.000040      0.000244      0.000000
    181 F     c       0.000168      0.000136      0.000019      0.000000
    182 F     c       0.000094     -0.000029      0.000205      0.000000
    183 F     c       0.000249     -0.000119      0.000162      0.000000
    184 F     c       0.000018      0.000020     -0.000042      0.000000
    185 F     c       0.000223      0.000222     -0.000479      0.000000
    186 F     c       0.000133      0.000222      0.000063      0.000000
    187 O2    s       0.001203      0.000091      0.000011      0.000000
    188 O2    s       0.000250      0.000360      0.000101      0.000000
    189 O2    s       0.000032     -0.000010     -0.000432      0.000000
    190 O2    s       0.000290      0.000144      0.000086      0.000000
    191 O2    s      -0.000008      0.000100     -0.000092      0.000000
    192 O2    s       0.000122      0.000070      0.000114      0.000000
    193 O2    s       0.000369      0.000216     -0.000063      0.000000
    194 O2    s      -0.000133      0.000127     -0.000119      0.000000
    195 O2    s       0.000110      0.000116     -0.000760      0.000000
    196 O2    s       0.000028      0.000091      0.000472      0.000000
    197 O2    s       0.000155     -0.000115      0.002308      0.000000
    198 O2    s       0.000083      0.000295     -0.000021      0.000000
    199 O3    s       0.001295      0.003238      0.001880      0.000000
    200 O2    s       0.000212     -0.000193      0.000016      0.000000
    201 O2    s       0.000074      0.000200     -0.000098      0.000000
    202 O3    s       0.000124      0.000207      0.000035      0.000000
    203 O2    s       0.000109      0.000304      0.000222      0.000000
    204 O2    s       0.000099      0.000076     -0.000069      0.000000
    205 O2    s       0.001343      0.000234     -0.000556      0.000000
    206 O2    s       0.000065      0.000264     -0.000360      0.000000
    207 O2    s       0.000175     -0.000062     -0.000222      0.000000
    208 O2    s       0.000177      0.000013     -0.000162      0.000000
    209 O2    s       0.000134      0.000055     -0.000054      0.000000
    210 O2    s       0.000058     -0.000067      0.000821      0.000000
    211 O2    s       0.000279      0.000141      0.000259      0.000000
    212 O2    s       0.002066     -0.001584     -0.002519      0.000000
    213 O2    s      -0.000126      0.000066     -0.000068      0.000000
    214 O2    s       0.000051      0.000006     -0.000162      0.000000
    215 O2    s       0.000209      0.000166      0.000456      0.000000
    216 O2    s       0.000139      0.000087      0.000301      0.000000
    217 O2    s       0.000169      0.000293     -0.000187      0.000000
    218 O2    s       0.000183      0.000133      0.000047      0.000000
    219 O2    s       0.000121     -0.000457     -0.002123      0.000000
    220 O2    s       0.000042      0.000110      0.000408      0.000000
    221 O2    s       0.000183      0.001123      0.003074      0.000000
    222 O2    s       0.000333      0.000045     -0.000123      0.000000
    223 O2    s      -0.001189      0.001355      0.000243      0.000000
    224 O2    s       0.000043      0.000139      0.000481      0.000000
    225 O2    s       0.000100     -0.000063      0.000022      0.000000
    226 O2    s       0.000170      0.000079      0.000182      0.000000
    227 O2    s      -0.000016      0.000225      0.000040      0.000000
    228 O2    s       0.000077      0.000073      0.000536      0.000000
    229 O2    s       0.000181      0.000279     -0.000078      0.000000
    230 O2    s      -0.002445      0.000228     -0.000965      0.000000
    231 O3    s      -0.000254      0.000167     -0.000157      0.000000
    232 O2    s      -0.000043      0.000124     -0.000233      0.000000
    233 O2    s       0.000209      0.000295     -0.000204      0.000000
    234 O2    s       0.000157      0.000259      0.000790      0.000000
    235 O2    s       0.000249      0.000286     -0.000171      0.000000
    236 O2    s      -0.000075      0.000166      0.000071      0.000000
    237 O2    s       0.000018      0.000161     -0.000525      0.000000
    238 O2    s       0.000162     -0.000125     -0.000294      0.000000
    239 O3    s       0.002032      0.001504     -0.001701      0.000000
    240 O2    s       0.000044      0.000368      0.000021      0.000000
    241 O2    s      -0.000011      0.000281     -0.000586      0.000000
    242 O2    s       0.000052      0.000234     -0.000285      0.000000
    243 O2    s       0.000217     -0.000114     -0.000158      0.000000
    244 O3    s       0.000318      0.000095     -0.000172      0.000000
    245 O2    s       0.000157      0.000085     -0.000246      0.000000
    246 O2    s      -0.000140      0.000336      0.000503      0.000000
    247 O2    s       0.000386      0.000082      0.000268      0.000000
    248 O2    s       0.000234     -0.000255     -0.000304      0.000000
    249 O2    s      -0.000081      0.000180      0.000095      0.000000
    250 O2    s       0.000219     -0.000161     -0.000422      0.000000
    251 O2    s       0.000098      0.000206      0.000345      0.000000
    252 O2    s       0.000307      0.000116      0.000349      0.000000
    253 O3    s       0.000677      0.000454      0.000229      0.000000
    254 O2    s       0.000095      0.000240      0.000339      0.000000
    255 O2    s       0.000167     -0.000084      0.000127      0.000000
    256 O2    s       0.000113      0.000094      0.000338      0.000000
    257 O2    s      -0.000100      0.000133     -0.000414      0.000000
    258 O2    s       0.000145      0.000178      0.000605      0.000000
    259 O2    s       0.000235      0.000270     -0.000396      0.000000
    260 O2    s       0.000111      0.000102      0.000194      0.000000
    261 O3    s      -0.000190      0.000171     -0.000412      0.000000
    262 O2    s      -0.000066      0.000051     -0.000340      0.000000
    263 O2    s       0.000124      0.000305     -0.000193      0.000000
    264 O2    s       0.000046     -0.000126      0.000664      0.000000
    265 O3    s       0.001152     -0.001552      0.002111      0.000000
    266 O2    s       0.000154      0.000296      0.000212      0.000000
    267 O2    s      -0.000032      0.000042      0.000091      0.000000
    268 O2    s       0.000043      0.000221      0.000266      0.000000
    269 O2    s      -0.000009      0.000148     -0.000304      0.000000
    270 O2    s       0.000226      0.000169      0.000228      0.000000
    271 O2    s       0.000148      0.000255     -0.000385      0.000000
    272 O2    s       0.000075      0.000216     -0.000566      0.000000
    273 O2    s       0.000023     -0.000041     -0.000248      0.000000
    274 O2    s       0.000175     -0.000163     -0.000081      0.000000
    275 O2    s       0.000122      0.000146     -0.000163      0.000000
    276 O2    s      -0.000119     -0.000046      0.001071      0.000000
    277 O2    s      -0.000108      0.000204      0.000249      0.000000
    278 O2    s       0.000043      0.000210      0.000089      0.000000
    279 O2    s       0.000237     -0.000085      0.000043      0.000000
    280 O2    s       0.000149      0.000161      0.000009      0.000000
    281 O2    s       0.000250     -0.000074      0.000068      0.000000
    282 O2    s      -0.000526      0.000677      0.000228      0.000000
    283 O2    s       0.000276      0.000269     -0.000092      0.000000
    284 O2    s       0.000400     -0.000514      0.001303      0.000000
    285 O2    s      -0.000113      0.000078     -0.000175      0.000000
    286 O2    s      -0.000067     -0.000191      0.000214      0.000000
    287 O3    s      -0.000018      0.000269     -0.000051      0.000000
    288 O2    s       0.000402      0.000212     -0.000096      0.000000
    289 O2    s      -0.000446     -0.000747     -0.001575      0.000000
    290 O2    s       0.000163      0.000246     -0.000453      0.000000
    291 O3    s      -0.000063      0.000140     -0.000457      0.000000
    292 O3    s       0.000388      0.000018     -0.000386      0.000000
    293 O2    s       0.000008      0.000105     -0.000175      0.000000
    294 O2    s       0.000233     -0.000058     -0.000363      0.000000
    295 O2    s       0.000248      0.000202      0.000397      0.000000
    296 O2    s      -0.000592      0.000160      0.000301      0.000000
    297 O2    s       0.000098     -0.000011      0.000224      0.000000
    298 O2    s       0.000244     -0.000081     -0.000514      0.000000
    299 O2    s       0.000217      0.000061      0.000295      0.000000
    300 O2    s       0.000162      0.000107      0.000302      0.000000
    301 O2    s       0.000180      0.000089     -0.000101      0.000000
    302 O2    s       0.000239      0.000035      0.000012      0.000000
    303 O2    s       0.000457      0.000145     -0.000935      0.000000
    304 O2    s       0.000029      0.000200      0.000061      0.000000
    305 O2    s      -0.000265      0.000235      0.000822      0.000000
    306 O3    s       0.000425      0.000105     -0.000167      0.000000
    307 F     s       0.000173      0.000038      0.000099      0.000000
    308 F     s       0.000087     -0.000045      0.000418      0.000000
    309 F     s       0.000067     -0.000012      0.000309      0.000000
    310 F     s       0.000033      0.000031     -0.000066      0.000000
    311 F     s      -0.000513     -0.000179     -0.000901      0.000000
    312 F     s       0.000102      0.000273      0.000259      0.000000
--------------------------------------------------------------------------------
  Maximum abs         0.003181      0.003478      0.008229      0.000000
--------------------------------------------------------------------------------


  Time to end of optimisation =      47.7387 seconds


  Peak dynamic memory used =      19.13 MB 


  Timing analysis for GULP :

--------------------------------------------------------------------------------
  Task / Subroutine                                          Time (Seconds)
--------------------------------------------------------------------------------
  Calculation of reciprocal space energy and derivatives          1.3078
  Calculation of real space energy and derivatives               41.4250
  Calculation of three-body energy and derivatives                4.1718
  Calculation of matrix inversion                                 0.7439
  Global summation overhead                                       0.0001
--------------------------------------------------------------------------------
  Total CPU time                                                 47.7387
--------------------------------------------------------------------------------


  Dump file written as out.res                                                 
  CIF file written as out.cif                                                 


  Job Finished at 15:01.30 30th October    2016                               

