********************************************************************************
*                       GENERAL UTILITY LATTICE PROGRAM                        *
*                                 Julian Gale                                  *
*                      Nanochemistry Research Institute                        *
*                           Department of Chemistry                            *
*                    Curtin University, Western Australia                      *
********************************************************************************
* Version = 4.2.0 * Last modified =  20th January 2014                         *
********************************************************************************
*  optimise     - perform optimisation run                                     *
*  conp         - constant pressure calculation                                *
*  qok          - running with non charge neutral cell is OK                   *
********************************************************************************

  Job Started  at 21:56.04 30th October    2016                               

  Number of CPUs =     1


  Total number of configurations input =   1

********************************************************************************
*  Input for Configuration =   1                                               *
********************************************************************************

  Formula = Ge3Si57O120F6                                               

  Number of irreducible atoms/shells =     312


  Total number atoms/shells =     312

  Dimensionality = 3               :  Bulk   


  Charge on solid   =  -6.000000 =>neutralising background added


  Cartesian lattice vectors (Angstroms) :

       11.952508    0.000000    0.000000
       -6.019680   10.366569    0.000000
       -0.222655   -0.061820   29.501086

  Cell parameters (Angstroms/Degrees):

  a =      11.9525    alpha =  89.8867
  b =      11.9876    beta  =  90.4324
  c =      29.5020    gamma = 120.1430

  Initial cell volume =        3655.376419 Angs**3

  Temperature of configuration =  0.000     K 

  Pressure of configuration =         0.000 GPa 

  Fractional coordinates of asymmetric unit :

--------------------------------------------------------------------------------
   No.  Atomic       x           y          z         Charge      Occupancy
        Label      (Frac)      (Frac)     (Frac)        (e)         (Frac)  
--------------------------------------------------------------------------------
      1 Ge    c    0.699600    0.375700    0.033890     4.00000    1.000000    
      2 Si    c    0.623254 *  0.319406 *  0.363269 *   4.00000    1.000000    
      3 Si    c    0.675579 *  0.297927 *  0.699008 *   4.00000    1.000000    
      4 Si    c    0.292727 *  0.620647 *  0.529953 *   4.00000    1.000000    
      5 Si    c    0.375377 *  0.684329 *  0.861820 *   4.00000    1.000000    
      6 Si    c    0.321905 *  0.700957 *  0.196032 *   4.00000    1.000000    
      7 Si    c    0.374589 *  0.687579 *  0.297240 *   4.00000    1.000000    
      8 Si    c    0.321119 *  0.624857 *  0.962705 *   4.00000    1.000000    
      9 Si    c    0.295241 *  0.676271 *  0.630300 *   4.00000    1.000000    
     10 Si    c    0.622975 *  0.302205 *  0.800943 *   4.00000    1.000000    
     11 Si    c    0.673139 *  0.381477 *  0.465186 *   4.00000    1.000000    
     12 Si    c    0.687316 *  0.317373 *  0.132731 *   4.00000    1.000000    
     13 Si    c    0.530848 *  0.420374 *  0.965795 *   4.00000    1.000000    
     14 Si    c    0.582544 *  0.101494 *  0.301877 *   4.00000    1.000000    
     15 Si    c    0.884194 *  0.469403 *  0.632687 *   4.00000    1.000000    
     16 Si    c    0.463619 *  0.592247 *  0.462558 *   4.00000    1.000000    
     17 Ge    c    0.431592 *  0.905518 *  0.796000 *   4.00000    1.000000    
     18 Si    c    0.109413 *  0.531885 *  0.128792 *   4.00000    1.000000    
     19 Ge    c    0.431535 *  0.524013 *  0.363830 *   4.00000    1.000000    
     20 Si    c    0.104357 *  0.581897 *  0.025605 *   4.00000    1.000000    
     21 Si    c    0.466711 *  0.877651 *  0.697190 *   4.00000    1.000000    
     22 Si    c    0.580441 *  0.475322 *  0.864161 *   4.00000    1.000000    
     23 Si    c    0.882796 *  0.418624 *  0.531520 *   4.00000    1.000000    
     24 Si    c    0.532113 *  0.110296 *  0.201201 *   4.00000    1.000000    
     25 Si    c    0.300245 *  0.405371 *  0.849049 *   4.00000    1.000000    
     26 Si    c    0.602479 *  0.902975 *  0.183930 *   4.00000    1.000000    
     27 Si    c    0.090715 *  0.697994 *  0.516386 *   4.00000    1.000000    
     28 Si    c    0.705534 *  0.601407 *  0.343456 *   4.00000    1.000000    
     29 Si    c    0.393216 *  0.090928 *  0.683965 *   4.00000    1.000000    
     30 Si    c    0.890186 *  0.294299 *  0.010898 *   4.00000    1.000000    
     31 Si    c    0.390636 *  0.305840 *  0.477525 *   4.00000    1.000000    
     32 Si    c    0.894457 *  0.602373 *  0.142549 *   4.00000    1.000000    
     33 Si    c    0.705764 *  0.101463 *  0.818411 *   4.00000    1.000000    
     34 Si    c    0.599510 *  0.701531 *  0.978071 *   4.00000    1.000000    
     35 Si    c    0.093878 *  0.397995 *  0.645795 *   4.00000    1.000000    
     36 Si    c    0.300763 *  0.891871 *  0.313232 *   4.00000    1.000000    
     37 Si    c    0.251922 *  0.345291 *  0.948935 *   4.00000    1.000000    
     38 Si    c    0.658328 *  0.900644 *  0.284612 *   4.00000    1.000000    
     39 Si    c    0.085251 *  0.748652 *  0.616989 *   4.00000    1.000000    
     40 Si    c    0.744647 *  0.665521 *  0.446234 *   4.00000    1.000000    
     41 Si    c    0.334427 *  0.087568 *  0.785727 *   4.00000    1.000000    
     42 Si    c    0.903334 *  0.249890 *  0.113669 *   4.00000    1.000000    
     43 Si    c    0.334488 *  0.245128 *  0.375524 *   4.00000    1.000000    
     44 Si    c    0.899047 *  0.660056 *  0.040079 *   4.00000    1.000000    
     45 Si    c    0.747422 *  0.084494 *  0.715559 *   4.00000    1.000000    
     46 Si    c    0.657289 *  0.753851 *  0.877502 *   4.00000    1.000000    
     47 Si    c    0.083270 *  0.339450 *  0.545134 *   4.00000    1.000000    
     48 Si    c    0.251715 *  0.909660 *  0.213148 *   4.00000    1.000000    
     49 Si    c    0.976049 *  0.123731 *  0.964480 *   4.00000    1.000000    
     50 Si    c    0.884438 *  0.846683 *  0.295959 *   4.00000    1.000000    
     51 Si    c    0.147804 *  0.028917 *  0.631241 *   4.00000    1.000000    
     52 Si    c    0.026507 *  0.879103 *  0.464027 *   4.00000    1.000000    
     53 Si    c    0.122049 *  0.158406 *  0.798298 *   4.00000    1.000000    
     54 Si    c    0.848496 *  0.973363 *  0.131028 *   4.00000    1.000000    
     55 Si    c    0.122696 *  0.960133 *  0.362769 *   4.00000    1.000000    
     56 Si    c    0.848209 *  0.883258 *  0.029725 *   4.00000    1.000000    
     57 Si    c    0.028459 *  0.151615 *  0.696886 *   4.00000    1.000000    
     58 Si    c    0.885208 *  0.031847 *  0.864505 *   4.00000    1.000000    
     59 Si    c    0.146096 *  0.122587 *  0.529818 *   4.00000    1.000000    
     60 Si    c    0.973743 *  0.853219 *  0.194693 *   4.00000    1.000000    
     61 O2    c    0.932325 *  0.008889 *  0.999919 *   0.87073    1.000000    
     62 O2    c    0.004995 *  0.927621 *  0.329090 *   0.87073    1.000000    
     63 O2    c    0.067933 *  0.071944 *  0.663074 *   0.87073    1.000000    
     64 O2    c    0.068205 *  0.001852 *  0.496362 *   0.87073    1.000000    
     65 O2    c    0.001032 *  0.070550 *  0.829728 *   0.87073    1.000000    
     66 O2    c    0.936280 *  0.937765 *  0.162608 *   0.87073    1.000000    
     67 O3    c    0.340163 *  0.567129 *  0.327328 *   1.33043    1.000000    
     68 O2    c    0.423978 *  0.762862 *  0.660037 *   0.87073    1.000000    
     69 O2    c    0.231952 *  0.659478 *  0.994791 *   0.87073    1.000000    
     70 O2    c    0.658288 *  0.426168 *  0.831883 *   0.87073    1.000000    
     71 O2    c    0.581628 *  0.239977 *  0.171635 *   0.87073    1.000000    
     72 O2    c    0.755146 *  0.344005 *  0.499214 *   0.87073    1.000000    
     73 O3    c    0.568306 *  0.338488 *  0.998001 *   1.33043    1.000000    
     74 O2    c    0.759560 *  0.418599 *  0.665688 *   0.87073    1.000000    
     75 O2    c    0.659861 *  0.227402 *  0.334882 *   0.87073    1.000000    
     76 O2    c    0.418798 *  0.663291 *  0.499054 *   0.87073    1.000000    
     77 O2    c    0.235106 *  0.581780 *  0.161347 *   0.87073    1.000000    
     78 O3    c    0.340422 *  0.768501 *  0.830561 *   1.33043    1.000000    
     79 O2    c    0.129246 *  0.218123 *  0.970326 *   0.87073    1.000000    
     80 O2    c    0.785093 *  0.898904 *  0.304107 *   0.87073    1.000000    
     81 O2    c    0.083706 *  0.874443 *  0.636530 *   0.87073    1.000000    
     82 O2    c    0.871326 *  0.789171 *  0.467754 *   0.87073    1.000000    
     83 O2    c    0.216361 *  0.101130 *  0.804604 *   0.87073    1.000000    
     84 O2    c    0.907997 *  0.127482 *  0.134911 *   0.87073    1.000000    
     85 O2    c    0.217684 *  0.111554 *  0.356673 *   0.87073    1.000000    
     86 O2    c    0.916216 *  0.797685 *  0.024036 *   0.87073    1.000000    
     87 O2    c    0.873444 *  0.089025 *  0.693422 *   0.87073    1.000000    
     88 O2    c    0.784719 *  0.879904 *  0.857395 *   0.87073    1.000000    
     89 O2    c    0.079971 *  0.211262 *  0.525434 *   0.87073    1.000000    
     90 O2    c    0.127983 *  0.913045 *  0.191697 *   0.87073    1.000000    
     91 O2    c    0.933042 *  0.866470 *  0.244946 *   0.87073    1.000000    
     92 O2    c    0.138633 *  0.069751 *  0.580184 *   0.87073    1.000000    
     93 O2    c    0.941631 *  0.061283 *  0.914872 *   0.87073    1.000000    
     94 O2    c    0.071881 *  0.140992 *  0.746859 *   0.87073    1.000000    
     95 O2    c    0.855036 *  0.929760 *  0.080891 *   0.87073    1.000000    
     96 O2    c    0.068785 *  0.927294 *  0.413444 *   0.87073    1.000000    
     97 O2    c    0.903059 *  0.203476 *  0.973134 *   0.87073    1.000000    
     98 O2    c    0.816818 *  0.694763 *  0.307817 *   0.87073    1.000000    
     99 O2    c    0.299148 *  0.095152 *  0.644673 *   0.87073    1.000000    
    100 O2    c    0.093806 *  0.796696 *  0.478189 *   0.87073    1.000000    
    101 O2    c    0.199452 *  0.309682 *  0.810215 *   0.87073    1.000000    
    102 O2    c    0.698690 *  0.901730 *  0.145702 *   0.87073    1.000000    
    103 O2    c    0.200350 *  0.885679 *  0.351839 *   0.87073    1.000000    
    104 O2    c    0.697029 *  0.801684 *  0.016242 *   0.87073    1.000000    
    105 O2    c    0.097455 *  0.302402 *  0.683845 *   0.87073    1.000000    
    106 O2    c    0.816420 *  0.116192 *  0.854246 *   0.87073    1.000000    
    107 O2    c    0.296884 *  0.210127 *  0.516738 *   0.87073    1.000000    
    108 O2    c    0.900994 *  0.702385 *  0.181024 *   0.87073    1.000000    
    109 O2    c    0.322314 *  0.640579 *  0.245174 *   0.87073    1.000000    
    110 O2    c    0.349192 *  0.675966 *  0.580070 *   0.87073    1.000000    
    111 O2    c    0.320860 *  0.681883 *  0.912922 *   0.87073    1.000000    
    112 O2    c    0.674029 *  0.350081 *  0.749375 *   0.87073    1.000000    
    113 O3    c    0.614587 *  0.304094 *  0.085788 *   1.33043    1.000000    
    114 O2    c    0.672955 *  0.326224 *  0.415230 *   0.87073    1.000000    
    115 O2    c    0.373408 *  0.334825 *  0.966799 *   0.87073    1.000000    
    116 O2    c    0.670713 *  0.033468 *  0.304303 *   0.87073    1.000000    
    117 O2    c    0.953075 *  0.625606 *  0.635618 *   0.87073    1.000000    
    118 O2    c    0.622506 *  0.676261 *  0.463622 *   0.87073    1.000000    
    119 O3    c    0.316272 *  0.957121 *  0.804958 *   1.33043    1.000000    
    120 O2    c    0.036049 *  0.375950 *  0.130469 *   0.87073    1.000000    
    121 O3    c    0.316450 *  0.356308 *  0.354914 *   1.33043    1.000000    
    122 O2    c    0.032347 *  0.665472 *  0.024110 *   0.87073    1.000000    
    123 O2    c    0.625354 *  0.952967 *  0.696631 *   0.87073    1.000000    
    124 O2    c    0.668081 *  0.631174 *  0.859708 *   0.87073    1.000000    
    125 O2    c    0.949941 *  0.330136 *  0.527175 *   0.87073    1.000000    
    126 O2    c    0.375709 *  0.042222 *  0.196160 *   0.87073    1.000000    
    127 O3    c    0.755190 *  0.284431 *  0.002207 *   1.33043    1.000000    
    128 O2    c    0.700859 *  0.463004 *  0.341831 *   0.87073    1.000000    
    129 O2    c    0.529945 *  0.223942 *  0.678611 *   0.87073    1.000000    
    130 O2    c    0.222365 *  0.694345 *  0.508032 *   0.87073    1.000000    
    131 O2    c    0.301027 *  0.538414 *  0.840561 *   0.87073    1.000000    
    132 O2    c    0.465716 *  0.772242 *  0.174173 *   0.87073    1.000000    
    133 O2    c    0.299236 *  0.757598 *  0.318482 *   0.87073    1.000000    
    134 O2    c    0.464563 *  0.700592 *  0.985702 *   0.87073    1.000000    
    135 O2    c    0.226878 *  0.533397 *  0.652875 *   0.87073    1.000000    
    136 O2    c    0.700952 *  0.234857 *  0.821192 *   0.87073    1.000000    
    137 O2    c    0.527247 *  0.310354 *  0.484415 *   0.87073    1.000000    
    138 O2    c    0.762748 *  0.467257 *  0.150973 *   0.87073    1.000000    
    139 O3    c    0.771971 *  0.546597 *  0.019178 *   1.33043    1.000000    
    140 O2    c    0.468716 *  0.254566 *  0.359306 *   0.87073    1.000000    
    141 O2    c    0.739587 *  0.207705 *  0.697713 *   0.87073    1.000000    
    142 O2    c    0.209570 *  0.464150 *  0.525062 *   0.87073    1.000000    
    143 O2    c    0.532869 *  0.754357 *  0.857007 *   0.87073    1.000000    
    144 O2    c    0.247250 *  0.782426 *  0.192909 *   0.87073    1.000000    
    145 O2    c    0.531849 *  0.775875 *  0.303376 *   0.87073    1.000000    
    146 O2    c    0.247549 *  0.469144 *  0.968202 *   0.87073    1.000000    
    147 O2    c    0.212441 *  0.749547 *  0.636025 *   0.87073    1.000000    
    148 O2    c    0.468427 *  0.211621 *  0.803111 *   0.87073    1.000000    
    149 O2    c    0.736402 *  0.535853 *  0.465711 *   0.87073    1.000000    
    150 O2    c    0.780417 *  0.253638 *  0.133398 *   0.87073    1.000000    
    151 O2    c    0.227919 *  0.327591 *  0.894647 *   0.87073    1.000000    
    152 O2    c    0.675040 *  0.901691 *  0.230281 *   0.87073    1.000000    
    153 O2    c    0.087334 *  0.768026 *  0.562761 *   0.87073    1.000000    
    154 O2    c    0.762733 *  0.675348 *  0.392170 *   0.87073    1.000000    
    155 O2    c    0.322447 *  0.087383 *  0.730462 *   0.87073    1.000000    
    156 O2    c    0.898712 *  0.232746 *  0.059529 *   0.87073    1.000000    
    157 O2    c    0.321561 *  0.236265 *  0.430659 *   0.87073    1.000000    
    158 O2    c    0.895122 *  0.669224 *  0.095396 *   0.87073    1.000000    
    159 O2    c    0.764226 *  0.088175 *  0.769665 *   0.87073    1.000000    
    160 O2    c    0.674069 *  0.772435 *  0.931866 *   0.87073    1.000000    
    161 O2    c    0.087797 *  0.323416 *  0.599303 *   0.87073    1.000000    
    162 O2    c    0.231549 *  0.904264 *  0.267428 *   0.87073    1.000000    
    163 O2    c    0.585043 *  0.563030 *  0.987862 *   0.87073    1.000000    
    164 O2    c    0.440596 *  0.016953 *  0.324559 *   0.87073    1.000000    
    165 O2    c    0.967298 *  0.410161 *  0.655075 *   0.87073    1.000000    
    166 O2    c    0.409953 *  0.447422 *  0.483481 *   0.87073    1.000000    
    167 O3    c    0.574499 *  0.977641 *  0.831122 *   1.33043    1.000000    
    168 O2    c    0.017853 *  0.583021 *  0.148574 *   0.87073    1.000000    
    169 O3    c    0.574584 *  0.593641 *  0.329336 *   1.33043    1.000000    
    170 O2    c    0.013327 *  0.439400 *  0.004946 *   0.87073    1.000000    
    171 O2    c    0.412896 *  0.969353 *  0.676435 *   0.87073    1.000000    
    172 O2    c    0.438491 *  0.414601 *  0.840285 *   0.87073    1.000000    
    173 O2    c    0.962359 *  0.559409 *  0.507831 *   0.87073    1.000000    
    174 O2    c    0.593233 *  0.031703 *  0.176636 *   0.87073    1.000000    
    175 O2    c    0.584563 *  0.161389 *  0.252314 *   0.87073    1.000000    
    176 O2    c    0.827794 *  0.415879 *  0.582059 *   0.87073    1.000000    
    177 O2    c    0.584348 *  0.423377 *  0.914546 *   0.87073    1.000000    
    178 O3    c    0.410625 *  0.814028 *  0.744687 *   1.33043    1.000000    
    179 O2    c    0.152196 *  0.579210 *  0.077299 *   0.87073    1.000000    
    180 O3    c    0.409275 *  0.597335 *  0.414060 *   1.33043    1.000000    
    181 F     c    0.453999 *  0.905076 *  0.248199 *   0.56000    1.000000    
    182 F     c    0.087013 *  0.545109 *  0.580538 *   0.56000    1.000000    
    183 F     c    0.449988 *  0.550767 *  0.912736 *   0.56000    1.000000    
    184 F     c    0.523968 *  0.052307 *  0.758278 *   0.56000    1.000000    
    185 F     c    0.852108 *  0.434357 *  0.069757 *   0.56000    1.000000    
    186 F     c    0.523421 *  0.472096 *  0.402732 *   0.56000    1.000000    
    187 O2    s    0.927689 *  0.007656 *  0.999280 *  -2.87073    1.000000    
    188 O2    s    0.004665 *  0.922109 *  0.329171 *  -2.87073    1.000000    
    189 O2    s    0.072491 *  0.075796 *  0.663203 *  -2.87073    1.000000    
    190 O2    s    0.072246 *  0.001769 *  0.496530 *  -2.87073    1.000000    
    191 O2    s    0.001728 *  0.076166 *  0.830060 *  -2.87073    1.000000    
    192 O2    s    0.930841 *  0.932279 *  0.162721 *  -2.87073    1.000000    
    193 O3    s    0.350220 *  0.577446 *  0.326510 *  -3.33043    1.000000    
    194 O2    s    0.414585 *  0.765255 *  0.660608 *  -2.87073    1.000000    
    195 O2    s    0.227396 *  0.647849 *  0.994832 *  -2.87073    1.000000    
    196 O2    s    0.646899 *  0.417620 *  0.831682 *  -2.87073    1.000000    
    197 O2    s    0.587469 *  0.234395 *  0.170678 *  -2.87073    1.000000    
    198 O2    s    0.759325 *  0.355581 *  0.498848 *  -2.87073    1.000000    
    199 O3    s    0.574318 *  0.349838 *  0.997367 *  -3.33043    1.000000    
    200 O2    s    0.763433 *  0.411133 *  0.665829 *  -2.87073    1.000000    
    201 O2    s    0.648330 *  0.224695 *  0.334649 *  -2.87073    1.000000    
    202 O2    s    0.410098 *  0.651560 *  0.498600 *  -2.87073    1.000000    
    203 O2    s    0.230574 *  0.588435 *  0.161401 *  -2.87073    1.000000    
    204 O3    s    0.350640 *  0.768943 *  0.831540 *  -3.33043    1.000000    
    205 O2    s    0.125102 *  0.220899 *  0.967503 *  -2.87073    1.000000    
    206 O2    s    0.782609 *  0.893528 *  0.301284 *  -2.87073    1.000000    
    207 O2    s    0.090600 *  0.877732 *  0.633983 *  -2.87073    1.000000    
    208 O2    s    0.874600 *  0.785846 *  0.465143 *  -2.87073    1.000000    
    209 O2    s    0.218792 *  0.106149 *  0.801819 *  -2.87073    1.000000    
    210 O2    s    0.901227 *  0.123941 *  0.132320 *  -2.87073    1.000000    
    211 O2    s    0.219900 *  0.109186 *  0.359439 *  -2.87073    1.000000    
    212 O2    s    0.907087 *  0.792951 *  0.026263 *  -2.87073    1.000000    
    213 O2    s    0.876846 *  0.095214 *  0.696061 *  -2.87073    1.000000    
    214 O2    s    0.782487 *  0.883299 *  0.860158 *  -2.87073    1.000000    
    215 O2    s    0.087264 *  0.215025 *  0.527891 *  -2.87073    1.000000    
    216 O2    s    0.124157 *  0.906243 *  0.194216 *  -2.87073    1.000000    
    217 O2    s    0.932045 *  0.862693 *  0.245137 *  -2.87073    1.000000    
    218 O2    s    0.140444 *  0.071119 *  0.580204 *  -2.87073    1.000000    
    219 O2    s    0.939043 *  0.064892 *  0.914660 *  -2.87073    1.000000    
    220 O2    s    0.072330 *  0.144145 *  0.746707 *  -2.87073    1.000000    
    221 O2    s    0.853512 *  0.929653 *  0.081004 *  -2.87073    1.000000    
    222 O2    s    0.069912 *  0.925407 *  0.413620 *  -2.87073    1.000000    
    223 O2    s    0.909644 *  0.204222 *  0.976093 *  -2.87073    1.000000    
    224 O2    s    0.812662 *  0.701132 *  0.310186 *  -2.87073    1.000000    
    225 O2    s    0.292704 *  0.087726 *  0.647238 *  -2.87073    1.000000    
    226 O2    s    0.086207 *  0.795292 *  0.480654 *  -2.87073    1.000000    
    227 O2    s    0.200957 *  0.302671 *  0.812731 *  -2.87073    1.000000    
    228 O2    s    0.704773 *  0.909520 *  0.148091 *  -2.87073    1.000000    
    229 O2    s    0.201963 *  0.894190 *  0.349207 *  -2.87073    1.000000    
    230 O2    s    0.703309 *  0.800275 *  0.013812 *  -2.87073    1.000000    
    231 O2    s    0.089724 *  0.296326 *  0.681242 *  -2.87073    1.000000    
    232 O2    s    0.812375 *  0.106014 *  0.851668 *  -2.87073    1.000000    
    233 O2    s    0.290594 *  0.210737 *  0.514085 *  -2.87073    1.000000    
    234 O2    s    0.908010 *  0.708120 *  0.178541 *  -2.87073    1.000000    
    235 O2    s    0.327350 *  0.651493 *  0.245069 *  -2.87073    1.000000    
    236 O2    s    0.337441 *  0.670071 *  0.580033 *  -2.87073    1.000000    
    237 O2    s    0.326247 *  0.676087 *  0.913157 *  -2.87073    1.000000    
    238 O2    s    0.669137 *  0.339854 *  0.749185 *  -2.87073    1.000000    
    239 O3    s    0.627555 *  0.310156 *  0.087091 *  -3.33043    1.000000    
    240 O2    s    0.667919 *  0.331374 *  0.415202 *  -2.87073    1.000000    
    241 O2    s    0.375947 *  0.344733 *  0.964684 *  -2.87073    1.000000    
    242 O2    s    0.660382 *  0.027015 *  0.302062 *  -2.87073    1.000000    
    243 O2    s    0.959605 *  0.622193 *  0.633383 *  -2.87073    1.000000    
    244 O2    s    0.619986 *  0.666952 *  0.461665 *  -2.87073    1.000000    
    245 O3    s    0.326091 *  0.967809 *  0.802232 *  -3.33043    1.000000    
    246 O2    s    0.029962 *  0.379184 *  0.128556 *  -2.87073    1.000000    
    247 O3    s    0.326170 *  0.355594 *  0.357768 *  -3.33043    1.000000    
    248 O2    s    0.026616 *  0.656057 *  0.025866 *  -2.87073    1.000000    
    249 O2    s    0.622796 *  0.959587 *  0.698711 *  -2.87073    1.000000    
    250 O2    s    0.657948 *  0.627675 *  0.861987 *  -2.87073    1.000000    
    251 O2    s    0.956803 *  0.340227 *  0.529491 *  -2.87073    1.000000    
    252 O2    s    0.378598 *  0.035087 *  0.198501 *  -2.87073    1.000000    
    253 O3    s    0.765909 *  0.291417 *  0.005275 *  -3.33043    1.000000    
    254 O2    s    0.693231 *  0.461929 *  0.344259 *  -2.87073    1.000000    
    255 O2    s    0.530989 *  0.217863 *  0.681314 *  -2.87073    1.000000    
    256 O2    s    0.215582 *  0.687087 *  0.511208 *  -2.87073    1.000000    
    257 O2    s    0.308334 *  0.538434 *  0.843628 *  -2.87073    1.000000    
    258 O2    s    0.465100 *  0.778496 *  0.177469 *  -2.87073    1.000000    
    259 O2    s    0.306847 *  0.765313 *  0.315768 *  -2.87073    1.000000    
    260 O2    s    0.463786 *  0.692946 *  0.982534 *  -2.87073    1.000000    
    261 O2    s    0.219700 *  0.533662 *  0.649762 *  -2.87073    1.000000    
    262 O2    s    0.693302 *  0.228415 *  0.818760 *  -2.87073    1.000000    
    263 O2    s    0.528303 *  0.317390 *  0.481654 *  -2.87073    1.000000    
    264 O2    s    0.769429 *  0.467106 *  0.148271 *  -2.87073    1.000000    
    265 O3    s    0.781672 *  0.548575 *  0.022354 *  -3.33043    1.000000    
    266 O2    s    0.471782 *  0.260829 *  0.361398 *  -2.87073    1.000000    
    267 O2    s    0.733422 *  0.204258 *  0.699748 *  -2.87073    1.000000    
    268 O2    s    0.204417 *  0.466785 *  0.527683 *  -2.87073    1.000000    
    269 O2    s    0.531044 *  0.747187 *  0.859707 *  -2.87073    1.000000    
    270 O2    s    0.255579 *  0.787604 *  0.195389 *  -2.87073    1.000000    
    271 O2    s    0.530334 *  0.781180 *  0.300731 *  -2.87073    1.000000    
    272 O2    s    0.255711 *  0.472138 *  0.965601 *  -2.87073    1.000000    
    273 O2    s    0.207005 *  0.741841 *  0.633410 *  -2.87073    1.000000    
    274 O2    s    0.471477 *  0.208512 *  0.801067 *  -2.87073    1.000000    
    275 O2    s    0.730362 *  0.533064 *  0.463576 *  -2.87073    1.000000    
    276 O2    s    0.784698 *  0.259729 *  0.131143 *  -2.87073    1.000000    
    277 O2    s    0.237877 *  0.337468 *  0.895574 *  -2.87073    1.000000    
    278 O2    s    0.665616 *  0.901713 *  0.231158 *  -2.87073    1.000000    
    279 O2    s    0.087440 *  0.758563 *  0.563647 *  -2.87073    1.000000    
    280 O2    s    0.755157 *  0.667094 *  0.393321 *  -2.87073    1.000000    
    281 O2    s    0.331308 *  0.087761 *  0.730876 *  -2.87073    1.000000    
    282 O2    s    0.898342 *  0.240639 *  0.060601 *  -2.87073    1.000000    
    283 O2    s    0.330306 *  0.244692 *  0.430233 *  -2.87073    1.000000    
    284 O2    s    0.895352 *  0.660871 *  0.095168 *  -2.87073    1.000000    
    285 O2    s    0.756733 *  0.088999 *  0.768423 *  -2.87073    1.000000    
    286 O2    s    0.664552 *  0.763111 *  0.930934 *  -2.87073    1.000000    
    287 O2    s    0.087935 *  0.332937 *  0.598368 *  -2.87073    1.000000    
    288 O2    s    0.240773 *  0.903582 *  0.266429 *  -2.87073    1.000000    
    289 O2    s    0.580832 *  0.563655 *  0.984516 *  -2.87073    1.000000    
    290 O2    s    0.440669 *  0.012498 *  0.321042 *  -2.87073    1.000000    
    291 O2    s    0.972123 *  0.415224 *  0.651728 *  -2.87073    1.000000    
    292 O2    s    0.413221 *  0.446046 *  0.480744 *  -2.87073    1.000000    
    293 O3    s    0.579057 *  0.986421 *  0.827377 *  -3.33043    1.000000    
    294 O2    s    0.014359 *  0.579510 *  0.145817 *  -2.87073    1.000000    
    295 O3    s    0.579140 *  0.589585 *  0.333158 *  -3.33043    1.000000    
    296 O2    s    0.010350 *  0.439910 *  0.007776 *  -2.87073    1.000000    
    297 O2    s    0.416108 *  0.973904 *  0.679305 *  -2.87073    1.000000    
    298 O2    s    0.438655 *  0.419988 *  0.843640 *  -2.87073    1.000000    
    299 O2    s    0.967816 *  0.559469 *  0.511207 *  -2.87073    1.000000    
    300 O2    s    0.587775 *  0.025887 *  0.179944 *  -2.87073    1.000000    
    301 O2    s    0.578865 *  0.149757 *  0.252222 *  -2.87073    1.000000    
    302 O2    s    0.839284 *  0.421678 *  0.582061 *  -2.87073    1.000000    
    303 O2    s    0.578676 *  0.428589 *  0.914313 *  -2.87073    1.000000    
    304 O3    s    0.418019 *  0.826828 *  0.742957 *  -3.33043    1.000000    
    305 O2    s    0.142803 *  0.574433 *  0.077554 *  -2.87073    1.000000    
    306 O3    s    0.416509 *  0.592040 *  0.415935 *  -3.33043    1.000000    
    307 F     s    0.454103 *  0.905600 *  0.248110 *  -1.56000    1.000000    
    308 F     s    0.086821 *  0.544983 *  0.580470 *  -1.56000    1.000000    
    309 F     s    0.449733 *  0.550680 *  0.912660 *  -1.56000    1.000000    
    310 F     s    0.518188 *  0.042789 *  0.760590 *  -1.56000    1.000000    
    311 F     s    0.842185 *  0.430537 *  0.067590 *  -1.56000    1.000000    
    312 F     s    0.517512 *  0.475742 *  0.400217 *  -1.56000    1.000000    
--------------------------------------------------------------------------------



********************************************************************************
*  General input information                                                   *
********************************************************************************

  Species output for all configurations : 

--------------------------------------------------------------------------------
  Species    Type    Atomic    Atomic    Charge       Radii (Angs)     Library
                     Number     Mass       (e)     Cova   Ionic  VDW   Symbol
--------------------------------------------------------------------------------
    Si       Core       14      28.09   4.000000   1.200  0.000  2.100          
    O1       Core        8      16.00   1.733957   0.730  0.000  1.360          
    O1       Shell       8       0.00  -3.733957   0.730  0.000  1.360          
    O2       Core        8      16.00   0.870733   0.730  0.000  1.360          
    O2       Shell       8       0.00  -2.870733   0.730  0.000  1.360          
    O3       Core        8      16.00   1.330431   0.730  0.000  1.360          
    O3       Shell       8       0.00  -3.330431   0.730  0.000  1.360          
    F        Core        9      19.00   0.560000   0.710  0.000  1.300          
    F        Shell       9       0.00  -1.560000   0.710  0.000  1.300          
    Ge       Core       32      72.61   4.000000   1.170  0.000  1.750          
--------------------------------------------------------------------------------


  Lattice summation method               =    Ewald          (3-D)
                                         =    Parry          (2-D)
                                         =    Saunders et al (1-D)
  Accuracy factor for lattice sums       =   12.000


  Time limit = Infinity

  Maximum range for interatomic potentials =        16.000000 Angstroms

  Taper potentials to zero over   1.0000 Angstroms using polynomial

  General interatomic potentials :

--------------------------------------------------------------------------------
Atom  Types   Potential         A         B         C         D     Cutoffs(Ang)
  1     2                                                            Min    Max 
--------------------------------------------------------------------------------
Si   c O1   s Buckingham    0.132E+04 0.318      10.1      0.00     0.000 16.000
Si   c O2   s Buckingham    0.132E+04 0.318      10.1      0.00     0.000 16.000
Si   c O3   s Buckingham    0.132E+04 0.318      10.1      0.00     0.000 16.000
Ge   c O1   s Buckingham    0.150E+04 0.326      16.8      0.00     0.000 16.000
Ge   c O2   s Buckingham    0.150E+04 0.326      16.8      0.00     0.000 16.000
Ge   c O3   s Buckingham    0.150E+04 0.326      16.8      0.00     0.000 16.000
O1   s O1   s Buckingham    0.228E+05 0.149      10.9      0.00     0.000 16.000
O1   s O2   s Buckingham    0.228E+05 0.149      10.9      0.00     0.000 16.000
O1   s O3   s Buckingham    0.228E+05 0.149      10.9      0.00     0.000 16.000
O2   s O2   s Buckingham    0.228E+05 0.149      10.9      0.00     0.000 16.000
O2   s O3   s Buckingham    0.228E+05 0.149      10.9      0.00     0.000 16.000
O3   s O3   s Buckingham    0.228E+05 0.149      10.9      0.00     0.000 16.000
Si   c F    s Buckingham     977.     0.282      0.00      0.00     0.000 16.000
Ge   c F    s Buckingham     681.     0.320      0.00      0.00     0.000 16.000
F    s F    s Buckingham     540.     0.262      0.00      0.00     0.000 16.000
O1   s F    s Buckingham    0.168E+04 0.268      0.00      0.00     0.000 16.000
O2   s F    s Buckingham    0.168E+04 0.268      0.00      0.00     0.000 16.000
O3   s F    s Buckingham    0.168E+04 0.268      0.00      0.00     0.000 16.000
O2   c O2   s Spring (c-s)   76.0      0.00      0.00      0.00     0.000  0.800
O3   c O3   s Spring (c-s)   128.      0.00      0.00      0.00     0.000  0.800
O1   c O1   s Spring (c-s)   180.      0.00      0.00      0.00     0.000  0.800
F    c F    s Spring (c-s)   33.5      0.00      0.00      0.00     0.000  0.800
--------------------------------------------------------------------------------

  General Three-body potentials :

  Harmonic form:

--------------------------------------------------------------------------------
Atom    Atom    Atom           Force Constants            Theta     Cutoffs  
  1       2       3     (eVrad**-2/eVrad**-3/eVrad**-4)   (deg)  1-2  1-3  2-3
--------------------------------------------------------------------------------
Si    c O1    s O1    s  1.261        0.0000    0.0000   109.470 0.00 0.00 0.00
                                                                 1.90 1.90 3.50
Si    c O1    s O2    s  1.261        0.0000    0.0000   109.470 0.00 0.00 0.00
                                                                 1.90 1.90 3.50
Si    c O2    s O2    s  1.261        0.0000    0.0000   109.470 0.00 0.00 0.00
                                                                 1.90 1.90 3.50
--------------------------------------------------------------------------------

********************************************************************************
*  Output for configuration   1                                                *
********************************************************************************


  Components of energy : 

--------------------------------------------------------------------------------
  Interatomic potentials     =        2067.02852025 eV
  Three-body potentials      =           0.46167106 eV
  Monopole - monopole (real) =       -6616.76675307 eV
  Monopole - monopole (recip)=       -3171.75500634 eV
  Monopole - monopole (total)=       -9788.52175942 eV
  Neutralising energy        =          -6.46087358 eV
--------------------------------------------------------------------------------
  Total lattice energy       =       -7727.49244168 eV
--------------------------------------------------------------------------------
  Total lattice energy       =         -745584.8951 kJ/(mole unit cells)
--------------------------------------------------------------------------------


  Number of variables =      939

  Maximum number of calculations  =          5000
  Maximum Hessian update interval =            10
  Maximum step size               =   0.100000000
  Maximum parameter tolerance     =   0.000010000
  Maximum function  tolerance     =   0.000010000
  Maximum gradient  tolerance     =   0.001000000
  Maximum gradient  component     =   0.010000000

  Symmetry not applied to optimisation

  Cell parameters to be optimised using strains

  Newton-Raphson optimiser to be used

  BFGS hessian update to be used

  Dumpfile to be written after every cycle

  Start of bulk optimisation :

  Cycle:      0 Energy:     -7727.492442  Gnorm:      0.006032  CPU:    2.031
  ** Hessian calculated **
  Cycle:      1 Energy:     -7727.516112  Gnorm:      0.005516  CPU:    6.774
  Cycle:      2 Energy:     -7727.551420  Gnorm:      0.004648  CPU:   11.861
  Cycle:      3 Energy:     -7727.587799  Gnorm:      0.003584  CPU:   16.203
  Cycle:      4 Energy:     -7727.620856  Gnorm:      0.002400  CPU:   20.565
  Cycle:      5 Energy:     -7727.630359  Gnorm:      0.001573  CPU:   24.922
  Cycle:      6 Energy:     -7727.632715  Gnorm:      0.000910  CPU:   29.264
  Cycle:      7 Energy:     -7727.633309  Gnorm:      0.000496  CPU:   33.615
  Cycle:      8 Energy:     -7727.633459  Gnorm:      0.000260  CPU:   37.984
  Cycle:      9 Energy:     -7727.633485  Gnorm:      0.000184  CPU:   40.905
  Cycle:     10 Energy:     -7727.633497  Gnorm:      0.000130  CPU:   43.825
  ** Hessian calculated **
  Cycle:     11 Energy:     -7727.633497  Gnorm:      0.000066  CPU:   48.459
  Cycle:     12 Energy:     -7727.633497  Gnorm:      0.000048  CPU:   51.405
  Cycle:     13 Energy:     -7727.633497  Gnorm:      0.000035  CPU:   54.341


  **** Optimisation achieved ****


  Final energy =   -7727.63349750 eV
  Final Gnorm  =       0.00002688

  Components of energy : 

--------------------------------------------------------------------------------
  Interatomic potentials     =        2067.30377618 eV
  Three-body potentials      =           0.46348045 eV
  Monopole - monopole (real) =       -6619.03578400 eV
  Monopole - monopole (recip)=       -3169.90785637 eV
  Monopole - monopole (total)=       -9788.94364038 eV
  Neutralising energy        =          -6.45711375 eV
--------------------------------------------------------------------------------
  Total lattice energy       =       -7727.63349750 eV
--------------------------------------------------------------------------------
  Total lattice energy       =         -745598.5048 kJ/(mole unit cells)
--------------------------------------------------------------------------------

  Final fractional coordinates of atoms :

--------------------------------------------------------------------------------
   No.  Atomic        x           y          z          Radius
        Label       (Frac)      (Frac)     (Frac)       (Angs) 
--------------------------------------------------------------------------------
     1  Ge    c     0.699600    0.375700    0.033890    0.000000
     2  Si    c     0.591097    0.298430    0.362897    0.000000
     3  Si    c     0.646292    0.276642    0.698422    0.000000
     4  Si    c     0.258887    0.598130    0.529697    0.000000
     5  Si    c     0.357260    0.670213    0.862001    0.000000
     6  Si    c     0.300450    0.687734    0.196206    0.000000
     7  Si    c     0.348195    0.670279    0.297472    0.000000
     8  Si    c     0.307814    0.612084    0.963174    0.000000
     9  Si    c     0.264418    0.655955    0.630178    0.000000
    10  Si    c     0.598602    0.285141    0.800598    0.000000
    11  Si    c     0.639801    0.360275    0.464936    0.000000
    12  Si    c     0.668595    0.304405    0.132204    0.000000
    13  Si    c     0.521327    0.410457    0.965812    0.000000
    14  Si    c     0.554864    0.082980    0.301498    0.000000
    15  Si    c     0.853518    0.448703    0.632206    0.000000
    16  Si    c     0.429281    0.569264    0.462238    0.000000
    17  Ge    c     0.407330    0.889230    0.796193    0.000000
    18  Si    c     0.090488    0.517823    0.129453    0.000000
    19  Ge    c     0.398514    0.501134    0.363529    0.000000
    20  Si    c     0.093086    0.573198    0.026415    0.000000
    21  Si    c     0.437864    0.857383    0.697157    0.000000
    22  Si    c     0.563636    0.463423    0.863463    0.000000
    23  Si    c     0.849605    0.396456    0.531145    0.000000
    24  Si    c     0.508873    0.095782    0.200442    0.000000
    25  Si    c     0.283125    0.392225    0.848612    0.000000
    26  Si    c     0.580036    0.888831    0.183685    0.000000
    27  Si    c     0.056870    0.675203    0.516199    0.000000
    28  Si    c     0.672160    0.579463    0.342551    0.000000
    29  Si    c     0.364074    0.070329    0.683843    0.000000
    30  Si    c     0.880957    0.285831    0.010476    0.000000
    31  Si    c     0.356982    0.283410    0.477046    0.000000
    32  Si    c     0.876244    0.588872    0.143003    0.000000
    33  Si    c     0.681175    0.084653    0.818775    0.000000
    34  Si    c     0.586793    0.690616    0.977461    0.000000
    35  Si    c     0.063052    0.377696    0.645340    0.000000
    36  Si    c     0.273585    0.873838    0.313248    0.000000
    37  Si    c     0.241204    0.333983    0.948978    0.000000
    38  Si    c     0.631276    0.883025    0.284704    0.000000
    39  Si    c     0.053592    0.727546    0.616782    0.000000
    40  Si    c     0.710724    0.643635    0.445537    0.000000
    41  Si    c     0.310052    0.070703    0.786066    0.000000
    42  Si    c     0.885422    0.237085    0.113669    0.000000
    43  Si    c     0.302087    0.223140    0.374853    0.000000
    44  Si    c     0.892319    0.657293    0.040753    0.000000
    45  Si    c     0.718834    0.064088    0.715635    0.000000
    46  Si    c     0.639544    0.740935    0.876616    0.000000
    47  Si    c     0.050003    0.317131    0.544742    0.000000
    48  Si    c     0.228675    0.894840    0.212843    0.000000
    49  Si    c     0.964402    0.114028    0.963888    0.000000
    50  Si    c     0.854369    0.825125    0.295838    0.000000
    51  Si    c     0.117329    0.007828    0.631302    0.000000
    52  Si    c     0.992973    0.856901    0.463886    0.000000
    53  Si    c     0.101206    0.145936    0.798021    0.000000
    54  Si    c     0.827265    0.960095    0.131252    0.000000
    55  Si    c     0.092729    0.938316    0.362878    0.000000
    56  Si    c     0.834827    0.875253    0.029785    0.000000
    57  Si    c     0.000623    0.132728    0.696979    0.000000
    58  Si    c     0.864840    0.019567    0.864520    0.000000
    59  Si    c     0.112620    0.100062    0.529652    0.000000
    60  Si    c     0.950238    0.837358    0.195097    0.000000
    61  O2    c     0.919022    0.001141    0.000252    0.000000
    62  O2    c     0.973637    0.902049    0.329638    0.000000
    63  O2    c     0.038622    0.051451    0.663420    0.000000
    64  O2    c     0.033535    0.978541    0.496649    0.000000
    65  O2    c     0.980219    0.061177    0.829568    0.000000
    66  O2    c     0.912548    0.921731    0.162988    0.000000
    67  O3    c     0.310438    0.548354    0.327118    0.000000
    68  O2    c     0.393241    0.742470    0.659907    0.000000
    69  O2    c     0.221086    0.648350    0.995862    0.000000
    70  O2    c     0.637690    0.411108    0.830736    0.000000
    71  O2    c     0.560626    0.225305    0.170442    0.000000
    72  O2    c     0.721614    0.322487    0.499009    0.000000
    73  O3    c     0.565520    0.334668    0.997707    0.000000
    74  O2    c     0.728930    0.397294    0.665083    0.000000
    75  O2    c     0.630041    0.208029    0.334800    0.000000
    76  O2    c     0.384641    0.640239    0.498720    0.000000
    77  O2    c     0.215351    0.567313    0.162110    0.000000
    78  O3    c     0.319165    0.752784    0.831088    0.000000
    79  O2    c     0.117975    0.205205    0.969509    0.000000
    80  O2    c     0.757186    0.879683    0.304196    0.000000
    81  O2    c     0.052677    0.853427    0.636342    0.000000
    82  O2    c     0.837599    0.767847    0.466587    0.000000
    83  O2    c     0.192910    0.085895    0.804724    0.000000
    84  O2    c     0.887861    0.114021    0.135318    0.000000
    85  O2    c     0.185681    0.089593    0.356067    0.000000
    86  O2    c     0.908544    0.794521    0.025445    0.000000
    87  O2    c     0.845481    0.068595    0.694110    0.000000
    88  O2    c     0.766483    0.867841    0.856780    0.000000
    89  O2    c     0.046479    0.188737    0.525315    0.000000
    90  O2    c     0.104563    0.898721    0.191964    0.000000
    91  O2    c     0.906364    0.847705    0.245174    0.000000
    92  O2    c     0.107387    0.048787    0.580229    0.000000
    93  O2    c     0.923922    0.049513    0.914682    0.000000
    94  O2    c     0.049357    0.127481    0.746727    0.000000
    95  O2    c     0.835392    0.919121    0.080881    0.000000
    96  O2    c     0.039598    0.906823    0.413691    0.000000
    97  O2    c     0.895302    0.197332    0.972509    0.000000
    98  O2    c     0.783271    0.672665    0.306831    0.000000
    99  O2    c     0.268493    0.073178    0.644769    0.000000
   100  O2    c     0.058934    0.773481    0.478066    0.000000
   101  O2    c     0.181518    0.296964    0.809880    0.000000
   102  O2    c     0.677309    0.889179    0.145580    0.000000
   103  O2    c     0.172554    0.866238    0.351854    0.000000
   104  O2    c     0.685329    0.791502    0.015174    0.000000
   105  O2    c     0.067737    0.282544    0.683269    0.000000
   106  O2    c     0.792779    0.100986    0.854593    0.000000
   107  O2    c     0.262813    0.187023    0.516018    0.000000
   108  O2    c     0.879855    0.686970    0.181523    0.000000
   109  O2    c     0.298954    0.625734    0.245143    0.000000
   110  O2    c     0.316323    0.654160    0.579702    0.000000
   111  O2    c     0.304655    0.668046    0.913407    0.000000
   112  O2    c     0.645922    0.330068    0.748562    0.000000
   113  O3    c     0.604831    0.298458    0.084358    0.000000
   114  O2    c     0.639641    0.305024    0.415031    0.000000
   115  O2    c     0.363410    0.324864    0.966978    0.000000
   116  O2    c     0.643683    0.015733    0.304250    0.000000
   117  O2    c     0.921762    0.604564    0.635434    0.000000
   118  O2    c     0.588170    0.653248    0.463116    0.000000
   119  O3    c     0.291738    0.940505    0.805480    0.000000
   120  O2    c     0.017150    0.362262    0.131237    0.000000
   121  O3    c     0.283362    0.333937    0.354230    0.000000
   122  O2    c     0.024995    0.660727    0.025360    0.000000
   123  O2    c     0.596696    0.932968    0.696502    0.000000
   124  O2    c     0.651100    0.619086    0.858489    0.000000
   125  O2    c     0.916554    0.307822    0.526833    0.000000
   126  O2    c     0.352406    0.027345    0.195526    0.000000
   127  O3    c     0.748001    0.279590    0.001844    0.000000
   128  O2    c     0.668417    0.441710    0.341389    0.000000
   129  O2    c     0.500860    0.202451    0.677889    0.000000
   130  O2    c     0.188479    0.671706    0.507703    0.000000
   131  O2    c     0.282777    0.524707    0.840703    0.000000
   132  O2    c     0.443560    0.758656    0.173865    0.000000
   133  O2    c     0.272255    0.739893    0.318381    0.000000
   134  O2    c     0.451662    0.688664    0.985707    0.000000
   135  O2    c     0.195813    0.512951    0.652490    0.000000
   136  O2    c     0.677279    0.218387    0.820719    0.000000
   137  O2    c     0.494060    0.289167    0.484215    0.000000
   138  O2    c     0.744670    0.453863    0.150898    0.000000
   139  O3    c     0.767625    0.543964    0.018531    0.000000
   140  O2    c     0.436557    0.233232    0.358611    0.000000
   141  O2    c     0.710717    0.186788    0.697398    0.000000
   142  O2    c     0.175848    0.441929    0.524662    0.000000
   143  O2    c     0.514558    0.740919    0.856298    0.000000
   144  O2    c     0.224764    0.768284    0.192406    0.000000
   145  O2    c     0.505130    0.758719    0.303810    0.000000
   146  O2    c     0.235237    0.456503    0.968710    0.000000
   147  O2    c     0.180991    0.728437    0.635626    0.000000
   148  O2    c     0.444250    0.194326    0.803447    0.000000
   149  O2    c     0.703101    0.514453    0.465214    0.000000
   150  O2    c     0.761660    0.240545    0.132503    0.000000
   151  O2    c     0.214762    0.315527    0.894780    0.000000
   152  O2    c     0.650041    0.885312    0.230407    0.000000
   153  O2    c     0.054124    0.745751    0.562496    0.000000
   154  O2    c     0.727858    0.653182    0.391401    0.000000
   155  O2    c     0.296459    0.069243    0.730771    0.000000
   156  O2    c     0.885657    0.222972    0.059413    0.000000
   157  O2    c     0.289054    0.214224    0.430019    0.000000
   158  O2    c     0.880458    0.658811    0.096004    0.000000
   159  O2    c     0.736369    0.068137    0.769760    0.000000
   160  O2    c     0.658739    0.761047    0.930893    0.000000
   161  O2    c     0.055804    0.302405    0.598949    0.000000
   162  O2    c     0.206785    0.887966    0.267084    0.000000
   163  O2    c     0.574302    0.553479    0.987328    0.000000
   164  O2    c     0.413337    0.998455    0.324377    0.000000
   165  O2    c     0.936617    0.389671    0.654819    0.000000
   166  O2    c     0.375434    0.424394    0.483070    0.000000
   167  O3    c     0.549770    0.962266    0.831766    0.000000
   168  O2    c     0.999141    0.569087    0.149220    0.000000
   169  O3    c     0.540594    0.569933    0.328464    0.000000
   170  O2    c     0.001892    0.432127    0.005102    0.000000
   171  O2    c     0.383215    0.948533    0.676548    0.000000
   172  O2    c     0.421663    0.402951    0.839629    0.000000
   173  O2    c     0.928821    0.537005    0.507411    0.000000
   174  O2    c     0.570513    0.017275    0.176453    0.000000
   175  O2    c     0.558585    0.144525    0.251960    0.000000
   176  O2    c     0.795699    0.394491    0.581768    0.000000
   177  O2    c     0.570668    0.413310    0.913810    0.000000
   178  O3    c     0.383837    0.795735    0.744994    0.000000
   179  O2    c     0.136640    0.566535    0.078311    0.000000
   180  O3    c     0.374937    0.573822    0.413685    0.000000
   181  F     c     0.429130    0.888570    0.247921    0.000000
   182  F     c     0.053694    0.523154    0.580104    0.000000
   183  F     c     0.435739    0.540050    0.912432    0.000000
   184  F     c     0.497756    0.033792    0.758205    0.000000
   185  F     c     0.844830    0.428951    0.070290    0.000000
   186  F     c     0.489765    0.449404    0.402312    0.000000
   187  O2    s     0.914504    0.999566    0.999491    0.000000
   188  O2    s     0.973668    0.897392    0.329598    0.000000
   189  O2    s     0.043241    0.055393    0.663478    0.000000
   190  O2    s     0.037815    0.978687    0.496722    0.000000
   191  O2    s     0.980985    0.066204    0.829914    0.000000
   192  O2    s     0.907353    0.916581    0.163069    0.000000
   193  O3    s     0.320686    0.558527    0.326368    0.000000
   194  O2    s     0.384064    0.744829    0.660470    0.000000
   195  O2    s     0.216103    0.636750    0.995858    0.000000
   196  O2    s     0.626279    0.402666    0.830664    0.000000
   197  O2    s     0.566384    0.219952    0.169613    0.000000
   198  O2    s     0.725876    0.334033    0.498627    0.000000
   199  O3    s     0.570214    0.345805    0.996823    0.000000
   200  O2    s     0.732987    0.389858    0.665232    0.000000
   201  O2    s     0.618456    0.205220    0.334495    0.000000
   202  O2    s     0.375992    0.628578    0.498268    0.000000
   203  O2    s     0.210622    0.574180    0.162073    0.000000
   204  O3    s     0.329552    0.753481    0.831969    0.000000
   205  O2    s     0.113683    0.208307    0.966832    0.000000
   206  O2    s     0.754571    0.874240    0.301343    0.000000
   207  O2    s     0.059556    0.856691    0.633823    0.000000
   208  O2    s     0.840900    0.764409    0.464141    0.000000
   209  O2    s     0.195551    0.091042    0.801916    0.000000
   210  O2    s     0.881207    0.110558    0.132662    0.000000
   211  O2    s     0.188104    0.087280    0.358897    0.000000
   212  O2    s     0.898989    0.788985    0.027481    0.000000
   213  O2    s     0.848871    0.074949    0.696619    0.000000
   214  O2    s     0.764119    0.871179    0.859581    0.000000
   215  O2    s     0.053781    0.192518    0.527730    0.000000
   216  O2    s     0.100774    0.891720    0.194433    0.000000
   217  O2    s     0.905364    0.843960    0.245336    0.000000
   218  O2    s     0.109037    0.049972    0.580222    0.000000
   219  O2    s     0.921773    0.053319    0.914504    0.000000
   220  O2    s     0.049388    0.130125    0.746592    0.000000
   221  O2    s     0.834393    0.918983    0.081012    0.000000
   222  O2    s     0.040148    0.904597    0.413796    0.000000
   223  O2    s     0.901303    0.197653    0.975578    0.000000
   224  O2    s     0.779511    0.679120    0.309289    0.000000
   225  O2    s     0.262217    0.065996    0.647297    0.000000
   226  O2    s     0.051559    0.772232    0.480536    0.000000
   227  O2    s     0.182787    0.289959    0.812385    0.000000
   228  O2    s     0.683296    0.896717    0.147987    0.000000
   229  O2    s     0.174004    0.874640    0.349234    0.000000
   230  O2    s     0.691576    0.790365    0.012930    0.000000
   231  O2    s     0.060045    0.276506    0.680727    0.000000
   232  O2    s     0.789021    0.090955    0.852008    0.000000
   233  O2    s     0.256620    0.187759    0.513445    0.000000
   234  O2    s     0.886958    0.692860    0.179006    0.000000
   235  O2    s     0.303995    0.636746    0.245112    0.000000
   236  O2    s     0.304738    0.648391    0.579720    0.000000
   237  O2    s     0.310175    0.662330    0.913606    0.000000
   238  O2    s     0.641238    0.319910    0.748439    0.000000
   239  O3    s     0.617460    0.303929    0.086208    0.000000
   240  O2    s     0.634707    0.310211    0.414981    0.000000
   241  O2    s     0.365613    0.334402    0.964853    0.000000
   242  O2    s     0.633315    0.009216    0.301984    0.000000
   243  O2    s     0.928361    0.601233    0.633161    0.000000
   244  O2    s     0.585766    0.644113    0.461160    0.000000
   245  O3    s     0.301506    0.951207    0.802711    0.000000
   246  O2    s     0.011135    0.365543    0.129221    0.000000
   247  O3    s     0.293122    0.333256    0.357105    0.000000
   248  O2    s     0.018835    0.651261    0.027020    0.000000
   249  O2    s     0.594186    0.939470    0.698592    0.000000
   250  O2    s     0.640985    0.615569    0.860842    0.000000
   251  O2    s     0.923436    0.317892    0.529132    0.000000
   252  O2    s     0.355422    0.020405    0.197862    0.000000
   253  O3    s     0.759181    0.286557    0.004943    0.000000
   254  O2    s     0.660725    0.440608    0.343781    0.000000
   255  O2    s     0.501827    0.196451    0.680664    0.000000
   256  O2    s     0.181740    0.664458    0.510904    0.000000
   257  O2    s     0.290222    0.524714    0.843716    0.000000
   258  O2    s     0.443111    0.765002    0.177220    0.000000
   259  O2    s     0.279921    0.747674    0.315708    0.000000
   260  O2    s     0.450854    0.681022    0.982525    0.000000
   261  O2    s     0.188747    0.513318    0.649395    0.000000
   262  O2    s     0.669462    0.211833    0.818386    0.000000
   263  O2    s     0.495041    0.296061    0.481421    0.000000
   264  O2    s     0.751423    0.453960    0.148238    0.000000
   265  O3    s     0.777104    0.545606    0.021911    0.000000
   266  O2    s     0.439556    0.239445    0.360733    0.000000
   267  O2    s     0.704566    0.183340    0.699442    0.000000
   268  O2    s     0.170721    0.444490    0.527300    0.000000
   269  O2    s     0.512837    0.733771    0.859052    0.000000
   270  O2    s     0.233080    0.773557    0.194966    0.000000
   271  O2    s     0.503532    0.763902    0.301110    0.000000
   272  O2    s     0.243410    0.459612    0.966082    0.000000
   273  O2    s     0.175654    0.720807    0.633057    0.000000
   274  O2    s     0.447265    0.191315    0.801343    0.000000
   275  O2    s     0.697016    0.511641    0.463088    0.000000
   276  O2    s     0.766114    0.246632    0.130386    0.000000
   277  O2    s     0.224601    0.325416    0.895599    0.000000
   278  O2    s     0.640656    0.885447    0.231218    0.000000
   279  O2    s     0.054342    0.736372    0.563420    0.000000
   280  O2    s     0.720561    0.645016    0.392562    0.000000
   281  O2    s     0.305172    0.069482    0.731112    0.000000
   282  O2    s     0.885168    0.230644    0.060459    0.000000
   283  O2    s     0.297706    0.222629    0.429605    0.000000
   284  O2    s     0.881121    0.650959    0.095683    0.000000
   285  O2    s     0.729120    0.069222    0.768531    0.000000
   286  O2    s     0.649183    0.751557    0.930025    0.000000
   287  O2    s     0.055929    0.311872    0.597975    0.000000
   288  O2    s     0.215982    0.887260    0.266155    0.000000
   289  O2    s     0.570074    0.554238    0.984042    0.000000
   290  O2    s     0.413305    0.993996    0.320851    0.000000
   291  O2    s     0.941479    0.394720    0.651425    0.000000
   292  O2    s     0.378816    0.423067    0.480339    0.000000
   293  O3    s     0.554599    0.970987    0.827978    0.000000
   294  O2    s     0.995600    0.565627    0.146437    0.000000
   295  O3    s     0.545449    0.566181    0.332314    0.000000
   296  O2    s     0.999239    0.432468    0.007962    0.000000
   297  O2    s     0.386565    0.953151    0.679375    0.000000
   298  O2    s     0.421651    0.408123    0.843001    0.000000
   299  O2    s     0.934293    0.537044    0.510821    0.000000
   300  O2    s     0.565015    0.011538    0.179709    0.000000
   301  O2    s     0.553003    0.133028    0.251776    0.000000
   302  O2    s     0.807270    0.400291    0.581717    0.000000
   303  O2    s     0.565082    0.418382    0.913562    0.000000
   304  O3    s     0.391195    0.808395    0.743115    0.000000
   305  O2    s     0.127248    0.562016    0.078456    0.000000
   306  O3    s     0.382284    0.568643    0.415615    0.000000
   307  F     s     0.429245    0.889028    0.247827    0.000000
   308  F     s     0.053399    0.522999    0.580023    0.000000
   309  F     s     0.435530    0.540104    0.912353    0.000000
   310  F     s     0.491796    0.023993    0.760640    0.000000
   311  F     s     0.834003    0.425095    0.067672    0.000000
   312  F     s     0.483666    0.453106    0.399725    0.000000
--------------------------------------------------------------------------------

  Final Cartesian lattice vectors (Angstroms) :

       11.958892    0.001340   -0.006711
       -6.021733   10.385962    0.010964
       -0.239344   -0.040382   29.479912


  Final cell parameters and derivatives :

--------------------------------------------------------------------------------
       a           11.958894 Angstrom     dE/de1(xx)     0.000988 eV/strain
       b           12.005399 Angstrom     dE/de2(yy)     0.000233 eV/strain
       c           29.480911 Angstrom     dE/de3(zz)     0.001186 eV/strain
       alpha       89.782254 Degrees      dE/de4(yz)    -0.000006 eV/strain
       beta        90.497327 Degrees      dE/de5(xz)    -0.000012 eV/strain
       gamma      120.098555 Degrees      dE/de6(xy)     0.000670 eV/strain
--------------------------------------------------------------------------------

  Primitive cell volume =          3661.765453 Angs**3

  Density of cell =      1.747270 g/cm**3

  Non-primitive cell volume =          3661.765453 Angs**3


  Final internal derivatives :

--------------------------------------------------------------------------------
   No.  Atomic          a             b             c           Radius
        Label          (eV)          (eV)          (eV)        (eV/Angs)
--------------------------------------------------------------------------------
      1 Ge    c       0.000000      0.000000      0.000000      0.000000
      2 Si    c      -0.000003      0.000434      0.000762      0.000000
      3 Si    c       0.000335     -0.000304     -0.000159      0.000000
      4 Si    c       0.000369      0.000304      0.000446      0.000000
      5 Si    c       0.000167     -0.000263      0.000855      0.000000
      6 Si    c       0.000175      0.000111      0.000119      0.000000
      7 Si    c       0.000295      0.001066     -0.000430      0.000000
      8 Si    c       0.000618     -0.000360      0.000252      0.000000
      9 Si    c       0.000096      0.000488      0.000081      0.000000
     10 Si    c      -0.000198     -0.000678     -0.000610      0.000000
     11 Si    c       0.000117     -0.000119      0.000014      0.000000
     12 Si    c       0.001674      0.000684      0.006826      0.000000
     13 Si    c      -0.000762     -0.001088      0.000862      0.000000
     14 Si    c       0.000040     -0.000077     -0.000230      0.000000
     15 Si    c       0.000188     -0.000337      0.000158      0.000000
     16 Si    c       0.000485      0.000134      0.000008      0.000000
     17 Ge    c       0.000001      0.000471     -0.000558      0.000000
     18 Si    c       0.000753      0.000272      0.000716      0.000000
     19 Ge    c       0.000641      0.000169      0.001252      0.000000
     20 Si    c       0.000661     -0.000416     -0.000099      0.000000
     21 Si    c       0.000026      0.000225      0.000414      0.000000
     22 Si    c      -0.000583      0.000142      0.000957      0.000000
     23 Si    c       0.000376      0.000016      0.000352      0.000000
     24 Si    c      -0.000215     -0.001052      0.001575      0.000000
     25 Si    c       0.000069     -0.000071      0.000384      0.000000
     26 Si    c      -0.000160      0.000161      0.000174      0.000000
     27 Si    c       0.000701     -0.000231      0.000946      0.000000
     28 Si    c       0.000374      0.000365      0.000663      0.000000
     29 Si    c       0.000422     -0.000243      0.000506      0.000000
     30 Si    c       0.001379      0.000801     -0.000514      0.000000
     31 Si    c       0.000223     -0.000184     -0.000297      0.000000
     32 Si    c       0.000475      0.000342     -0.000516      0.000000
     33 Si    c      -0.000615     -0.000073     -0.000220      0.000000
     34 Si    c       0.000060     -0.000354     -0.000654      0.000000
     35 Si    c      -0.000143      0.000588     -0.000981      0.000000
     36 Si    c       0.000626      0.000278     -0.000633      0.000000
     37 Si    c       0.000026     -0.000119     -0.000197      0.000000
     38 Si    c      -0.000533      0.000574     -0.000494      0.000000
     39 Si    c       0.000487     -0.000332     -0.000241      0.000000
     40 Si    c       0.000304      0.000074     -0.000359      0.000000
     41 Si    c       0.000448     -0.000251     -0.000206      0.000000
     42 Si    c       0.000879      0.000196     -0.000328      0.000000
     43 Si    c       0.000169      0.000193      0.000651      0.000000
     44 Si    c       0.000241     -0.000584     -0.003259      0.000000
     45 Si    c      -0.000303      0.000076      0.000459      0.000000
     46 Si    c      -0.000029     -0.000096      0.000689      0.000000
     47 Si    c       0.000191      0.000488      0.000404      0.000000
     48 Si    c       0.000453     -0.000213      0.000300      0.000000
     49 Si    c      -0.000016      0.000398      0.000856      0.000000
     50 Si    c       0.000349      0.000264     -0.000143      0.000000
     51 Si    c       0.000646     -0.000006     -0.000251      0.000000
     52 Si    c       0.000200     -0.000029      0.000707      0.000000
     53 Si    c       0.000112      0.000099      0.000817      0.000000
     54 Si    c      -0.000339     -0.000002      0.000866      0.000000
     55 Si    c       0.000137      0.000065      0.000624      0.000000
     56 Si    c      -0.000202     -0.000057     -0.000354      0.000000
     57 Si    c      -0.000083      0.000228     -0.000948      0.000000
     58 Si    c       0.000101      0.000162     -0.000366      0.000000
     59 Si    c       0.000414      0.000186      0.000255      0.000000
     60 Si    c       0.000527     -0.000121     -0.000425      0.000000
     61 O2    c      -0.000154     -0.000319      0.000008      0.000000
     62 O2    c       0.000341      0.001527     -0.000022      0.000000
     63 O2    c       0.000721      0.000071     -0.000997      0.000000
     64 O2    c       0.000254      0.000123      0.000700      0.000000
     65 O2    c       0.000565     -0.001156      0.000290      0.000000
     66 O2    c       0.000168      0.000014      0.000575      0.000000
     67 O3    c       0.000302      0.000152      0.000951      0.000000
     68 O2    c      -0.000245      0.000126     -0.000026      0.000000
     69 O2    c       0.000817      0.000095      0.000142      0.000000
     70 O2    c       0.000196      0.000434      0.000283      0.000000
     71 O2    c      -0.000558     -0.000640      0.002524      0.000000
     72 O2    c       0.000532      0.000192      0.000083      0.000000
     73 O3    c       0.000841     -0.001192      0.003699      0.000000
     74 O2    c       0.000544     -0.000335     -0.000071      0.000000
     75 O2    c       0.000123      0.000416     -0.000106      0.000000
     76 O2    c       0.000363      0.000001      0.000258      0.000000
     77 O2    c       0.000039     -0.000217     -0.000376      0.000000
     78 O3    c      -0.000090      0.000254     -0.000501      0.000000
     79 O2    c       0.000676     -0.000272      0.000429      0.000000
     80 O2    c      -0.000327      0.000963     -0.000225      0.000000
     81 O2    c       0.000356     -0.000053     -0.000232      0.000000
     82 O2    c       0.000132     -0.000199      0.000034      0.000000
     83 O2    c       0.000328     -0.000373     -0.000030      0.000000
     84 O2    c      -0.000098     -0.000094      0.000601      0.000000
     85 O2    c       0.000268      0.000660      0.000562      0.000000
     86 O2    c       0.001806     -0.000009     -0.002580      0.000000
     87 O2    c      -0.000325     -0.000024     -0.000199      0.000000
     88 O2    c      -0.000104     -0.000331      0.000883      0.000000
     89 O2    c       0.000560      0.000230      0.000367      0.000000
     90 O2    c       0.000415     -0.000070      0.000611      0.000000
     91 O2    c       0.000613      0.000280     -0.001625      0.000000
     92 O2    c       0.000246      0.000101      0.000493      0.000000
     93 O2    c      -0.000083     -0.000373     -0.002386      0.000000
     94 O2    c       0.000111     -0.000013      0.002850      0.000000
     95 O2    c      -0.000145      0.000639      0.003448      0.000000
     96 O2    c       0.000084     -0.000117     -0.000889      0.000000
     97 O2    c      -0.000255      0.000264      0.000346      0.000000
     98 O2    c       0.000219     -0.000868      0.001237      0.000000
     99 O2    c       0.000237     -0.000197      0.000041      0.000000
    100 O2    c       0.000761     -0.000119      0.000874      0.000000
    101 O2    c      -0.000112      0.000710      0.000335      0.000000
    102 O2    c       0.000015      0.000190      0.000299      0.000000
    103 O2    c       0.000626     -0.000254     -0.000125      0.000000
    104 O2    c      -0.001144     -0.000347     -0.000224      0.000000
    105 O2    c       0.000066      0.000726     -0.000764      0.000000
    106 O2    c      -0.000731      0.000745      0.000228      0.000000
    107 O2    c       0.000249      0.000025     -0.000478      0.000000
    108 O2    c       0.000326     -0.000200      0.000350      0.000000
    109 O2    c      -0.000113      0.000347     -0.000323      0.000000
    110 O2    c      -0.000037      0.000295      0.000222      0.000000
    111 O2    c       0.000550     -0.000288      0.000277      0.000000
    112 O2    c       0.000634     -0.000157     -0.001479      0.000000
    113 O3    c      -0.001072     -0.001617      0.003405      0.000000
    114 O2    c      -0.000027      0.000157      0.000250      0.000000
    115 O2    c      -0.000538     -0.000158      0.000041      0.000000
    116 O2    c      -0.000116      0.000591     -0.000569      0.000000
    117 O2    c       0.000559     -0.000096     -0.000474      0.000000
    118 O2    c       0.000421     -0.000268     -0.000287      0.000000
    119 O3    c       0.000229     -0.000246     -0.001000      0.000000
    120 O2    c       0.000661      0.000250      0.000622      0.000000
    121 O3    c       0.000762      0.000202      0.001349      0.000000
    122 O2    c       0.001414      0.001040     -0.001508      0.000000
    123 O2    c      -0.000160      0.000248      0.000353      0.000000
    124 O2    c      -0.000092      0.000004      0.000428      0.000000
    125 O2    c       0.000637      0.000326      0.000580      0.000000
    126 O2    c       0.000506     -0.000227      0.000478      0.000000
    127 O3    c       0.001485     -0.000254     -0.001671      0.000000
    128 O2    c      -0.000008      0.000440      0.000624      0.000000
    129 O2    c       0.000513     -0.000260      0.000454      0.000000
    130 O2    c       0.000494      0.000031      0.000756      0.000000
    131 O2    c       0.000158      0.000059      0.000351      0.000000
    132 O2    c       0.000187      0.000215      0.000999      0.000000
    133 O2    c       0.000264      0.000699     -0.000624      0.000000
    134 O2    c       0.000464     -0.000513     -0.000032      0.000000
    135 O2    c      -0.000212      0.000185     -0.000476      0.000000
    136 O2    c       0.000088     -0.000071     -0.000108      0.000000
    137 O2    c       0.000437      0.000044     -0.000605      0.000000
    138 O2    c       0.000366      0.000777      0.001113      0.000000
    139 O3    c      -0.001530     -0.000917     -0.002046      0.000000
    140 O2    c       0.000301      0.000375      0.000538      0.000000
    141 O2    c       0.000021     -0.000030      0.000518      0.000000
    142 O2    c       0.000150      0.000272      0.000658      0.000000
    143 O2    c       0.000290     -0.000319      0.000576      0.000000
    144 O2    c       0.000624     -0.000064      0.000814      0.000000
    145 O2    c      -0.000082      0.000704     -0.000566      0.000000
    146 O2    c       0.000263     -0.000309     -0.000003      0.000000
    147 O2    c       0.000281     -0.000018     -0.000421      0.000000
    148 O2    c       0.000094     -0.000537     -0.000388      0.000000
    149 O2    c       0.000136     -0.000131     -0.000431      0.000000
    150 O2    c       0.000082     -0.000835      0.001134      0.000000
    151 O2    c      -0.000062     -0.000156      0.000575      0.000000
    152 O2    c      -0.000120      0.000571      0.000499      0.000000
    153 O2    c       0.000582     -0.000081      0.000328      0.000000
    154 O2    c       0.000385      0.000153      0.000579      0.000000
    155 O2    c       0.000239     -0.000366      0.000669      0.000000
    156 O2    c       0.000030     -0.000217     -0.002053      0.000000
    157 O2    c       0.000352      0.000179     -0.000012      0.000000
    158 O2    c       0.000833      0.001303      0.005707      0.000000
    159 O2    c       0.000020      0.000169     -0.001087      0.000000
    160 O2    c       0.000275     -0.000388     -0.000408      0.000000
    161 O2    c      -0.000021      0.000258     -0.000199      0.000000
    162 O2    c       0.000564     -0.000149     -0.000430      0.000000
    163 O2    c       0.000385     -0.000867     -0.000239      0.000000
    164 O2    c       0.000313      0.000111     -0.000843      0.000000
    165 O2    c       0.000080      0.000028     -0.000706      0.000000
    166 O2    c       0.000476      0.000037     -0.000530      0.000000
    167 O3    c      -0.000224      0.000005     -0.000683      0.000000
    168 O2    c       0.000669     -0.000147     -0.000009      0.000000
    169 O3    c       0.000893      0.000113      0.001800      0.000000
    170 O2    c       0.001547     -0.000577     -0.000718      0.000000
    171 O2    c       0.000425     -0.000271      0.000539      0.000000
    172 O2    c      -0.000197      0.000065      0.000488      0.000000
    173 O2    c       0.000608      0.000059      0.000668      0.000000
    174 O2    c       0.000276      0.000002      0.000389      0.000000
    175 O2    c       0.000468      0.000137     -0.000037      0.000000
    176 O2    c       0.000594     -0.000100      0.000088      0.000000
    177 O2    c      -0.000170     -0.000092     -0.001051      0.000000
    178 O3    c      -0.000174      0.000230     -0.000611      0.000000
    179 O2    c       0.001070      0.000237      0.001888      0.000000
    180 O3    c       0.000655     -0.000082      0.001706      0.000000
    181 F     c       0.000344      0.000286      0.000073      0.000000
    182 F     c       0.000319      0.000171      0.000021      0.000000
    183 F     c       0.000177     -0.000282      0.000251      0.000000
    184 F     c      -0.000158     -0.000192      0.000459      0.000000
    185 F     c      -0.000823      0.000416     -0.003135      0.000000
    186 F     c       0.000228      0.000284     -0.000172      0.000000
    187 O2    s       0.000167     -0.000568     -0.000172      0.000000
    188 O2    s       0.000127      0.002282      0.000143      0.000000
    189 O2    s       0.000737      0.000240     -0.001253      0.000000
    190 O2    s       0.000667     -0.000107      0.001061      0.000000
    191 O2    s       0.000469     -0.001436      0.000053      0.000000
    192 O2    s       0.000361     -0.000281      0.001267      0.000000
    193 O3    s       0.001142      0.000308     -0.000344      0.000000
    194 O2    s       0.000318     -0.000321      0.000083      0.000000
    195 O2    s       0.000611      0.000072     -0.000343      0.000000
    196 O2    s      -0.000229      0.000327      0.000096      0.000000
    197 O2    s       0.000327     -0.000147      0.005299      0.000000
    198 O2    s       0.000319      0.000276      0.000068      0.000000
    199 O3    s       0.001956     -0.001086      0.003119      0.000000
    200 O2    s       0.000219     -0.000069     -0.000455      0.000000
    201 O2    s      -0.000222      0.000626      0.000216      0.000000
    202 O2    s       0.000658      0.000028      0.000549      0.000000
    203 O2    s       0.000206     -0.000323      0.000183      0.000000
    204 O3    s       0.000161      0.000109      0.000354      0.000000
    205 O2    s       0.000936     -0.000535      0.000315      0.000000
    206 O2    s      -0.000369      0.000705     -0.000915      0.000000
    207 O2    s       0.000478      0.000041     -0.000790      0.000000
    208 O2    s       0.000221     -0.000393      0.000329      0.000000
    209 O2    s       0.000657     -0.000260     -0.000631      0.000000
    210 O2    s       0.000474     -0.000024      0.001748      0.000000
    211 O2    s       0.000784      0.000564      0.001295      0.000000
    212 O2    s       0.001996     -0.000492     -0.004508      0.000000
    213 O2    s      -0.000268     -0.000317     -0.000219      0.000000
    214 O2    s      -0.000207     -0.000201      0.000492      0.000000
    215 O2    s       0.000754      0.000217      0.000945      0.000000
    216 O2    s       0.000404      0.000172      0.001165      0.000000
    217 O2    s       0.000533      0.000792     -0.000904      0.000000
    218 O2    s       0.000647      0.000231      0.000389      0.000000
    219 O2    s       0.000022     -0.000885     -0.001684      0.000000
    220 O2    s       0.000429      0.000080      0.001900      0.000000
    221 O2    s       0.000260      0.000293      0.003027      0.000000
    222 O2    s       0.000458     -0.000238     -0.000482      0.000000
    223 O2    s      -0.000284      0.001092      0.000486      0.000000
    224 O2    s       0.000098     -0.000925      0.001917      0.000000
    225 O2    s       0.000145      0.000049     -0.000161      0.000000
    226 O2    s       0.000710      0.000103      0.001515      0.000000
    227 O2    s      -0.000141      0.000761      0.000349      0.000000
    228 O2    s       0.000144     -0.000361      0.001712      0.000000
    229 O2    s       0.000431      0.000019     -0.000109      0.000000
    230 O2    s      -0.001128     -0.000714     -0.000897      0.000000
    231 O2    s       0.000201      0.000451     -0.001606      0.000000
    232 O2    s      -0.000569      0.000502     -0.001052      0.000000
    233 O2    s       0.000465     -0.000074     -0.000246      0.000000
    234 O2    s       0.000719     -0.000145      0.000742      0.000000
    235 O2    s       0.000444      0.000185     -0.000928      0.000000
    236 O2    s       0.000530      0.000232      0.000308      0.000000
    237 O2    s       0.000457     -0.000043      0.000177      0.000000
    238 O2    s       0.000412      0.000069     -0.001550      0.000000
    239 O3    s      -0.001089      0.001382      0.000872      0.000000
    240 O2    s      -0.000074      0.000271      0.000324      0.000000
    241 O2    s      -0.000393     -0.000651     -0.000339      0.000000
    242 O2    s      -0.000037      0.000333     -0.000070      0.000000
    243 O2    s       0.000329     -0.000021     -0.000794      0.000000
    244 O2    s       0.000403     -0.000109     -0.000117      0.000000
    245 O3    s       0.000012      0.000132      0.000182      0.000000
    246 O2    s       0.000645      0.000335      0.001490      0.000000
    247 O3    s       0.000938     -0.000041      0.000971      0.000000
    248 O2    s       0.000693      0.000526     -0.003284      0.000000
    249 O2    s       0.000215     -0.000469      0.000638      0.000000
    250 O2    s      -0.000075     -0.000048      0.000294      0.000000
    251 O2    s       0.000572      0.000248      0.000536      0.000000
    252 O2    s       0.000267      0.000297      0.001451      0.000000
    253 O3    s       0.001956     -0.000042     -0.001414      0.000000
    254 O2    s       0.000066      0.000292      0.001164      0.000000
    255 O2    s       0.000221      0.000222      0.000110      0.000000
    256 O2    s       0.000536      0.000159      0.000911      0.000000
    257 O2    s       0.000117     -0.000006     -0.000034      0.000000
    258 O2    s       0.000522     -0.000321      0.001323      0.000000
    259 O2    s       0.000458      0.000749     -0.000106      0.000000
    260 O2    s       0.000317     -0.000567     -0.000208      0.000000
    261 O2    s       0.000203      0.000064     -0.000835      0.000000
    262 O2    s      -0.000293     -0.000161      0.000165      0.000000
    263 O2    s       0.000354     -0.000226     -0.000566      0.000000
    264 O2    s       0.000569     -0.000612      0.002331      0.000000
    265 O3    s      -0.000731     -0.000115     -0.002453      0.000000
    266 O2    s       0.000260      0.000556      0.000925      0.000000
    267 O2    s       0.000204     -0.000229      0.000136      0.000000
    268 O2    s       0.000734      0.000212      0.001094      0.000000
    269 O2    s       0.000379     -0.000262      0.000255      0.000000
    270 O2    s       0.000315      0.000198      0.000708      0.000000
    271 O2    s       0.000147      0.000405     -0.000827      0.000000
    272 O2    s       0.000309     -0.000126     -0.000344      0.000000
    273 O2    s       0.000202      0.000098     -0.000665      0.000000
    274 O2    s      -0.000048     -0.000375     -0.000658      0.000000
    275 O2    s       0.000418     -0.000214     -0.000194      0.000000
    276 O2    s       0.000221     -0.000046      0.004591      0.000000
    277 O2    s       0.000029     -0.000484      0.000482      0.000000
    278 O2    s       0.000449     -0.000151      0.000175      0.000000
    279 O2    s       0.000646      0.000128      0.000076      0.000000
    280 O2    s       0.000675      0.000460      0.000424      0.000000
    281 O2    s       0.000091      0.000075      0.000195      0.000000
    282 O2    s       0.000769      0.000121     -0.000889      0.000000
    283 O2    s       0.000653      0.000101      0.000265      0.000000
    284 O2    s       0.001135      0.001156      0.004999      0.000000
    285 O2    s       0.000463     -0.000586     -0.000765      0.000000
    286 O2    s       0.000575     -0.000690     -0.000204      0.000000
    287 O2    s       0.000403      0.000176     -0.000062      0.000000
    288 O2    s       0.000414      0.000668     -0.000096      0.000000
    289 O2    s       0.000473     -0.000470     -0.000009      0.000000
    290 O2    s      -0.000106      0.000994     -0.000673      0.000000
    291 O2    s       0.000220     -0.000084     -0.001004      0.000000
    292 O2    s       0.000682      0.000053     -0.000363      0.000000
    293 O3    s       0.000355     -0.000526     -0.000389      0.000000
    294 O2    s       0.000565     -0.000432      0.000233      0.000000
    295 O3    s       0.000787      0.000747      0.001492      0.000000
    296 O2    s       0.001674     -0.000669     -0.001040      0.000000
    297 O2    s       0.000367     -0.000092      0.000096      0.000000
    298 O2    s      -0.000177     -0.000278     -0.000173      0.000000
    299 O2    s       0.000592      0.000148      0.001115      0.000000
    300 O2    s       0.000140      0.000073      0.001055      0.000000
    301 O2    s       0.000011      0.000518      0.000177      0.000000
    302 O2    s       0.000509      0.000121     -0.000067      0.000000
    303 O2    s      -0.000139     -0.000741     -0.000969      0.000000
    304 O3    s       0.000839     -0.000346     -0.000376      0.000000
    305 O2    s       0.000958      0.000510      0.001691      0.000000
    306 O3    s       0.001285      0.000100      0.001376      0.000000
    307 F     s       0.000429      0.000433      0.000143      0.000000
    308 F     s       0.000341      0.000194     -0.000084      0.000000
    309 F     s       0.000312     -0.000353      0.000295      0.000000
    310 F     s      -0.000099     -0.000547      0.000693      0.000000
    311 F     s      -0.000809     -0.000130     -0.004484      0.000000
    312 F     s       0.000137      0.000428     -0.000418      0.000000
--------------------------------------------------------------------------------
  Maximum abs         0.001996      0.002282      0.006826      0.000000
--------------------------------------------------------------------------------


  Time to end of optimisation =      57.2653 seconds


  Peak dynamic memory used =      19.13 MB 


  Timing analysis for GULP :

--------------------------------------------------------------------------------
  Task / Subroutine                                          Time (Seconds)
--------------------------------------------------------------------------------
  Calculation of reciprocal space energy and derivatives          1.4360
  Calculation of real space energy and derivatives               50.1030
  Calculation of three-body energy and derivatives                4.8830
  Calculation of matrix inversion                                 0.7437
  Global summation overhead                                       0.0001
--------------------------------------------------------------------------------
  Total CPU time                                                 57.2653
--------------------------------------------------------------------------------


  Dump file written as out.res                                                 
  CIF file written as out.cif                                                 


  Job Finished at 21:57.01 30th October    2016                               

