********************************************************************************
*                       GENERAL UTILITY LATTICE PROGRAM                        *
*                                 Julian Gale                                  *
*                      Nanochemistry Research Institute                        *
*                           Department of Chemistry                            *
*                    Curtin University, Western Australia                      *
********************************************************************************
* Version = 4.2.0 * Last modified =  20th January 2014                         *
********************************************************************************
*  optimise     - perform optimisation run                                     *
*  conp         - constant pressure calculation                                *
*  qok          - running with non charge neutral cell is OK                   *
********************************************************************************

  Job Started  at 04:51.05 31st October    2016                               

  Number of CPUs =     1


  Total number of configurations input =   1

********************************************************************************
*  Input for Configuration =   1                                               *
********************************************************************************

  Formula = Ge3Si57O120F6                                               

  Number of irreducible atoms/shells =     312


  Total number atoms/shells =     312

  Dimensionality = 3               :  Bulk   


  Charge on solid   =  -6.000000 =>neutralising background added


  Cartesian lattice vectors (Angstroms) :

       12.003187    0.000000    0.000000
       -6.116258   10.311858    0.000000
       -0.130565   -0.194333   29.528406

  Cell parameters (Angstroms/Degrees):

  a =      12.0032    alpha =  90.1951
  b =      11.9893    beta  =  90.2533
  c =      29.5293    gamma = 120.6734

  Initial cell volume =        3654.883237 Angs**3

  Temperature of configuration =  0.000     K 

  Pressure of configuration =         0.000 GPa 

  Fractional coordinates of asymmetric unit :

--------------------------------------------------------------------------------
   No.  Atomic       x           y          z         Charge      Occupancy
        Label      (Frac)      (Frac)     (Frac)        (e)         (Frac)  
--------------------------------------------------------------------------------
      1 Ge    c    0.699600    0.375700    0.033890     4.00000    1.000000    
      2 Si    c    0.625327 *  0.323298 *  0.366663 *   4.00000    1.000000    
      3 Si    c    0.677887 *  0.298137 *  0.700775 *   4.00000    1.000000    
      4 Si    c    0.287015 *  0.618804 *  0.529376 *   4.00000    1.000000    
      5 Si    c    0.376840 *  0.684596 *  0.862820 *   4.00000    1.000000    
      6 Si    c    0.321148 *  0.703737 *  0.197247 *   4.00000    1.000000    
      7 Si    c    0.376841 *  0.700281 *  0.297351 *   4.00000    1.000000    
      8 Si    c    0.322888 *  0.625078 *  0.963783 *   4.00000    1.000000    
      9 Si    c    0.296676 *  0.676900 *  0.629205 *   4.00000    1.000000    
     10 Si    c    0.623665 *  0.300000 *  0.802646 *   4.00000    1.000000    
     11 Si    c    0.677801 *  0.377075 *  0.469236 *   4.00000    1.000000    
     12 Si    c    0.689254 *  0.318584 *  0.132658 *   4.00000    1.000000    
     13 Si    c    0.529088 *  0.418034 *  0.966864 *   4.00000    1.000000    
     14 Si    c    0.583467 *  0.108490 *  0.302672 *   4.00000    1.000000    
     15 Si    c    0.888079 *  0.467622 *  0.634680 *   4.00000    1.000000    
     16 Si    c    0.465493 *  0.589908 *  0.465332 *   4.00000    1.000000    
     17 Ge    c    0.431388 *  0.904378 *  0.796066 *   4.00000    1.000000    
     18 Si    c    0.110208 *  0.534350 *  0.129624 *   4.00000    1.000000    
     19 Si    c    0.417201 *  0.530273 *  0.361949 *   4.00000    1.000000    
     20 Si    c    0.106993 *  0.584307 *  0.026590 *   4.00000    1.000000    
     21 Si    c    0.466884 *  0.877608 *  0.697103 *   4.00000    1.000000    
     22 Si    c    0.580612 *  0.473028 *  0.865534 *   4.00000    1.000000    
     23 Si    c    0.881792 *  0.409401 *  0.533667 *   4.00000    1.000000    
     24 Si    c    0.532535 *  0.113720 *  0.201627 *   4.00000    1.000000    
     25 Si    c    0.301098 *  0.403888 *  0.850349 *   4.00000    1.000000    
     26 Si    c    0.602870 *  0.905695 *  0.184625 *   4.00000    1.000000    
     27 Si    c    0.085322 *  0.693996 *  0.516403 *   4.00000    1.000000    
     28 Si    c    0.703286 *  0.603442 *  0.347082 *   4.00000    1.000000    
     29 Si    c    0.394638 *  0.091755 *  0.685137 *   4.00000    1.000000    
     30 Si    c    0.890860 *  0.295136 *  0.011842 *   4.00000    1.000000    
     31 Si    c    0.395629 *  0.305450 *  0.481569 *   4.00000    1.000000    
     32 Si    c    0.896847 *  0.604786 *  0.143254 *   4.00000    1.000000    
     33 Si    c    0.706231 *  0.099823 *  0.819388 *   4.00000    1.000000    
     34 Si    c    0.599785 *  0.699789 *  0.979496 *   4.00000    1.000000    
     35 Si    c    0.097873 *  0.398252 *  0.647107 *   4.00000    1.000000    
     36 Si    c    0.299836 *  0.899302 *  0.314705 *   4.00000    1.000000    
     37 Si    c    0.251763 *  0.344446 *  0.950056 *   4.00000    1.000000    
     38 Si    c    0.660906 *  0.909164 *  0.285205 *   4.00000    1.000000    
     39 Si    c    0.087477 *  0.748129 *  0.617335 *   4.00000    1.000000    
     40 Ge    c    0.730249 *  0.643102 *  0.446805 *   4.00000    1.000000    
     41 Si    c    0.334054 *  0.085521 *  0.786895 *   4.00000    1.000000    
     42 Si    c    0.903613 *  0.250657 *  0.114347 *   4.00000    1.000000    
     43 Si    c    0.338044 *  0.249426 *  0.379594 *   4.00000    1.000000    
     44 Si    c    0.902346 *  0.661635 *  0.040991 *   4.00000    1.000000    
     45 Si    c    0.748809 *  0.084719 *  0.716515 *   4.00000    1.000000    
     46 Si    c    0.657728 *  0.752299 *  0.879184 *   4.00000    1.000000    
     47 Si    c    0.084403 *  0.335191 *  0.546840 *   4.00000    1.000000    
     48 Si    c    0.250369 *  0.911897 *  0.214271 *   4.00000    1.000000    
     49 Si    c    0.974884 *  0.123141 *  0.965692 *   4.00000    1.000000    
     50 Si    c    0.878929 *  0.847844 *  0.297100 *   4.00000    1.000000    
     51 Si    c    0.148938 *  0.028255 *  0.632871 *   4.00000    1.000000    
     52 Si    c    0.016666 *  0.872649 *  0.465164 *   4.00000    1.000000    
     53 Si    c    0.122164 *  0.155980 *  0.799254 *   4.00000    1.000000    
     54 Si    c    0.848692 *  0.973917 *  0.132220 *   4.00000    1.000000    
     55 Si    c    0.119442 *  0.965118 *  0.364928 *   4.00000    1.000000    
     56 Si    c    0.848968 *  0.882477 *  0.031085 *   4.00000    1.000000    
     57 Si    c    0.029595 *  0.151236 *  0.698107 *   4.00000    1.000000    
     58 Si    c    0.885224 *  0.031311 *  0.865554 *   4.00000    1.000000    
     59 Si    c    0.146899 *  0.118655 *  0.531493 *   4.00000    1.000000    
     60 Si    c    0.972607 *  0.854707 *  0.196301 *   4.00000    1.000000    
     61 O2    c    0.931159 *  0.008995 *  0.001423 *   0.87073    1.000000    
     62 O2    c    0.000655 *  0.923911 *  0.330620 *   0.87073    1.000000    
     63 O2    c    0.068314 *  0.070007 *  0.664807 *   0.87073    1.000000    
     64 O2    c    0.070656 *  0.998258 *  0.498124 *   0.87073    1.000000    
     65 O2    c    0.001578 *  0.069346 *  0.831215 *   0.87073    1.000000    
     66 O2    c    0.934100 *  0.938502 *  0.164679 *   0.87073    1.000000    
     67 O2    c    0.339274 *  0.574950 *  0.328850 *   0.87073    1.000000    
     68 O2    c    0.425991 *  0.765185 *  0.659013 *   0.87073    1.000000    
     69 O2    c    0.235033 *  0.661281 *  0.995944 *   0.87073    1.000000    
     70 O2    c    0.659265 *  0.424754 *  0.833677 *   0.87073    1.000000    
     71 O2    c    0.582453 *  0.242036 *  0.171592 *   0.87073    1.000000    
     72 O2    c    0.753067 *  0.327814 *  0.502160 *   0.87073    1.000000    
     73 O3    c    0.567248 *  0.336581 *  0.998820 *   1.33043    1.000000    
     74 O2    c    0.764336 *  0.419503 *  0.668036 *   0.87073    1.000000    
     75 O2    c    0.660263 *  0.233847 *  0.335864 *   0.87073    1.000000    
     76 O2    c    0.405254 *  0.659706 *  0.494734 *   0.87073    1.000000    
     77 O2    c    0.235003 *  0.583691 *  0.162644 *   0.87073    1.000000    
     78 O3    c    0.341788 *  0.766922 *  0.831251 *   1.33043    1.000000    
     79 O2    c    0.128270 *  0.217546 *  0.971673 *   0.87073    1.000000    
     80 O2    c    0.788103 *  0.910174 *  0.304571 *   0.87073    1.000000    
     81 O2    c    0.086185 *  0.873464 *  0.637770 *   0.87073    1.000000    
     82 O3    c    0.866881 *  0.788757 *  0.469019 *   1.33043    1.000000    
     83 O2    c    0.215298 *  0.098033 *  0.805401 *   0.87073    1.000000    
     84 O2    c    0.908647 *  0.128825 *  0.135710 *   0.87073    1.000000    
     85 O2    c    0.214306 *  0.120873 *  0.359205 *   0.87073    1.000000    
     86 O2    c    0.918446 *  0.798854 *  0.025040 *   0.87073    1.000000    
     87 O2    c    0.874648 *  0.089544 *  0.694421 *   0.87073    1.000000    
     88 O2    c    0.784760 *  0.878381 *  0.858613 *   0.87073    1.000000    
     89 O2    c    0.082697 *  0.208257 *  0.526806 *   0.87073    1.000000    
     90 O2    c    0.127377 *  0.915710 *  0.193176 *   0.87073    1.000000    
     91 O2    c    0.932272 *  0.867279 *  0.246639 *   0.87073    1.000000    
     92 O2    c    0.138733 *  0.068085 *  0.582113 *   0.87073    1.000000    
     93 O2    c    0.940007 *  0.060454 *  0.916136 *   0.87073    1.000000    
     94 O2    c    0.070517 *  0.138627 *  0.748190 *   0.87073    1.000000    
     95 O2    c    0.856520 *  0.928390 *  0.082558 *   0.87073    1.000000    
     96 O2    c    0.068500 *  0.930313 *  0.415272 *   0.87073    1.000000    
     97 O2    c    0.902703 *  0.203185 *  0.974275 *   0.87073    1.000000    
     98 O2    c    0.792913 *  0.693254 *  0.305362 *   0.87073    1.000000    
     99 O2    c    0.300674 *  0.096760 *  0.646390 *   0.87073    1.000000    
    100 O2    c    0.083562 *  0.787649 *  0.477711 *   0.87073    1.000000    
    101 O2    c    0.201076 *  0.308108 *  0.811267 *   0.87073    1.000000    
    102 O2    c    0.698057 *  0.903299 *  0.146439 *   0.87073    1.000000    
    103 O2    c    0.201901 *  0.896313 *  0.353091 *   0.87073    1.000000    
    104 O2    c    0.697488 *  0.799259 *  0.018150 *   0.87073    1.000000    
    105 O2    c    0.101100 *  0.302972 *  0.685359 *   0.87073    1.000000    
    106 O2    c    0.816763 *  0.115037 *  0.855176 *   0.87073    1.000000    
    107 O2    c    0.299168 *  0.207373 *  0.519432 *   0.87073    1.000000    
    108 O2    c    0.901522 *  0.703609 *  0.182064 *   0.87073    1.000000    
    109 O2    c    0.318805 *  0.642939 *  0.246902 *   0.87073    1.000000    
    110 O2    c    0.351038 *  0.676338 *  0.578869 *   0.87073    1.000000    
    111 O2    c    0.323344 *  0.682231 *  0.914170 *   0.87073    1.000000    
    112 O2    c    0.675922 *  0.349039 *  0.751421 *   0.87073    1.000000    
    113 O3    c    0.615903 *  0.303654 *  0.085975 *   1.33043    1.000000    
    114 O2    c    0.677483 *  0.325684 *  0.417596 *   0.87073    1.000000    
    115 O2    c    0.371534 *  0.332470 *  0.968315 *   0.87073    1.000000    
    116 O2    c    0.670346 *  0.039992 *  0.305390 *   0.87073    1.000000    
    117 O2    c    0.957466 *  0.624352 *  0.637316 *   0.87073    1.000000    
    118 O3    c    0.617733 *  0.680860 *  0.470499 *   1.33043    1.000000    
    119 O3    c    0.315600 *  0.954378 *  0.805588 *   1.33043    1.000000    
    120 O2    c    0.036610 *  0.377856 *  0.131225 *   0.87073    1.000000    
    121 O2    c    0.332154 *  0.372719 *  0.360781 *   0.87073    1.000000    
    122 O2    c    0.035693 *  0.667991 *  0.025023 *   0.87073    1.000000    
    123 O2    c    0.625661 *  0.952609 *  0.697672 *   0.87073    1.000000    
    124 O2    c    0.668610 *  0.629643 *  0.861573 *   0.87073    1.000000    
    125 O2    c    0.949331 *  0.321935 *  0.530328 *   0.87073    1.000000    
    126 O2    c    0.375989 *  0.044838 *  0.197862 *   0.87073    1.000000    
    127 O3    c    0.756273 *  0.285020 *  0.002869 *   1.33043    1.000000    
    128 O2    c    0.699468 *  0.465651 *  0.343657 *   0.87073    1.000000    
    129 O2    c    0.532287 *  0.225623 *  0.680284 *   0.87073    1.000000    
    130 O2    c    0.218873 *  0.694327 *  0.508548 *   0.87073    1.000000    
    131 O2    c    0.302287 *  0.536972 *  0.842261 *   0.87073    1.000000    
    132 O2    c    0.465616 *  0.772902 *  0.176047 *   0.87073    1.000000    
    133 O2    c    0.301061 *  0.765521 *  0.320863 *   0.87073    1.000000    
    134 O2    c    0.465964 *  0.700058 *  0.987244 *   0.87073    1.000000    
    135 O2    c    0.231083 *  0.535560 *  0.653518 *   0.87073    1.000000    
    136 O2    c    0.700685 *  0.232863 *  0.823063 *   0.87073    1.000000    
    137 O2    c    0.529864 *  0.306758 *  0.488034 *   0.87073    1.000000    
    138 O2    c    0.764635 *  0.468744 *  0.151316 *   0.87073    1.000000    
    139 O3    c    0.774577 *  0.547183 *  0.020010 *   1.33043    1.000000    
    140 O2    c    0.469901 *  0.258227 *  0.363489 *   0.87073    1.000000    
    141 O2    c    0.740885 *  0.207703 *  0.699039 *   0.87073    1.000000    
    142 O2    c    0.207174 *  0.461378 *  0.525310 *   0.87073    1.000000    
    143 O2    c    0.533969 *  0.752687 *  0.858882 *   0.87073    1.000000    
    144 O2    c    0.247303 *  0.785191 *  0.193851 *   0.87073    1.000000    
    145 O2    c    0.533656 *  0.780689 *  0.303409 *   0.87073    1.000000    
    146 O2    c    0.247448 *  0.468617 *  0.969319 *   0.87073    1.000000    
    147 O2    c    0.217088 *  0.752934 *  0.635167 *   0.87073    1.000000    
    148 O2    c    0.468543 *  0.209709 *  0.805059 *   0.87073    1.000000    
    149 O3    c    0.758641 *  0.530718 *  0.475590 *   1.33043    1.000000    
    150 O2    c    0.780741 *  0.253814 *  0.134206 *   0.87073    1.000000    
    151 O2    c    0.228053 *  0.325572 *  0.895847 *   0.87073    1.000000    
    152 O2    c    0.677113 *  0.909498 *  0.230973 *   0.87073    1.000000    
    153 O2    c    0.083353 *  0.764159 *  0.563207 *   0.87073    1.000000    
    154 O3    c    0.782239 *  0.688176 *  0.389914 *   1.33043    1.000000    
    155 O2    c    0.323932 *  0.087128 *  0.731784 *   0.87073    1.000000    
    156 O2    c    0.898634 *  0.233145 *  0.060312 *   0.87073    1.000000    
    157 O2    c    0.326574 *  0.241059 *  0.433736 *   0.87073    1.000000    
    158 O2    c    0.899660 *  0.672528 *  0.096280 *   0.87073    1.000000    
    159 O2    c    0.765602 *  0.088787 *  0.770624 *   0.87073    1.000000    
    160 O2    c    0.675348 *  0.771715 *  0.933564 *   0.87073    1.000000    
    161 O2    c    0.092011 *  0.321813 *  0.600984 *   0.87073    1.000000    
    162 O2    c    0.230112 *  0.905873 *  0.268483 *   0.87073    1.000000    
    163 O2    c    0.585081 *  0.561149 *  0.989480 *   0.87073    1.000000    
    164 O2    c    0.440562 *  0.025294 *  0.324846 *   0.87073    1.000000    
    165 O2    c    0.971057 *  0.408973 *  0.656854 *   0.87073    1.000000    
    166 O2    c    0.414186 *  0.447101 *  0.487798 *   0.87073    1.000000    
    167 O3    c    0.574367 *  0.974517 *  0.831426 *   1.33043    1.000000    
    168 O2    c    0.019856 *  0.586016 *  0.149685 *   0.87073    1.000000    
    169 O2    c    0.559043 *  0.581769 *  0.340604 *   0.87073    1.000000    
    170 O2    c    0.015123 *  0.440740 *  0.006067 *   0.87073    1.000000    
    171 O2    c    0.414703 *  0.970762 *  0.677357 *   0.87073    1.000000    
    172 O2    c    0.438935 *  0.413225 *  0.841731 *   0.87073    1.000000    
    173 O2    c    0.963035 *  0.549536 *  0.509640 *   0.87073    1.000000    
    174 O2    c    0.590140 *  0.031988 *  0.177423 *   0.87073    1.000000    
    175 O2    c    0.585922 *  0.164744 *  0.252632 *   0.87073    1.000000    
    176 O2    c    0.830690 *  0.411557 *  0.584468 *   0.87073    1.000000    
    177 O2    c    0.582711 *  0.420316 *  0.915827 *   0.87073    1.000000    
    178 O3    c    0.409297 *  0.813213 *  0.744534 *   1.33043    1.000000    
    179 O2    c    0.154305 *  0.582612 *  0.078406 *   0.87073    1.000000    
    180 O2    c    0.417977 *  0.582441 *  0.412631 *   0.87073    1.000000    
    181 F     c    0.451268 *  0.902119 *  0.250531 *   0.56000    1.000000    
    182 F     c    0.093787 *  0.544866 *  0.582925 *   0.56000    1.000000    
    183 F     c    0.450688 *  0.548526 *  0.915215 *   0.56000    1.000000    
    184 F     c    0.525121 *  0.052798 *  0.759618 *   0.56000    1.000000    
    185 F     c    0.853824 *  0.435814 *  0.070609 *   0.56000    1.000000    
    186 F     c    0.582865 *  0.490735 *  0.420256 *   0.56000    1.000000    
    187 O2    s    0.926652 *  0.007441 *  0.000769 *  -2.87073    1.000000    
    188 O2    s    0.000334 *  0.920045 *  0.330696 *  -2.87073    1.000000    
    189 O2    s    0.072979 *  0.074220 *  0.664907 *  -2.87073    1.000000    
    190 O2    s    0.073835 *  0.999004 *  0.498523 *  -2.87073    1.000000    
    191 O2    s    0.002067 *  0.074862 *  0.831468 *  -2.87073    1.000000    
    192 O2    s    0.929098 *  0.933128 *  0.164642 *  -2.87073    1.000000    
    193 O2    s    0.351154 *  0.582980 *  0.329074 *  -2.87073    1.000000    
    194 O2    s    0.416629 *  0.767470 *  0.659786 *  -2.87073    1.000000    
    195 O2    s    0.230111 *  0.649547 *  0.996017 *  -2.87073    1.000000    
    196 O2    s    0.647688 *  0.416160 *  0.833490 *  -2.87073    1.000000    
    197 O2    s    0.588096 *  0.236105 *  0.170806 *  -2.87073    1.000000    
    198 O2    s    0.758354 *  0.340902 *  0.501996 *  -2.87073    1.000000    
    199 O3    s    0.573466 *  0.347949 *  0.998237 *  -3.33043    1.000000    
    200 O2    s    0.767689 *  0.411515 *  0.668141 *  -2.87073    1.000000    
    201 O2    s    0.648717 *  0.230439 *  0.335721 *  -2.87073    1.000000    
    202 O2    s    0.399144 *  0.647870 *  0.495246 *  -2.87073    1.000000    
    203 O2    s    0.230751 *  0.590753 *  0.162734 *  -2.87073    1.000000    
    204 O3    s    0.351814 *  0.767314 *  0.832289 *  -3.33043    1.000000    
    205 O2    s    0.124134 *  0.220287 *  0.968806 *  -2.87073    1.000000    
    206 O2    s    0.784353 *  0.903575 *  0.301804 *  -2.87073    1.000000    
    207 O2    s    0.092964 *  0.876983 *  0.635180 *  -2.87073    1.000000    
    208 O3    s    0.874930 *  0.788689 *  0.467138 *  -3.33043    1.000000    
    209 O2    s    0.217918 *  0.103204 *  0.802695 *  -2.87073    1.000000    
    210 O2    s    0.901777 *  0.125082 *  0.133152 *  -2.87073    1.000000    
    211 O2    s    0.217954 *  0.118808 *  0.361954 *  -2.87073    1.000000    
    212 O2    s    0.909315 *  0.793938 *  0.027294 *  -2.87073    1.000000    
    213 O2    s    0.877991 *  0.095581 *  0.697087 *  -2.87073    1.000000    
    214 O2    s    0.782501 *  0.881857 *  0.861431 *  -2.87073    1.000000    
    215 O2    s    0.089631 *  0.211963 *  0.529359 *  -2.87073    1.000000    
    216 O2    s    0.123734 *  0.908849 *  0.195674 *  -2.87073    1.000000    
    217 O2    s    0.930797 *  0.863672 *  0.246676 *  -2.87073    1.000000    
    218 O2    s    0.140787 *  0.069263 *  0.582165 *  -2.87073    1.000000    
    219 O2    s    0.937726 *  0.064214 *  0.915971 *  -2.87073    1.000000    
    220 O2    s    0.071536 *  0.142019 *  0.748091 *  -2.87073    1.000000    
    221 O2    s    0.854768 *  0.928682 *  0.082693 *  -2.87073    1.000000    
    222 O2    s    0.068997 *  0.928320 *  0.414653 *  -2.87073    1.000000    
    223 O2    s    0.909277 *  0.204102 *  0.977247 *  -2.87073    1.000000    
    224 O2    s    0.793001 *  0.700461 *  0.308594 *  -2.87073    1.000000    
    225 O2    s    0.294360 *  0.089075 *  0.648929 *  -2.87073    1.000000    
    226 O2    s    0.076991 *  0.786212 *  0.480546 *  -2.87073    1.000000    
    227 O2    s    0.202461 *  0.301110 *  0.813847 *  -2.87073    1.000000    
    228 O2    s    0.704046 *  0.911012 *  0.148915 *  -2.87073    1.000000    
    229 O2    s    0.203296 *  0.903802 *  0.350377 *  -2.87073    1.000000    
    230 O2    s    0.703946 *  0.798216 *  0.015639 *  -2.87073    1.000000    
    231 O2    s    0.093181 *  0.296640 *  0.682785 *  -2.87073    1.000000    
    232 O2    s    0.812793 *  0.104876 *  0.852647 *  -2.87073    1.000000    
    233 O2    s    0.293552 *  0.208574 *  0.516678 *  -2.87073    1.000000    
    234 O2    s    0.908612 *  0.709621 *  0.179614 *  -2.87073    1.000000    
    235 O2    s    0.324865 *  0.654857 *  0.246958 *  -2.87073    1.000000    
    236 O2    s    0.338720 *  0.670347 *  0.578929 *  -2.87073    1.000000    
    237 O2    s    0.328514 *  0.676423 *  0.914423 *  -2.87073    1.000000    
    238 O2    s    0.670903 *  0.338787 *  0.751230 *  -2.87073    1.000000    
    239 O3    s    0.628904 *  0.309903 *  0.087302 *  -3.33043    1.000000    
    240 O2    s    0.672090 *  0.330557 *  0.417335 *  -2.87073    1.000000    
    241 O2    s    0.374486 *  0.342582 *  0.966131 *  -2.87073    1.000000    
    242 O2    s    0.660388 *  0.033495 *  0.303013 *  -2.87073    1.000000    
    243 O2    s    0.963737 *  0.620865 *  0.634967 *  -2.87073    1.000000    
    244 O3    s    0.609942 *  0.668671 *  0.468236 *  -3.33043    1.000000    
    245 O3    s    0.325405 *  0.965165 *  0.802895 *  -3.33043    1.000000    
    246 O2    s    0.030513 *  0.381101 *  0.129293 *  -2.87073    1.000000    
    247 O2    s    0.341459 *  0.375766 *  0.362884 *  -2.87073    1.000000    
    248 O2    s    0.029837 *  0.658518 *  0.026784 *  -2.87073    1.000000    
    249 O2    s    0.623293 *  0.959408 *  0.699665 *  -2.87073    1.000000    
    250 O2    s    0.658357 *  0.626051 *  0.863810 *  -2.87073    1.000000    
    251 O2    s    0.956530 *  0.332379 *  0.532427 *  -2.87073    1.000000    
    252 O2    s    0.378734 *  0.037714 *  0.200027 *  -2.87073    1.000000    
    253 O3    s    0.766745 *  0.292077 *  0.005928 *  -3.33043    1.000000    
    254 O2    s    0.692173 *  0.464794 *  0.346421 *  -2.87073    1.000000    
    255 O2    s    0.533252 *  0.219313 *  0.682960 *  -2.87073    1.000000    
    256 O2    s    0.211890 *  0.686326 *  0.511593 *  -2.87073    1.000000    
    257 O2    s    0.309592 *  0.537110 *  0.845228 *  -2.87073    1.000000    
    258 O2    s    0.464912 *  0.779578 *  0.179179 *  -2.87073    1.000000    
    259 O2    s    0.308682 *  0.772804 *  0.317767 *  -2.87073    1.000000    
    260 O2    s    0.465119 *  0.692385 *  0.984020 *  -2.87073    1.000000    
    261 O2    s    0.223484 *  0.535238 *  0.650339 *  -2.87073    1.000000    
    262 O2    s    0.693220 *  0.226529 *  0.820529 *  -2.87073    1.000000    
    263 O2    s    0.530539 *  0.313789 *  0.485406 *  -2.87073    1.000000    
    264 O2    s    0.771389 *  0.468617 *  0.148578 *  -2.87073    1.000000    
    265 O3    s    0.784030 *  0.548918 *  0.023141 *  -3.33043    1.000000    
    266 O2    s    0.471962 *  0.264250 *  0.365565 *  -2.87073    1.000000    
    267 O2    s    0.734826 *  0.204236 *  0.701103 *  -2.87073    1.000000    
    268 O2    s    0.202071 *  0.463987 *  0.528018 *  -2.87073    1.000000    
    269 O2    s    0.531955 *  0.745593 *  0.861520 *  -2.87073    1.000000    
    270 O2    s    0.255405 *  0.790298 *  0.196377 *  -2.87073    1.000000    
    271 O2    s    0.531153 *  0.786278 *  0.300863 *  -2.87073    1.000000    
    272 O2    s    0.255812 *  0.471732 *  0.966721 *  -2.87073    1.000000    
    273 O2    s    0.211070 *  0.744573 *  0.632666 *  -2.87073    1.000000    
    274 O2    s    0.471573 *  0.206571 *  0.802927 *  -2.87073    1.000000    
    275 O3    s    0.748150 *  0.523328 *  0.472844 *  -3.33043    1.000000    
    276 O2    s    0.785102 *  0.260005 *  0.131854 *  -2.87073    1.000000    
    277 O2    s    0.238029 *  0.335596 *  0.896823 *  -2.87073    1.000000    
    278 O2    s    0.667537 *  0.909057 *  0.231874 *  -2.87073    1.000000    
    279 O2    s    0.083936 *  0.755124 *  0.564106 *  -2.87073    1.000000    
    280 O3    s    0.770554 *  0.676361 *  0.389504 *  -3.33043    1.000000    
    281 O2    s    0.332588 *  0.087433 *  0.732243 *  -2.87073    1.000000    
    282 O2    s    0.898346 *  0.241087 *  0.061464 *  -2.87073    1.000000    
    283 O2    s    0.335114 *  0.248790 *  0.432881 *  -2.87073    1.000000    
    284 O2    s    0.899514 *  0.663877 *  0.096067 *  -2.87073    1.000000    
    285 O2    s    0.758003 *  0.089364 *  0.769446 *  -2.87073    1.000000    
    286 O2    s    0.665653 *  0.762217 *  0.932653 *  -2.87073    1.000000    
    287 O2    s    0.091814 *  0.331220 *  0.600046 *  -2.87073    1.000000    
    288 O2    s    0.239498 *  0.905805 *  0.267566 *  -2.87073    1.000000    
    289 O2    s    0.580708 *  0.561664 *  0.986071 *  -2.87073    1.000000    
    290 O2    s    0.440480 *  0.020428 *  0.321458 *  -2.87073    1.000000    
    291 O2    s    0.975854 *  0.414102 *  0.653507 *  -2.87073    1.000000    
    292 O2    s    0.417405 *  0.445721 *  0.484892 *  -2.87073    1.000000    
    293 O3    s    0.579136 *  0.983667 *  0.827760 *  -3.33043    1.000000    
    294 O2    s    0.016306 *  0.582393 *  0.146848 *  -2.87073    1.000000    
    295 O2    s    0.558988 *  0.578413 *  0.343553 *  -2.87073    1.000000    
    296 O2    s    0.012073 *  0.441295 *  0.008885 *  -2.87073    1.000000    
    297 O2    s    0.417735 *  0.975156 *  0.680186 *  -2.87073    1.000000    
    298 O2    s    0.439174 *  0.418541 *  0.845087 *  -2.87073    1.000000    
    299 O2    s    0.967851 *  0.550285 *  0.512916 *  -2.87073    1.000000    
    300 O2    s    0.585392 *  0.026684 *  0.180702 *  -2.87073    1.000000    
    301 O2    s    0.580075 *  0.153441 *  0.252613 *  -2.87073    1.000000    
    302 O2    s    0.841901 *  0.417160 *  0.584487 *  -2.87073    1.000000    
    303 O2    s    0.577156 *  0.425657 *  0.915658 *  -2.87073    1.000000    
    304 O3    s    0.416813 *  0.825990 *  0.742940 *  -3.33043    1.000000    
    305 O2    s    0.144838 *  0.577617 *  0.078703 *  -2.87073    1.000000    
    306 O2    s    0.422619 *  0.577652 *  0.412455 *  -2.87073    1.000000    
    307 F     s    0.450987 *  0.901578 *  0.250626 *  -1.56000    1.000000    
    308 F     s    0.094379 *  0.544988 *  0.583038 *  -1.56000    1.000000    
    309 F     s    0.450472 *  0.548366 *  0.915272 *  -1.56000    1.000000    
    310 F     s    0.519093 *  0.042944 *  0.761984 *  -1.56000    1.000000    
    311 F     s    0.844524 *  0.432148 *  0.068633 *  -1.56000    1.000000    
    312 F     s    0.591425 *  0.499328 *  0.421676 *  -1.56000    1.000000    
--------------------------------------------------------------------------------



********************************************************************************
*  General input information                                                   *
********************************************************************************

  Species output for all configurations : 

--------------------------------------------------------------------------------
  Species    Type    Atomic    Atomic    Charge       Radii (Angs)     Library
                     Number     Mass       (e)     Cova   Ionic  VDW   Symbol
--------------------------------------------------------------------------------
    Si       Core       14      28.09   4.000000   1.200  0.000  2.100          
    O1       Core        8      16.00   1.733957   0.730  0.000  1.360          
    O1       Shell       8       0.00  -3.733957   0.730  0.000  1.360          
    O2       Core        8      16.00   0.870733   0.730  0.000  1.360          
    O2       Shell       8       0.00  -2.870733   0.730  0.000  1.360          
    O3       Core        8      16.00   1.330431   0.730  0.000  1.360          
    O3       Shell       8       0.00  -3.330431   0.730  0.000  1.360          
    F        Core        9      19.00   0.560000   0.710  0.000  1.300          
    F        Shell       9       0.00  -1.560000   0.710  0.000  1.300          
    Ge       Core       32      72.61   4.000000   1.170  0.000  1.750          
--------------------------------------------------------------------------------


  Lattice summation method               =    Ewald          (3-D)
                                         =    Parry          (2-D)
                                         =    Saunders et al (1-D)
  Accuracy factor for lattice sums       =   12.000


  Time limit = Infinity

  Maximum range for interatomic potentials =        16.000000 Angstroms

  Taper potentials to zero over   1.0000 Angstroms using polynomial

  General interatomic potentials :

--------------------------------------------------------------------------------
Atom  Types   Potential         A         B         C         D     Cutoffs(Ang)
  1     2                                                            Min    Max 
--------------------------------------------------------------------------------
Si   c O1   s Buckingham    0.132E+04 0.318      10.1      0.00     0.000 16.000
Si   c O2   s Buckingham    0.132E+04 0.318      10.1      0.00     0.000 16.000
Si   c O3   s Buckingham    0.132E+04 0.318      10.1      0.00     0.000 16.000
Ge   c O1   s Buckingham    0.150E+04 0.326      16.8      0.00     0.000 16.000
Ge   c O2   s Buckingham    0.150E+04 0.326      16.8      0.00     0.000 16.000
Ge   c O3   s Buckingham    0.150E+04 0.326      16.8      0.00     0.000 16.000
O1   s O1   s Buckingham    0.228E+05 0.149      10.9      0.00     0.000 16.000
O1   s O2   s Buckingham    0.228E+05 0.149      10.9      0.00     0.000 16.000
O1   s O3   s Buckingham    0.228E+05 0.149      10.9      0.00     0.000 16.000
O2   s O2   s Buckingham    0.228E+05 0.149      10.9      0.00     0.000 16.000
O2   s O3   s Buckingham    0.228E+05 0.149      10.9      0.00     0.000 16.000
O3   s O3   s Buckingham    0.228E+05 0.149      10.9      0.00     0.000 16.000
Si   c F    s Buckingham     977.     0.282      0.00      0.00     0.000 16.000
Ge   c F    s Buckingham     681.     0.320      0.00      0.00     0.000 16.000
F    s F    s Buckingham     540.     0.262      0.00      0.00     0.000 16.000
O1   s F    s Buckingham    0.168E+04 0.268      0.00      0.00     0.000 16.000
O2   s F    s Buckingham    0.168E+04 0.268      0.00      0.00     0.000 16.000
O3   s F    s Buckingham    0.168E+04 0.268      0.00      0.00     0.000 16.000
O2   c O2   s Spring (c-s)   76.0      0.00      0.00      0.00     0.000  0.800
O3   c O3   s Spring (c-s)   128.      0.00      0.00      0.00     0.000  0.800
O1   c O1   s Spring (c-s)   180.      0.00      0.00      0.00     0.000  0.800
F    c F    s Spring (c-s)   33.5      0.00      0.00      0.00     0.000  0.800
--------------------------------------------------------------------------------

  General Three-body potentials :

  Harmonic form:

--------------------------------------------------------------------------------
Atom    Atom    Atom           Force Constants            Theta     Cutoffs  
  1       2       3     (eVrad**-2/eVrad**-3/eVrad**-4)   (deg)  1-2  1-3  2-3
--------------------------------------------------------------------------------
Si    c O1    s O1    s  1.261        0.0000    0.0000   109.470 0.00 0.00 0.00
                                                                 1.90 1.90 3.50
Si    c O1    s O2    s  1.261        0.0000    0.0000   109.470 0.00 0.00 0.00
                                                                 1.90 1.90 3.50
Si    c O2    s O2    s  1.261        0.0000    0.0000   109.470 0.00 0.00 0.00
                                                                 1.90 1.90 3.50
--------------------------------------------------------------------------------

********************************************************************************
*  Output for configuration   1                                                *
********************************************************************************


  Components of energy : 

--------------------------------------------------------------------------------
  Interatomic potentials     =        2065.99981158 eV
  Three-body potentials      =           0.48127038 eV
  Monopole - monopole (real) =       -6615.35470219 eV
  Monopole - monopole (recip)=       -3171.89864653 eV
  Monopole - monopole (total)=       -9787.25334872 eV
  Neutralising energy        =          -6.46116417 eV
--------------------------------------------------------------------------------
  Total lattice energy       =       -7727.23343093 eV
--------------------------------------------------------------------------------
  Total lattice energy       =         -745559.9045 kJ/(mole unit cells)
--------------------------------------------------------------------------------


  Number of variables =      939

  Maximum number of calculations  =          5000
  Maximum Hessian update interval =            10
  Maximum step size               =   0.100000000
  Maximum parameter tolerance     =   0.000010000
  Maximum function  tolerance     =   0.000010000
  Maximum gradient  tolerance     =   0.001000000
  Maximum gradient  component     =   0.010000000

  Symmetry not applied to optimisation

  Cell parameters to be optimised using strains

  Newton-Raphson optimiser to be used

  BFGS hessian update to be used

  Dumpfile to be written after every cycle

  Start of bulk optimisation :

  Cycle:      0 Energy:     -7727.233431  Gnorm:      0.011400  CPU:    2.031
  ** Hessian calculated **
  Cycle:      1 Energy:     -7727.233727  Gnorm:      0.003282  CPU:    5.269
  Cycle:      2 Energy:     -7727.233809  Gnorm:      0.002003  CPU:    8.129
  Cycle:      3 Energy:     -7727.233885  Gnorm:      0.001690  CPU:   10.989
  Cycle:      4 Energy:     -7727.234195  Gnorm:      0.002900  CPU:   16.613
  Cycle:      5 Energy:     -7727.234584  Gnorm:      0.004708  CPU:   20.854
  Cycle:      6 Energy:     -7727.235219  Gnorm:      0.007325  CPU:   25.787
  Cycle:      7 Energy:     -7727.236006  Gnorm:      0.009965  CPU:   30.028
  Cycle:      8 Energy:     -7727.237275  Gnorm:      0.013595  CPU:   34.960
  Cycle:      9 Energy:     -7727.238803  Gnorm:      0.017354  CPU:   39.201
  Cycle:     10 Energy:     -7727.240751  Gnorm:      0.021249  CPU:   43.442
  ** Hessian calculated **
  Cycle:     11 Energy:     -7727.241847  Gnorm:      0.006070  CPU:   48.703
  Cycle:     12 Energy:     -7727.242093  Gnorm:      0.003248  CPU:   52.254
  Cycle:     13 Energy:     -7727.242366  Gnorm:      0.003683  CPU:   56.493
  Cycle:     14 Energy:     -7727.242719  Gnorm:      0.004380  CPU:   60.733
  Cycle:     15 Energy:     -7727.243143  Gnorm:      0.005024  CPU:   64.973
  Cycle:     16 Energy:     -7727.243518  Gnorm:      0.004805  CPU:   68.522
  Cycle:     17 Energy:     -7727.243955  Gnorm:      0.004277  CPU:   72.762
  Cycle:     18 Energy:     -7727.244482  Gnorm:      0.003823  CPU:   77.002
  Cycle:     19 Energy:     -7727.245185  Gnorm:      0.004627  CPU:   81.242
  Cycle:     20 Energy:     -7727.246196  Gnorm:      0.006131  CPU:   85.482
  ** Hessian calculated **
  Cycle:     21 Energy:     -7727.247428  Gnorm:      0.006108  CPU:   91.432
  Cycle:     22 Energy:     -7727.249513  Gnorm:      0.006069  CPU:   96.362
  Cycle:     23 Energy:     -7727.252735  Gnorm:      0.006008  CPU:  101.293
  Cycle:     24 Energy:     -7727.257563  Gnorm:      0.005915  CPU:  106.223
  Cycle:     25 Energy:     -7727.263508  Gnorm:      0.005798  CPU:  110.464
  Cycle:     26 Energy:     -7727.273349  Gnorm:      0.005598  CPU:  115.394
  Cycle:     27 Energy:     -7727.287978  Gnorm:      0.005286  CPU:  120.325
  Cycle:     28 Energy:     -7727.305216  Gnorm:      0.004890  CPU:  124.564
  Cycle:     29 Energy:     -7727.331430  Gnorm:      0.004215  CPU:  129.494
  Cycle:     30 Energy:     -7727.359297  Gnorm:      0.003357  CPU:  133.734
  ** Hessian calculated **
  Cycle:     31 Energy:     -7727.388720  Gnorm:      0.002061  CPU:  139.683
  Cycle:     32 Energy:     -7727.399365  Gnorm:      0.001315  CPU:  143.921
  Cycle:     33 Energy:     -7727.401958  Gnorm:      0.000760  CPU:  148.160
  Cycle:     34 Energy:     -7727.402603  Gnorm:      0.000409  CPU:  152.398
  Cycle:     35 Energy:     -7727.402764  Gnorm:      0.000212  CPU:  156.636
  Cycle:     36 Energy:     -7727.402792  Gnorm:      0.000150  CPU:  159.494
  Cycle:     37 Energy:     -7727.402805  Gnorm:      0.000105  CPU:  162.352
  Cycle:     38 Energy:     -7727.402812  Gnorm:      0.000074  CPU:  165.210
  Cycle:     39 Energy:     -7727.402815  Gnorm:      0.000052  CPU:  168.068
  Cycle:     40 Energy:     -7727.402817  Gnorm:      0.000036  CPU:  170.926
  ** Hessian calculated **


  **** Optimisation achieved ****


  Final energy =   -7727.40281694 eV
  Final Gnorm  =       0.00002199

  Components of energy : 

--------------------------------------------------------------------------------
  Interatomic potentials     =        2066.64035236 eV
  Three-body potentials      =           0.48133914 eV
  Monopole - monopole (real) =       -6617.63682654 eV
  Monopole - monopole (recip)=       -3170.42950801 eV
  Monopole - monopole (total)=       -9788.06633455 eV
  Neutralising energy        =          -6.45817389 eV
--------------------------------------------------------------------------------
  Total lattice energy       =       -7727.40281694 eV
--------------------------------------------------------------------------------
  Total lattice energy       =         -745576.2477 kJ/(mole unit cells)
--------------------------------------------------------------------------------

  Final fractional coordinates of atoms :

--------------------------------------------------------------------------------
   No.  Atomic        x           y          z          Radius
        Label       (Frac)      (Frac)     (Frac)       (Angs) 
--------------------------------------------------------------------------------
     1  Ge    c     0.699600    0.375700    0.033890    0.000000
     2  Si    c     0.597250    0.305141    0.365905    0.000000
     3  Si    c     0.648896    0.272994    0.700112    0.000000
     4  Si    c     0.249001    0.590390    0.527505    0.000000
     5  Si    c     0.360118    0.668379    0.862085    0.000000
     6  Si    c     0.300503    0.692195    0.196202    0.000000
     7  Si    c     0.351567    0.683021    0.296245    0.000000
     8  Si    c     0.309422    0.613194    0.963329    0.000000
     9  Si    c     0.265126    0.652848    0.627626    0.000000
    10  Si    c     0.599267    0.279066    0.802210    0.000000
    11  Si    c     0.645796    0.357133    0.468877    0.000000
    12  Si    c     0.669904    0.307080    0.132059    0.000000
    13  Si    c     0.519986    0.408893    0.967269    0.000000
    14  Si    c     0.557726    0.091056    0.302115    0.000000
    15  Si    c     0.856737    0.442183    0.633863    0.000000
    16  Si    c     0.432172    0.568113    0.463744    0.000000
    17  Ge    c     0.407489    0.884044    0.795058    0.000000
    18  Si    c     0.090945    0.522955    0.128980    0.000000
    19  Si    c     0.388083    0.509510    0.360054    0.000000
    20  Si    c     0.094638    0.576681    0.026112    0.000000
    21  Si    c     0.438752    0.853159    0.695872    0.000000
    22  Si    c     0.564786    0.458593    0.865030    0.000000
    23  Si    c     0.845505    0.380482    0.533245    0.000000
    24  Si    c     0.510878    0.100856    0.200842    0.000000
    25  Si    c     0.285150    0.388260    0.849589    0.000000
    26  Si    c     0.581714    0.893304    0.183724    0.000000
    27  Si    c     0.046186    0.664046    0.514788    0.000000
    28  Si    c     0.674726    0.584460    0.345650    0.000000
    29  Si    c     0.365920    0.066793    0.684446    0.000000
    30  Si    c     0.880338    0.286452    0.010337    0.000000
    31  Si    c     0.362994    0.284493    0.480254    0.000000
    32  Si    c     0.878206    0.593894    0.142612    0.000000
    33  Si    c     0.681837    0.079088    0.819083    0.000000
    34  Si    c     0.586727    0.689991    0.978509    0.000000
    35  Si    c     0.066519    0.373875    0.645675    0.000000
    36  Si    c     0.274259    0.881664    0.313825    0.000000
    37  Si    c     0.241686    0.333880    0.949828    0.000000
    38  Si    c     0.635480    0.892285    0.284571    0.000000
    39  Si    c     0.053951    0.722231    0.615742    0.000000
    40  Ge    c     0.697028    0.622121    0.445655    0.000000
    41  Si    c     0.309572    0.064197    0.786623    0.000000
    42  Si    c     0.884887    0.239618    0.113387    0.000000
    43  Si    c     0.309116    0.229418    0.378025    0.000000
    44  Si    c     0.894288    0.659746    0.040354    0.000000
    45  Si    c     0.720875    0.060394    0.715886    0.000000
    46  Si    c     0.641017    0.737426    0.877924    0.000000
    47  Si    c     0.047946    0.306859    0.545544    0.000000
    48  Si    c     0.228635    0.898914    0.213269    0.000000
    49  Si    c     0.963782    0.114217    0.964376    0.000000
    50  Si    c     0.852002    0.829207    0.296358    0.000000
    51  Si    c     0.119557    0.003862    0.632059    0.000000
    52  Si    c     0.983942    0.848249    0.463914    0.000000
    53  Si    c     0.102488    0.140637    0.798280    0.000000
    54  Si    c     0.829073    0.963392    0.131861    0.000000
    55  Si    c     0.092015    0.944320    0.364336    0.000000
    56  Si    c     0.835413    0.876042    0.030528    0.000000
    57  Si    c     0.003017    0.129407    0.697421    0.000000
    58  Si    c     0.866122    0.016988    0.864940    0.000000
    59  Si    c     0.115301    0.094197    0.530661    0.000000
    60  Si    c     0.951142    0.842612    0.195890    0.000000
    61  O2    c     0.917634    0.002986    0.001310    0.000000
    62  O2    c     0.972311    0.902271    0.330528    0.000000
    63  O2    c     0.040034    0.046075    0.664406    0.000000
    64  O2    c     0.041358    0.971787    0.498013    0.000000
    65  O2    c     0.981553    0.057579    0.830208    0.000000
    66  O2    c     0.913528    0.927767    0.164671    0.000000
    67  O2    c     0.311912    0.555896    0.326851    0.000000
    68  O2    c     0.395156    0.741203    0.657175    0.000000
    69  O2    c     0.222788    0.650935    0.995564    0.000000
    70  O2    c     0.638729    0.405477    0.832891    0.000000
    71  O2    c     0.562603    0.229688    0.170839    0.000000
    72  O2    c     0.716024    0.302510    0.501800    0.000000
    73  O3    c     0.563511    0.333239    0.999093    0.000000
    74  O2    c     0.734171    0.394631    0.667565    0.000000
    75  O2    c     0.633391    0.215713    0.335640    0.000000
    76  O2    c     0.367109    0.633855    0.492630    0.000000
    77  O2    c     0.215144    0.571388    0.161952    0.000000
    78  O3    c     0.321197    0.747351    0.830355    0.000000
    79  O2    c     0.117258    0.205787    0.970658    0.000000
    80  O2    c     0.761852    0.892073    0.304029    0.000000
    81  O2    c     0.054622    0.848670    0.636028    0.000000
    82  O3    c     0.833868    0.769429    0.466971    0.000000
    83  O2    c     0.191931    0.078795    0.804841    0.000000
    84  O2    c     0.888897    0.118024    0.135254    0.000000
    85  O2    c     0.186136    0.099766    0.357958    0.000000
    86  O2    c     0.909539    0.796487    0.025122    0.000000
    87  O2    c     0.847796    0.065890    0.694487    0.000000
    88  O2    c     0.768261    0.863875    0.857684    0.000000
    89  O2    c     0.046451    0.179526    0.525945    0.000000
    90  O2    c     0.105843    0.903991    0.192703    0.000000
    91  O2    c     0.908330    0.851969    0.246222    0.000000
    92  O2    c     0.111345    0.046387    0.581484    0.000000
    93  O2    c     0.924414    0.048632    0.915234    0.000000
    94  O2    c     0.050089    0.123309    0.747273    0.000000
    95  O2    c     0.838667    0.919089    0.082141    0.000000
    96  O2    c     0.042093    0.909338    0.414847    0.000000
    97  O2    c     0.894853    0.197573    0.972455    0.000000
    98  O2    c     0.764656    0.674453    0.303956    0.000000
    99  O2    c     0.270709    0.070307    0.645910    0.000000
   100  O2    c     0.042852    0.755909    0.475838    0.000000
   101  O2    c     0.184962    0.292441    0.810498    0.000000
   102  O2    c     0.678244    0.892575    0.145714    0.000000
   103  O2    c     0.175082    0.876493    0.352121    0.000000
   104  O2    c     0.685242    0.791402    0.016656    0.000000
   105  O2    c     0.072513    0.280028    0.683769    0.000000
   106  O2    c     0.793580    0.096809    0.854827    0.000000
   107  O2    c     0.266404    0.186305    0.517964    0.000000
   108  O2    c     0.880869    0.692074    0.181237    0.000000
   109  O2    c     0.296060    0.628758    0.245413    0.000000
   110  O2    c     0.314638    0.648223    0.576862    0.000000
   111  O2    c     0.308010    0.668263    0.913511    0.000000
   112  O2    c     0.647697    0.325392    0.750533    0.000000
   113  O3    c     0.604975    0.298285    0.084562    0.000000
   114  O2    c     0.648768    0.308834    0.416975    0.000000
   115  O2    c     0.361867    0.323615    0.968573    0.000000
   116  O2    c     0.644664    0.022789    0.304889    0.000000
   117  O2    c     0.925698    0.598844    0.636623    0.000000
   118  O3    c     0.584070    0.659940    0.469304    0.000000
   119  O3    c     0.290890    0.933076    0.805110    0.000000
   120  O2    c     0.016851    0.366778    0.130665    0.000000
   121  O2    c     0.303204    0.352024    0.358527    0.000000
   122  O2    c     0.027206    0.664227    0.025120    0.000000
   123  O2    c     0.597824    0.928712    0.696367    0.000000
   124  O2    c     0.652606    0.615093    0.860310    0.000000
   125  O2    c     0.911218    0.291286    0.529644    0.000000
   126  O2    c     0.354391    0.031958    0.196922    0.000000
   127  O3    c     0.747486    0.279345    0.001810    0.000000
   128  O2    c     0.671038    0.446790    0.342517    0.000000
   129  O2    c     0.503694    0.199926    0.679287    0.000000
   130  O2    c     0.179934    0.665051    0.507052    0.000000
   131  O2    c     0.285629    0.520762    0.841654    0.000000
   132  O2    c     0.444501    0.761247    0.174655    0.000000
   133  O2    c     0.275401    0.747917    0.319602    0.000000
   134  O2    c     0.452808    0.689781    0.986495    0.000000
   135  O2    c     0.198989    0.511826    0.651881    0.000000
   136  O2    c     0.677342    0.212617    0.822040    0.000000
   137  O2    c     0.497106    0.286238    0.486765    0.000000
   138  O2    c     0.746596    0.457721    0.150659    0.000000
   139  O3    c     0.769459    0.544365    0.018249    0.000000
   140  O2    c     0.441769    0.239230    0.362511    0.000000
   141  O2    c     0.712433    0.183031    0.698534    0.000000
   142  O2    c     0.168985    0.433038    0.523262    0.000000
   143  O2    c     0.517195    0.737301    0.857369    0.000000
   144  O2    c     0.225808    0.772851    0.192378    0.000000
   145  O2    c     0.508117    0.763865    0.302624    0.000000
   146  O2    c     0.235125    0.456907    0.969167    0.000000
   147  O2    c     0.184696    0.727876    0.632629    0.000000
   148  O2    c     0.444372    0.187786    0.805050    0.000000
   149  O3    c     0.724955    0.510602    0.475491    0.000000
   150  O2    c     0.761442    0.242270    0.132701    0.000000
   151  O2    c     0.215520    0.312400    0.895723    0.000000
   152  O2    c     0.653422    0.894312    0.230355    0.000000
   153  O2    c     0.044712    0.734587    0.561619    0.000000
   154  O3    c     0.751665    0.668218    0.388853    0.000000
   155  O2    c     0.298068    0.064463    0.731482    0.000000
   156  O2    c     0.883618    0.223593    0.059246    0.000000
   157  O2    c     0.295359    0.221445    0.432114    0.000000
   158  O2    c     0.882794    0.662695    0.095626    0.000000
   159  O2    c     0.737554    0.063891    0.770014    0.000000
   160  O2    c     0.660457    0.760104    0.932183    0.000000
   161  O2    c     0.059281    0.296188    0.599664    0.000000
   162  O2    c     0.206714    0.890590    0.267440    0.000000
   163  O2    c     0.573869    0.552926    0.989005    0.000000
   164  O2    c     0.414863    0.007254    0.324202    0.000000
   165  O2    c     0.939559    0.383473    0.656098    0.000000
   166  O2    c     0.381559    0.425951    0.486436    0.000000
   167  O3    c     0.549675    0.955290    0.831204    0.000000
   168  O2    c     0.001203    0.575429    0.148963    0.000000
   169  O2    c     0.530110    0.561529    0.338917    0.000000
   170  O2    c     0.001822    0.433883    0.005322    0.000000
   171  O2    c     0.385259    0.945485    0.676632    0.000000
   172  O2    c     0.423149    0.398472    0.841224    0.000000
   173  O2    c     0.925153    0.519127    0.508266    0.000000
   174  O2    c     0.569463    0.019885    0.176866    0.000000
   175  O2    c     0.561812    0.149375    0.252263    0.000000
   176  O2    c     0.795571    0.383692    0.584133    0.000000
   177  O2    c     0.569863    0.409844    0.915568    0.000000
   178  O3    c     0.383309    0.790439    0.743536    0.000000
   179  O2    c     0.138204    0.572116    0.078105    0.000000
   180  O2    c     0.386892    0.560684    0.410729    0.000000
   181  F     c     0.427504    0.886893    0.249317    0.000000
   182  F     c     0.054817    0.514479    0.581383    0.000000
   183  F     c     0.436836    0.537656    0.914570    0.000000
   184  F     c     0.499050    0.029906    0.758611    0.000000
   185  F     c     0.844827    0.430587    0.070446    0.000000
   186  F     c     0.552024    0.471409    0.418924    0.000000
   187  O2    s     0.913323    0.000944    0.000483    0.000000
   188  O2    s     0.972256    0.898807    0.330481    0.000000
   189  O2    s     0.044772    0.050434    0.664414    0.000000
   190  O2    s     0.043935    0.973026    0.498216    0.000000
   191  O2    s     0.982213    0.062490    0.830515    0.000000
   192  O2    s     0.908488    0.922255    0.164548    0.000000
   193  O2    s     0.323833    0.563979    0.327174    0.000000
   194  O2    s     0.386015    0.743333    0.657993    0.000000
   195  O2    s     0.217620    0.639299    0.995658    0.000000
   196  O2    s     0.627231    0.397228    0.832769    0.000000
   197  O2    s     0.568098    0.223900    0.170049    0.000000
   198  O2    s     0.721923    0.315798    0.501625    0.000000
   199  O3    s     0.568588    0.344414    0.998178    0.000000
   200  O2    s     0.737555    0.386501    0.667611    0.000000
   201  O2    s     0.621816    0.212343    0.335398    0.000000
   202  O2    s     0.361632    0.622170    0.493207    0.000000
   203  O2    s     0.210785    0.578679    0.161996    0.000000
   204  O3    s     0.331520    0.748284    0.831353    0.000000
   205  O2    s     0.112993    0.208738    0.967867    0.000000
   206  O2    s     0.758120    0.885564    0.301239    0.000000
   207  O2    s     0.061418    0.852087    0.633548    0.000000
   208  O3    s     0.841973    0.768736    0.465251    0.000000
   209  O2    s     0.194863    0.084152    0.802120    0.000000
   210  O2    s     0.882131    0.114238    0.132652    0.000000
   211  O2    s     0.189804    0.097889    0.360748    0.000000
   212  O2    s     0.900092    0.790821    0.027264    0.000000
   213  O2    s     0.851070    0.072034    0.696988    0.000000
   214  O2    s     0.765764    0.867409    0.860505    0.000000
   215  O2    s     0.053835    0.183723    0.528442    0.000000
   216  O2    s     0.102176    0.896965    0.195149    0.000000
   217  O2    s     0.906801    0.848348    0.246215    0.000000
   218  O2    s     0.112688    0.046938    0.581495    0.000000
   219  O2    s     0.922299    0.052451    0.915117    0.000000
   220  O2    s     0.050478    0.125932    0.747201    0.000000
   221  O2    s     0.837186    0.919526    0.082245    0.000000
   222  O2    s     0.041802    0.907023    0.414111    0.000000
   223  O2    s     0.900748    0.198058    0.975612    0.000000
   224  O2    s     0.764869    0.681648    0.307226    0.000000
   225  O2    s     0.264561    0.062977    0.648388    0.000000
   226  O2    s     0.037301    0.755404    0.478786    0.000000
   227  O2    s     0.185970    0.285466    0.813053    0.000000
   228  O2    s     0.684114    0.900120    0.148216    0.000000
   229  O2    s     0.176567    0.884120    0.349462    0.000000
   230  O2    s     0.691729    0.790445    0.014333    0.000000
   231  O2    s     0.064473    0.273623    0.681285    0.000000
   232  O2    s     0.789940    0.086786    0.852292    0.000000
   233  O2    s     0.260888    0.187155    0.515281    0.000000
   234  O2    s     0.888121    0.698098    0.178837    0.000000
   235  O2    s     0.302191    0.640795    0.245594    0.000000
   236  O2    s     0.302690    0.642676    0.577039    0.000000
   237  O2    s     0.313252    0.662441    0.913780    0.000000
   238  O2    s     0.642943    0.315182    0.750409    0.000000
   239  O3    s     0.617744    0.304004    0.086481    0.000000
   240  O2    s     0.643063    0.313256    0.416672    0.000000
   241  O2    s     0.364451    0.333278    0.966367    0.000000
   242  O2    s     0.634742    0.016306    0.302494    0.000000
   243  O2    s     0.931907    0.595441    0.634156    0.000000
   244  O3    s     0.576240    0.647725    0.467042    0.000000
   245  O3    s     0.300650    0.944007    0.802410    0.000000
   246  O2    s     0.010878    0.370000    0.128677    0.000000
   247  O2    s     0.312452    0.355152    0.360728    0.000000
   248  O2    s     0.020957    0.654705    0.026754    0.000000
   249  O2    s     0.595439    0.935299    0.698390    0.000000
   250  O2    s     0.642392    0.611523    0.862603    0.000000
   251  O2    s     0.918704    0.302085    0.531689    0.000000
   252  O2    s     0.357193    0.024938    0.199076    0.000000
   253  O3    s     0.758615    0.286462    0.004908    0.000000
   254  O2    s     0.663766    0.445983    0.345286    0.000000
   255  O2    s     0.504538    0.193698    0.682017    0.000000
   256  O2    s     0.173074    0.657054    0.510071    0.000000
   257  O2    s     0.293024    0.520923    0.844607    0.000000
   258  O2    s     0.443947    0.767940    0.177879    0.000000
   259  O2    s     0.283105    0.755243    0.316566    0.000000
   260  O2    s     0.451923    0.681984    0.983288    0.000000
   261  O2    s     0.191600    0.511528    0.648712    0.000000
   262  O2    s     0.669643    0.206158    0.819640    0.000000
   263  O2    s     0.497769    0.293278    0.484215    0.000000
   264  O2    s     0.753327    0.457813    0.147972    0.000000
   265  O3    s     0.778851    0.546190    0.021641    0.000000
   266  O2    s     0.443670    0.245195    0.364552    0.000000
   267  O2    s     0.706408    0.179509    0.700558    0.000000
   268  O2    s     0.164161    0.435688    0.526059    0.000000
   269  O2    s     0.515207    0.730208    0.860092    0.000000
   270  O2    s     0.233920    0.778060    0.194994    0.000000
   271  O2    s     0.505614    0.769376    0.300068    0.000000
   272  O2    s     0.243556    0.460135    0.966558    0.000000
   273  O2    s     0.178768    0.719482    0.630317    0.000000
   274  O2    s     0.447402    0.184893    0.802865    0.000000
   275  O3    s     0.714719    0.503084    0.472680    0.000000
   276  O2    s     0.765997    0.248481    0.130513    0.000000
   277  O2    s     0.225448    0.322501    0.896561    0.000000
   278  O2    s     0.643922    0.893989    0.231219    0.000000
   279  O2    s     0.045825    0.725943    0.562543    0.000000
   280  O3    s     0.739993    0.656394    0.388290    0.000000
   281  O2    s     0.306601    0.064670    0.731869    0.000000
   282  O2    s     0.883425    0.231434    0.060354    0.000000
   283  O2    s     0.304025    0.229012    0.431295    0.000000
   284  O2    s     0.883372    0.654788    0.095364    0.000000
   285  O2    s     0.730344    0.064921    0.768836    0.000000
   286  O2    s     0.650712    0.750404    0.931343    0.000000
   287  O2    s     0.058831    0.305457    0.598684    0.000000
   288  O2    s     0.216088    0.890529    0.266560    0.000000
   289  O2    s     0.569593    0.553520    0.985641    0.000000
   290  O2    s     0.414747    0.002472    0.320802    0.000000
   291  O2    s     0.944463    0.388708    0.652664    0.000000
   292  O2    s     0.384701    0.424488    0.483515    0.000000
   293  O3    s     0.554865    0.964439    0.827518    0.000000
   294  O2    s     0.997532    0.571710    0.146154    0.000000
   295  O2    s     0.530020    0.558243    0.341872    0.000000
   296  O2    s     0.999285    0.434315    0.008107    0.000000
   297  O2    s     0.388503    0.949978    0.679409    0.000000
   298  O2    s     0.423235    0.403705    0.844553    0.000000
   299  O2    s     0.930107    0.520208    0.511612    0.000000
   300  O2    s     0.564545    0.014538    0.180095    0.000000
   301  O2    s     0.556041    0.138154    0.252126    0.000000
   302  O2    s     0.807104    0.389441    0.584047    0.000000
   303  O2    s     0.564400    0.414959    0.915303    0.000000
   304  O3    s     0.390761    0.803104    0.741766    0.000000
   305  O2    s     0.128712    0.567314    0.078291    0.000000
   306  O2    s     0.391540    0.555976    0.410571    0.000000
   307  F     s     0.427203    0.886324    0.249366    0.000000
   308  F     s     0.054918    0.514250    0.581460    0.000000
   309  F     s     0.436629    0.537672    0.914623    0.000000
   310  F     s     0.492713    0.019567    0.761120    0.000000
   311  F     s     0.834025    0.426583    0.067885    0.000000
   312  F     s     0.560878    0.480426    0.420442    0.000000
--------------------------------------------------------------------------------

  Final Cartesian lattice vectors (Angstroms) :

       12.014384   -0.001432    0.000719
       -6.123193   10.323774   -0.007150
       -0.128894   -0.213953   29.510008


  Final cell parameters and derivatives :

--------------------------------------------------------------------------------
       a           12.014384 Angstrom     dE/de1(xx)     0.001954 eV/strain
       b           12.003077 Angstrom     dE/de2(yy)     0.001843 eV/strain
       c           29.511065 Angstrom     dE/de3(zz)     0.002903 eV/strain
       alpha       90.263745 Degrees      dE/de4(yz)     0.000441 eV/strain
       beta        90.246769 Degrees      dE/de5(xz)     0.000024 eV/strain
       gamma      120.679675 Degrees      dE/de6(xy)     0.000548 eV/strain
--------------------------------------------------------------------------------

  Primitive cell volume =          3659.962462 Angs**3

  Density of cell =      1.748131 g/cm**3

  Non-primitive cell volume =          3659.962462 Angs**3


  Final internal derivatives :

--------------------------------------------------------------------------------
   No.  Atomic          a             b             c           Radius
        Label          (eV)          (eV)          (eV)        (eV/Angs)
--------------------------------------------------------------------------------
      1 Ge    c       0.000000      0.000000      0.000000      0.000000
      2 Si    c      -0.000269     -0.000258      0.000155      0.000000
      3 Si    c      -0.000063     -0.000089     -0.000217      0.000000
      4 Si    c       0.000433      0.000563      0.001005      0.000000
      5 Si    c      -0.000045     -0.000637      0.001108      0.000000
      6 Si    c       0.000192      0.000062     -0.000486      0.000000
      7 Si    c       0.000407      0.000718     -0.000023      0.000000
      8 Si    c       0.000288     -0.000151      0.000125      0.000000
      9 Si    c       0.000769      0.000535      0.002396      0.000000
     10 Si    c      -0.000421     -0.000668     -0.000268      0.000000
     11 Si    c      -0.000626     -0.000162     -0.000988      0.000000
     12 Si    c       0.002308      0.000223      0.007595      0.000000
     13 Si    c      -0.001173     -0.000794     -0.000483      0.000000
     14 Si    c       0.000350      0.000261      0.000396      0.000000
     15 Si    c       0.000316      0.000373     -0.000082      0.000000
     16 Si    c       0.000716     -0.000128     -0.000273      0.000000
     17 Ge    c       0.000088      0.000269     -0.000586      0.000000
     18 Si    c       0.000484      0.000209      0.001587      0.000000
     19 Si    c       0.000161      0.000172      0.000719      0.000000
     20 Si    c       0.000204     -0.000022      0.001041      0.000000
     21 Si    c       0.000448      0.000297      0.000230      0.000000
     22 Si    c      -0.000479      0.000298      0.000948      0.000000
     23 Si    c       0.000935      0.001047      0.000390      0.000000
     24 Si    c       0.000027     -0.000080     -0.000311      0.000000
     25 Si    c      -0.000182     -0.000408     -0.001421      0.000000
     26 Si    c       0.000099      0.000032      0.000326      0.000000
     27 Si    c       0.000690      0.000449      0.001571      0.000000
     28 Si    c      -0.000248     -0.000279      0.000118      0.000000
     29 Si    c       0.000414      0.000327     -0.000135      0.000000
     30 Si    c       0.001977      0.000821      0.000184      0.000000
     31 Si    c      -0.000155     -0.000002     -0.000296      0.000000
     32 Si    c       0.000555     -0.000131     -0.000324      0.000000
     33 Si    c      -0.000373     -0.000424      0.000142      0.000000
     34 Si    c       0.000396      0.000117      0.000684      0.000000
     35 Si    c       0.000121      0.000266     -0.001604      0.000000
     36 Si    c       0.000446      0.000193     -0.000030      0.000000
     37 Si    c      -0.000224     -0.000468      0.000259      0.000000
     38 Si    c       0.000072      0.000251      0.000482      0.000000
     39 Si    c       0.000286      0.000389      0.000799      0.000000
     40 Ge    c       0.000408      0.000081      0.000143      0.000000
     41 Si    c       0.000506      0.000166      0.000147      0.000000
     42 Si    c       0.000941      0.000811      0.000163      0.000000
     43 Si    c      -0.000178     -0.000361     -0.000097      0.000000
     44 Si    c       0.000706      0.000060     -0.001856      0.000000
     45 Si    c      -0.000153     -0.000050      0.000260      0.000000
     46 Si    c      -0.000187     -0.000218      0.000099      0.000000
     47 Si    c       0.000669      0.000471     -0.000432      0.000000
     48 Si    c       0.000375      0.000279     -0.000178      0.000000
     49 Si    c       0.000060     -0.000253     -0.000524      0.000000
     50 Si    c       0.000175     -0.000095      0.000864      0.000000
     51 Si    c       0.000168      0.000642      0.000517      0.000000
     52 Si    c      -0.000040      0.000278      0.000714      0.000000
     53 Si    c      -0.000158      0.000373     -0.000609      0.000000
     54 Si    c      -0.000052     -0.000209      0.000290      0.000000
     55 Si    c       0.000039     -0.000142     -0.000122      0.000000
     56 Si    c      -0.000404     -0.000431      0.000701      0.000000
     57 Si    c      -0.000463      0.000188     -0.002137      0.000000
     58 Si    c      -0.000134     -0.000174      0.000063      0.000000
     59 Si    c      -0.000221     -0.000042      0.000029      0.000000
     60 Si    c       0.000121     -0.000052     -0.000580      0.000000
     61 O2    c       0.000238     -0.000762      0.001115      0.000000
     62 O2    c       0.000175     -0.000004      0.000176      0.000000
     63 O2    c       0.000023      0.000028      0.000816      0.000000
     64 O2    c      -0.000056      0.000449      0.000784      0.000000
     65 O2    c       0.000133     -0.000422      0.000341      0.000000
     66 O2    c       0.000075     -0.000185     -0.000169      0.000000
     67 O2    c      -0.000075     -0.000078      0.000235      0.000000
     68 O2    c       0.000005      0.000020     -0.000087      0.000000
     69 O2    c       0.000484     -0.000210     -0.000467      0.000000
     70 O2    c       0.000396      0.000107     -0.000241      0.000000
     71 O2    c      -0.000092     -0.000011      0.000792      0.000000
     72 O2    c       0.000324     -0.000396      0.000155      0.000000
     73 O3    c      -0.000194     -0.001417      0.001753      0.000000
     74 O2    c       0.000088      0.000040     -0.000438      0.000000
     75 O2    c      -0.000179      0.000105     -0.000348      0.000000
     76 O2    c       0.000290     -0.000038      0.000433      0.000000
     77 O2    c       0.000088      0.000047     -0.000077      0.000000
     78 O3    c      -0.000210     -0.000401     -0.000413      0.000000
     79 O2    c       0.000333     -0.000110      0.000326      0.000000
     80 O2    c      -0.000136      0.000057     -0.000790      0.000000
     81 O2    c       0.000120     -0.000166     -0.000150      0.000000
     82 O3    c      -0.000951     -0.000394      0.000833      0.000000
     83 O2    c       0.000176     -0.000527      0.000422      0.000000
     84 O2    c       0.000281     -0.000679     -0.000217      0.000000
     85 O2    c       0.000059      0.000104      0.000062      0.000000
     86 O2    c       0.000546      0.000011      0.000007      0.000000
     87 O2    c       0.000053      0.000128      0.000661      0.000000
     88 O2    c      -0.000175     -0.000279     -0.000314      0.000000
     89 O2    c      -0.000164      0.000709      0.000418      0.000000
     90 O2    c       0.000100      0.000035      0.000158      0.000000
     91 O2    c       0.000095     -0.000077     -0.000543      0.000000
     92 O2    c      -0.000009      0.000044      0.000497      0.000000
     93 O2    c      -0.000195      0.000065     -0.000995      0.000000
     94 O2    c      -0.000015      0.000011      0.002909      0.000000
     95 O2    c       0.000266      0.000249      0.001287      0.000000
     96 O2    c       0.000273      0.000156     -0.001770      0.000000
     97 O2    c      -0.000310     -0.000169     -0.001175      0.000000
     98 O2    c      -0.000058     -0.000126      0.000811      0.000000
     99 O2    c      -0.000004     -0.000075      0.000392      0.000000
    100 O2    c       0.001347     -0.000818     -0.000732      0.000000
    101 O2    c      -0.000097      0.000440      0.000862      0.000000
    102 O2    c       0.000201     -0.000030     -0.000737      0.000000
    103 O2    c       0.000077      0.000057     -0.000522      0.000000
    104 O2    c       0.000340     -0.000440     -0.001247      0.000000
    105 O2    c       0.000049      0.000335      0.000977      0.000000
    106 O2    c      -0.000328      0.000449      0.000475      0.000000
    107 O2    c       0.000559      0.000006      0.000535      0.000000
    108 O2    c       0.000211     -0.000227      0.000036      0.000000
    109 O2    c      -0.000071     -0.000228      0.000397      0.000000
    110 O2    c      -0.000569      0.000146     -0.001030      0.000000
    111 O2    c      -0.000325      0.000232     -0.000037      0.000000
    112 O2    c       0.000308      0.000069     -0.001539      0.000000
    113 O3    c      -0.004841     -0.002229      0.002608      0.000000
    114 O2    c       0.000056     -0.000106     -0.000682      0.000000
    115 O2    c       0.000186      0.000019     -0.000824      0.000000
    116 O2    c      -0.000027     -0.000163     -0.000644      0.000000
    117 O2    c      -0.000181      0.000038      0.000377      0.000000
    118 O3    c      -0.000393      0.000404      0.000829      0.000000
    119 O3    c      -0.000089     -0.000061      0.000196      0.000000
    120 O2    c       0.000087     -0.000033     -0.000694      0.000000
    121 O2    c      -0.000020      0.000340      0.000111      0.000000
    122 O2    c       0.000106      0.000255      0.000585      0.000000
    123 O2    c       0.000029      0.000266      0.000462      0.000000
    124 O2    c      -0.000084      0.000094      0.000336      0.000000
    125 O2    c       0.000109     -0.000121     -0.000633      0.000000
    126 O2    c       0.000225     -0.000006      0.000233      0.000000
    127 O3    c      -0.000206     -0.000880     -0.005023      0.000000
    128 O2    c       0.000005      0.000236     -0.000305      0.000000
    129 O2    c       0.000118      0.000045      0.000301      0.000000
    130 O2    c      -0.000070      0.000128      0.000588      0.000000
    131 O2    c      -0.000176      0.000186     -0.000292      0.000000
    132 O2    c       0.000307      0.000016     -0.000065      0.000000
    133 O2    c       0.000095     -0.000109      0.000212      0.000000
    134 O2    c       0.000160     -0.000129      0.000154      0.000000
    135 O2    c      -0.000005     -0.000281      0.000611      0.000000
    136 O2    c       0.000128      0.000002     -0.000293      0.000000
    137 O2    c       0.000054      0.000083      0.000012      0.000000
    138 O2    c       0.000227      0.000099      0.000116      0.000000
    139 O3    c      -0.000736      0.001230     -0.002648      0.000000
    140 O2    c       0.000341     -0.000096     -0.000135      0.000000
    141 O2    c       0.000151      0.000132      0.000479      0.000000
    142 O2    c       0.000450      0.000097     -0.000482      0.000000
    143 O2    c       0.000429      0.000232     -0.000340      0.000000
    144 O2    c      -0.000018      0.000000     -0.000017      0.000000
    145 O2    c      -0.000122      0.000119     -0.000120      0.000000
    146 O2    c      -0.000098     -0.000287     -0.000083      0.000000
    147 O2    c      -0.000071     -0.000137     -0.001004      0.000000
    148 O2    c      -0.000023     -0.000088     -0.000245      0.000000
    149 O3    c       0.000096     -0.000393      0.000794      0.000000
    150 O2    c       0.000212     -0.000168     -0.000464      0.000000
    151 O2    c       0.000091     -0.000019      0.000846      0.000000
    152 O2    c      -0.000065      0.000096     -0.000295      0.000000
    153 O2    c       0.000355     -0.000263     -0.001342      0.000000
    154 O3    c       0.000480      0.000104     -0.000283      0.000000
    155 O2    c      -0.000289     -0.000099      0.000074      0.000000
    156 O2    c       0.000138     -0.000386      0.000596      0.000000
    157 O2    c       0.000167     -0.000025      0.000936      0.000000
    158 O2    c       0.000122      0.000056      0.004674      0.000000
    159 O2    c       0.000124      0.000115     -0.001085      0.000000
    160 O2    c       0.000425     -0.000207      0.000177      0.000000
    161 O2    c       0.000141     -0.000363      0.001732      0.000000
    162 O2    c      -0.000117     -0.000033      0.000221      0.000000
    163 O2    c       0.000051     -0.000408     -0.000326      0.000000
    164 O2    c      -0.000188      0.000047     -0.000249      0.000000
    165 O2    c      -0.000027      0.000026      0.001136      0.000000
    166 O2    c      -0.000022     -0.000056      0.000513      0.000000
    167 O3    c       0.000000     -0.000228      0.000514      0.000000
    168 O2    c      -0.000035     -0.000031     -0.000950      0.000000
    169 O2    c      -0.000040     -0.000015     -0.000102      0.000000
    170 O2    c       0.000439      0.000620      0.000834      0.000000
    171 O2    c       0.000048      0.000041     -0.000011      0.000000
    172 O2    c       0.000130      0.000068      0.000826      0.000000
    173 O2    c       0.000119      0.000330     -0.000963      0.000000
    174 O2    c       0.000067      0.000082      0.000095      0.000000
    175 O2    c       0.000002     -0.000154      0.000554      0.000000
    176 O2    c      -0.000453     -0.000007     -0.000272      0.000000
    177 O2    c      -0.000215     -0.000135      0.000811      0.000000
    178 O3    c      -0.000259     -0.000389      0.000182      0.000000
    179 O2    c      -0.000118     -0.000199      0.000031      0.000000
    180 O2    c      -0.000114     -0.000062     -0.000286      0.000000
    181 F     c       0.000156      0.000158      0.000023      0.000000
    182 F     c       0.000326      0.000549      0.000288      0.000000
    183 F     c       0.000253     -0.000626      0.000097      0.000000
    184 F     c       0.000048      0.000250      0.000346      0.000000
    185 F     c       0.001103      0.000266     -0.001190      0.000000
    186 F     c      -0.000030     -0.000318      0.000227      0.000000
    187 O2    s       0.000016     -0.000507      0.000487      0.000000
    188 O2    s       0.000032      0.000126      0.000110      0.000000
    189 O2    s       0.000021      0.000103     -0.001304      0.000000
    190 O2    s      -0.000212      0.000689      0.000480      0.000000
    191 O2    s       0.000483     -0.000441     -0.000444      0.000000
    192 O2    s      -0.000100     -0.000523      0.000879      0.000000
    193 O2    s       0.000256      0.000188      0.000959      0.000000
    194 O2    s      -0.000315     -0.000109     -0.000092      0.000000
    195 O2    s       0.000578     -0.000445     -0.000156      0.000000
    196 O2    s       0.000144     -0.000007     -0.000737      0.000000
    197 O2    s       0.000166     -0.000651      0.002123      0.000000
    198 O2    s       0.000715     -0.000175      0.000063      0.000000
    199 O3    s       0.001481      0.000573     -0.000735      0.000000
    200 O2    s       0.000115     -0.000082      0.000329      0.000000
    201 O2    s      -0.000154      0.000023     -0.000245      0.000000
    202 O2    s       0.000188      0.000282      0.001132      0.000000
    203 O2    s       0.000105     -0.000067      0.000030      0.000000
    204 O3    s       0.000237      0.000593      0.001014      0.000000
    205 O2    s       0.000733      0.000118     -0.000608      0.000000
    206 O2    s       0.000014      0.000224      0.000481      0.000000
    207 O2    s       0.000309     -0.000347      0.000574      0.000000
    208 O3    s      -0.000990     -0.000021     -0.001244      0.000000
    209 O2    s       0.000323     -0.000172     -0.000053      0.000000
    210 O2    s       0.000526     -0.000467      0.000403      0.000000
    211 O2    s      -0.000011      0.000130      0.000377      0.000000
    212 O2    s       0.000371     -0.000169     -0.001348      0.000000
    213 O2    s      -0.000277     -0.000125     -0.000160      0.000000
    214 O2    s       0.000058     -0.000096      0.001344      0.000000
    215 O2    s      -0.000146      0.000580      0.000109      0.000000
    216 O2    s       0.000038      0.000018      0.000011      0.000000
    217 O2    s      -0.000079     -0.000011     -0.000464      0.000000
    218 O2    s      -0.000123      0.000047     -0.000086      0.000000
    219 O2    s      -0.000381     -0.000186     -0.000147      0.000000
    220 O2    s      -0.000081     -0.000138     -0.000709      0.000000
    221 O2    s      -0.000481      0.000133      0.000640      0.000000
    222 O2    s       0.000017      0.000391     -0.000926      0.000000
    223 O2    s       0.000146      0.000285      0.000142      0.000000
    224 O2    s      -0.000316     -0.000080     -0.000020      0.000000
    225 O2    s       0.000036      0.000134     -0.000120      0.000000
    226 O2    s       0.001800     -0.000359      0.001549      0.000000
    227 O2    s      -0.000009      0.000327      0.000415      0.000000
    228 O2    s       0.000305      0.000016      0.000426      0.000000
    229 O2    s       0.000251      0.000233      0.000207      0.000000
    230 O2    s      -0.000392     -0.000676     -0.000502      0.000000
    231 O2    s      -0.000242      0.000044     -0.000708      0.000000
    232 O2    s      -0.000395      0.000265      0.000061      0.000000
    233 O2    s       0.000376     -0.000354     -0.000216      0.000000
    234 O2    s       0.000374     -0.000452     -0.000207      0.000000
    235 O2    s       0.000411      0.000003     -0.000036      0.000000
    236 O2    s      -0.000391      0.000848     -0.000159      0.000000
    237 O2    s      -0.000106      0.000113      0.000240      0.000000
    238 O2    s       0.000310     -0.000266     -0.000915      0.000000
    239 O3    s       0.000261      0.002811     -0.001937      0.000000
    240 O2    s      -0.000508     -0.000251     -0.000610      0.000000
    241 O2    s      -0.000037      0.000106     -0.000833      0.000000
    242 O2    s       0.000154      0.000130     -0.000421      0.000000
    243 O2    s      -0.000013     -0.000236      0.000664      0.000000
    244 O3    s      -0.000277      0.000039      0.001559      0.000000
    245 O3    s       0.000188     -0.000011     -0.000119      0.000000
    246 O2    s       0.000312     -0.000272      0.000423      0.000000
    247 O2    s      -0.000067      0.000090      0.000165      0.000000
    248 O2    s       0.000068      0.000279      0.000137      0.000000
    249 O2    s      -0.000279      0.000147     -0.000256      0.000000
    250 O2    s      -0.000266      0.000356      0.000365      0.000000
    251 O2    s       0.000313      0.000433     -0.000673      0.000000
    252 O2    s      -0.000069     -0.000167     -0.000023      0.000000
    253 O3    s      -0.000123      0.000349     -0.001649      0.000000
    254 O2    s      -0.000225      0.000292     -0.000322      0.000000
    255 O2    s       0.000000     -0.000043     -0.000215      0.000000
    256 O2    s       0.000211      0.000435      0.002257      0.000000
    257 O2    s      -0.000047      0.000150     -0.000051      0.000000
    258 O2    s       0.000121     -0.000259      0.000584      0.000000
    259 O2    s       0.000330      0.000104      0.000679      0.000000
    260 O2    s       0.000139     -0.000345      0.000905      0.000000
    261 O2    s      -0.000026      0.000217      0.000125      0.000000
    262 O2    s      -0.000102     -0.000202      0.000091      0.000000
    263 O2    s      -0.000142      0.000091     -0.000891      0.000000
    264 O2    s       0.000238     -0.000979      0.001314      0.000000
    265 O3    s      -0.001311      0.000437     -0.001878      0.000000
    266 O2    s       0.000275     -0.000120      0.000371      0.000000
    267 O2    s      -0.000097     -0.000094      0.000197      0.000000
    268 O2    s       0.000301      0.000148      0.000044      0.000000
    269 O2    s       0.000133     -0.000527     -0.000138      0.000000
    270 O2    s       0.000207      0.000027     -0.000142      0.000000
    271 O2    s      -0.000078      0.000268      0.000168      0.000000
    272 O2    s       0.000251      0.000030      0.000237      0.000000
    273 O2    s       0.000194     -0.000062     -0.000828      0.000000
    274 O2    s       0.000242     -0.000139     -0.000272      0.000000
    275 O3    s      -0.000015      0.000442     -0.000636      0.000000
    276 O2    s      -0.000208      0.000308      0.003725      0.000000
    277 O2    s       0.000351     -0.000255     -0.000152      0.000000
    278 O2    s       0.000071      0.000216      0.000525      0.000000
    279 O2    s       0.001404      0.000105      0.000312      0.000000
    280 O3    s       0.000038      0.000082     -0.001009      0.000000
    281 O2    s       0.000163      0.000230     -0.000139      0.000000
    282 O2    s       0.001385     -0.000405      0.000589      0.000000
    283 O2    s       0.000224     -0.000080     -0.000446      0.000000
    284 O2    s       0.001279      0.000591      0.000515      0.000000
    285 O2    s      -0.000081      0.000130     -0.000641      0.000000
    286 O2    s       0.000032     -0.000412      0.000067      0.000000
    287 O2    s       0.000142      0.000124     -0.000091      0.000000
    288 O2    s       0.000254      0.000387     -0.000056      0.000000
    289 O2    s       0.000004      0.000164     -0.000786      0.000000
    290 O2    s       0.000011      0.000153     -0.000114      0.000000
    291 O2    s       0.000106      0.000232     -0.000490      0.000000
    292 O2    s       0.000468     -0.000277     -0.000506      0.000000
    293 O3    s       0.000309      0.000325     -0.000526      0.000000
    294 O2    s       0.000133      0.000089      0.000635      0.000000
    295 O2    s       0.000078     -0.000083      0.000802      0.000000
    296 O2    s       0.000436     -0.000931      0.000123      0.000000
    297 O2    s       0.000136     -0.000095      0.000012      0.000000
    298 O2    s      -0.000233      0.000102      0.000823      0.000000
    299 O2    s       0.000659     -0.000261      0.000858      0.000000
    300 O2    s       0.000052      0.000046      0.000227      0.000000
    301 O2    s       0.000265     -0.000031     -0.000434      0.000000
    302 O2    s       0.000577      0.000406      0.000832      0.000000
    303 O2    s      -0.000692      0.000452     -0.000109      0.000000
    304 O3    s       0.000242      0.000274     -0.000063      0.000000
    305 O2    s       0.000504      0.000092     -0.000183      0.000000
    306 O2    s       0.000343     -0.000282     -0.000238      0.000000
    307 F     s       0.000209      0.000177      0.000326      0.000000
    308 F     s       0.000243      0.000387     -0.000385      0.000000
    309 F     s       0.000454     -0.000486      0.000245      0.000000
    310 F     s      -0.000259      0.000103      0.000217      0.000000
    311 F     s       0.000365     -0.000604     -0.000607      0.000000
    312 F     s      -0.000188     -0.000386      0.000352      0.000000
--------------------------------------------------------------------------------
  Maximum abs         0.004841      0.002811      0.007595      0.000000
--------------------------------------------------------------------------------


  Time to end of optimisation =     175.4965 seconds


  Peak dynamic memory used =      19.13 MB 


  Timing analysis for GULP :

--------------------------------------------------------------------------------
  Task / Subroutine                                          Time (Seconds)
--------------------------------------------------------------------------------
  Calculation of reciprocal space energy and derivatives          4.1710
  Calculation of real space energy and derivatives              153.8029
  Calculation of three-body energy and derivatives               15.4324
  Calculation of matrix inversion                                 1.8590
  Global summation overhead                                       0.0003
--------------------------------------------------------------------------------
  Total CPU time                                                175.4966
--------------------------------------------------------------------------------


  Dump file written as out.res                                                 
  CIF file written as out.cif                                                 


  Job Finished at 04:54.01 31st October    2016                               

