********************************************************************************
*                       GENERAL UTILITY LATTICE PROGRAM                        *
*                                 Julian Gale                                  *
*                      Nanochemistry Research Institute                        *
*                           Department of Chemistry                            *
*                    Curtin University, Western Australia                      *
********************************************************************************
* Version = 4.2.0 * Last modified =  20th January 2014                         *
********************************************************************************
*  optimise     - perform optimisation run                                     *
*  conp         - constant pressure calculation                                *
*  qok          - running with non charge neutral cell is OK                   *
********************************************************************************

  Job Started  at 02:44.05 31st October    2016                               

  Number of CPUs =     1


  Total number of configurations input =   1

********************************************************************************
*  Input for Configuration =   1                                               *
********************************************************************************

  Formula = Ge3Si57O120F6                                               

  Number of irreducible atoms/shells =     312


  Total number atoms/shells =     312

  Dimensionality = 3               :  Bulk   


  Charge on solid   =  -6.000000 =>neutralising background added


  Cartesian lattice vectors (Angstroms) :

       11.976572    0.000000    0.000000
       -6.034965   10.349933    0.000000
       -0.192419    0.100877   29.467925

  Cell parameters (Angstroms/Degrees):

  a =      11.9766    alpha =  89.6421
  b =      11.9809    beta  =  90.3741
  c =      29.4687    gamma = 120.2461

  Initial cell volume =        3652.747218 Angs**3

  Temperature of configuration =  0.000     K 

  Pressure of configuration =         0.000 GPa 

  Fractional coordinates of asymmetric unit :

--------------------------------------------------------------------------------
   No.  Atomic       x           y          z         Charge      Occupancy
        Label      (Frac)      (Frac)     (Frac)        (e)         (Frac)  
--------------------------------------------------------------------------------
      1 Ge    c    0.699600    0.375700    0.033890     4.00000    1.000000    
      2 Si    c    0.623285 *  0.321512 *  0.365805 *   4.00000    1.000000    
      3 Si    c    0.671982 *  0.303500 *  0.700169 *   4.00000    1.000000    
      4 Si    c    0.297542 *  0.616406 *  0.528621 *   4.00000    1.000000    
      5 Si    c    0.376347 *  0.684991 *  0.862001 *   4.00000    1.000000    
      6 Si    c    0.320650 *  0.703082 *  0.196911 *   4.00000    1.000000    
      7 Si    c    0.377066 *  0.699155 *  0.297316 *   4.00000    1.000000    
      8 Si    c    0.322795 *  0.625016 *  0.963194 *   4.00000    1.000000    
      9 Si    c    0.309015 *  0.681588 *  0.630463 *   4.00000    1.000000    
     10 Si    c    0.619540 *  0.301326 *  0.802247 *   4.00000    1.000000    
     11 Si    c    0.676023 *  0.379011 *  0.466296 *   4.00000    1.000000    
     12 Si    c    0.689909 *  0.318952 *  0.132879 *   4.00000    1.000000    
     13 Si    c    0.528595 *  0.419124 *  0.966869 *   4.00000    1.000000    
     14 Si    c    0.584070 *  0.108862 *  0.302477 *   4.00000    1.000000    
     15 Si    c    0.881426 *  0.468394 *  0.635396 *   4.00000    1.000000    
     16 Si    c    0.469158 *  0.580626 *  0.463350 *   4.00000    1.000000    
     17 Ge    c    0.431704 *  0.906019 *  0.794996 *   4.00000    1.000000    
     18 Si    c    0.110487 *  0.532773 *  0.129613 *   4.00000    1.000000    
     19 Si    c    0.417762 *  0.527366 *  0.361803 *   4.00000    1.000000    
     20 Si    c    0.107128 *  0.583496 *  0.026301 *   4.00000    1.000000    
     21 Si    c    0.473731 *  0.887270 *  0.696192 *   4.00000    1.000000    
     22 Si    c    0.579004 *  0.474690 *  0.865380 *   4.00000    1.000000    
     23 Si    c    0.881695 *  0.409324 *  0.532912 *   4.00000    1.000000    
     24 Si    c    0.530785 *  0.112938 *  0.201237 *   4.00000    1.000000    
     25 Si    c    0.298950 *  0.404105 *  0.849513 *   4.00000    1.000000    
     26 Si    c    0.601571 *  0.905221 *  0.184037 *   4.00000    1.000000    
     27 Si    c    0.094280 *  0.694952 *  0.515883 *   4.00000    1.000000    
     28 Si    c    0.699347 *  0.599143 *  0.349268 *   4.00000    1.000000    
     29 Si    c    0.392115 *  0.094868 *  0.684627 *   4.00000    1.000000    
     30 Si    c    0.892143 *  0.295940 *  0.011848 *   4.00000    1.000000    
     31 Si    c    0.396981 *  0.300681 *  0.479566 *   4.00000    1.000000    
     32 Si    c    0.896415 *  0.603338 *  0.143239 *   4.00000    1.000000    
     33 Si    c    0.705328 *  0.102011 *  0.818207 *   4.00000    1.000000    
     34 Si    c    0.599810 *  0.700355 *  0.979360 *   4.00000    1.000000    
     35 Ge    c    0.097227 *  0.410970 *  0.640461 *   4.00000    1.000000    
     36 Si    c    0.301870 *  0.899456 *  0.314336 *   4.00000    1.000000    
     37 Si    c    0.251123 *  0.344793 *  0.949837 *   4.00000    1.000000    
     38 Si    c    0.659857 *  0.907965 *  0.284766 *   4.00000    1.000000    
     39 Si    c    0.090641 *  0.750195 *  0.617509 *   4.00000    1.000000    
     40 Si    c    0.747975 *  0.658802 *  0.449728 *   4.00000    1.000000    
     41 Si    c    0.331371 *  0.086108 *  0.786523 *   4.00000    1.000000    
     42 Si    c    0.904496 *  0.250493 *  0.114675 *   4.00000    1.000000    
     43 Si    c    0.340950 *  0.248659 *  0.378760 *   4.00000    1.000000    
     44 Si    c    0.901373 *  0.660486 *  0.040697 *   4.00000    1.000000    
     45 Si    c    0.752892 *  0.095377 *  0.715197 *   4.00000    1.000000    
     46 Si    c    0.657681 *  0.753746 *  0.878662 *   4.00000    1.000000    
     47 Si    c    0.084670 *  0.328760 *  0.544526 *   4.00000    1.000000    
     48 Si    c    0.249963 *  0.911675 *  0.213943 *   4.00000    1.000000    
     49 Si    c    0.974949 *  0.123701 *  0.965115 *   4.00000    1.000000    
     50 Si    c    0.878754 *  0.846491 *  0.298161 *   4.00000    1.000000    
     51 Si    c    0.147112 *  0.030407 *  0.632277 *   4.00000    1.000000    
     52 Si    c    0.027869 *  0.875234 *  0.464453 *   4.00000    1.000000    
     53 Si    c    0.120085 *  0.158401 *  0.797880 *   4.00000    1.000000    
     54 Si    c    0.847716 *  0.972867 *  0.131975 *   4.00000    1.000000    
     55 Si    c    0.122613 *  0.968027 *  0.363594 *   4.00000    1.000000    
     56 Si    c    0.848244 *  0.882195 *  0.030765 *   4.00000    1.000000    
     57 Si    c    0.034466 *  0.162374 *  0.695809 *   4.00000    1.000000    
     58 Si    c    0.884160 *  0.032495 *  0.864962 *   4.00000    1.000000    
     59 Si    c    0.150116 *  0.118296 *  0.529823 *   4.00000    1.000000    
     60 Si    c    0.970605 *  0.851188 *  0.196631 *   4.00000    1.000000    
     61 O2    c    0.930382 *  0.008546 *  0.000857 *   0.87073    1.000000    
     62 O2    c    0.002069 *  0.927242 *  0.330316 *   0.87073    1.000000    
     63 O2    c    0.065640 *  0.069902 *  0.664244 *   0.87073    1.000000    
     64 O2    c    0.074055 *  0.993963 *  0.498160 *   0.87073    1.000000    
     65 O2    c    0.999717 *  0.071639 *  0.830138 *   0.87073    1.000000    
     66 O2    c    0.930872 *  0.935403 *  0.165266 *   0.87073    1.000000    
     67 O2    c    0.339497 *  0.573655 *  0.328993 *   0.87073    1.000000    
     68 O2    c    0.439995 *  0.781056 *  0.656513 *   0.87073    1.000000    
     69 O2    c    0.234590 *  0.660890 *  0.995413 *   0.87073    1.000000    
     70 O2    c    0.656198 *  0.424869 *  0.833488 *   0.87073    1.000000    
     71 O2    c    0.581365 *  0.242126 *  0.171373 *   0.87073    1.000000    
     72 O2    c    0.757146 *  0.338017 *  0.499913 *   0.87073    1.000000    
     73 O3    c    0.567292 *  0.337234 *  0.998991 *   1.33043    1.000000    
     74 O2    c    0.753032 *  0.425096 *  0.666304 *   0.87073    1.000000    
     75 O2    c    0.661579 *  0.234131 *  0.335035 *   0.87073    1.000000    
     76 O2    c    0.418149 *  0.656353 *  0.494962 *   0.87073    1.000000    
     77 O2    c    0.235191 *  0.583064 *  0.162756 *   0.87073    1.000000    
     78 O3    c    0.341620 *  0.767695 *  0.829850 *   1.33043    1.000000    
     79 O2    c    0.127976 *  0.217211 *  0.971239 *   0.87073    1.000000    
     80 O2    c    0.786794 *  0.907921 *  0.304416 *   0.87073    1.000000    
     81 O2    c    0.088858 *  0.875363 *  0.636609 *   0.87073    1.000000    
     82 O2    c    0.873415 *  0.786654 *  0.469825 *   0.87073    1.000000    
     83 O2    c    0.212927 *  0.099354 *  0.804971 *   0.87073    1.000000    
     84 O2    c    0.908876 *  0.127422 *  0.135862 *   0.87073    1.000000    
     85 O2    c    0.215160 *  0.122350 *  0.358201 *   0.87073    1.000000    
     86 O2    c    0.917509 *  0.798054 *  0.024667 *   0.87073    1.000000    
     87 O2    c    0.878712 *  0.103954 *  0.692233 *   0.87073    1.000000    
     88 O2    c    0.784986 *  0.879843 *  0.858415 *   0.87073    1.000000    
     89 O2    c    0.086147 *  0.207175 *  0.520321 *   0.87073    1.000000    
     90 O2    c    0.125433 *  0.914426 *  0.193370 *   0.87073    1.000000    
     91 O2    c    0.928279 *  0.858418 *  0.247342 *   0.87073    1.000000    
     92 O2    c    0.136337 *  0.068512 *  0.580902 *   0.87073    1.000000    
     93 O2    c    0.939917 *  0.062214 *  0.915517 *   0.87073    1.000000    
     94 O2    c    0.070033 *  0.143309 *  0.746817 *   0.87073    1.000000    
     95 O2    c    0.856689 *  0.928270 *  0.082302 *   0.87073    1.000000    
     96 O2    c    0.068829 *  0.929517 *  0.414154 *   0.87073    1.000000    
     97 O2    c    0.903423 *  0.204539 *  0.974137 *   0.87073    1.000000    
     98 O2    c    0.798121 *  0.694730 *  0.310762 *   0.87073    1.000000    
     99 O2    c    0.298594 *  0.099040 *  0.645330 *   0.87073    1.000000    
    100 O2    c    0.092655 *  0.788134 *  0.476388 *   0.87073    1.000000    
    101 O2    c    0.199341 *  0.309638 *  0.810637 *   0.87073    1.000000    
    102 O2    c    0.696832 *  0.903516 *  0.145653 *   0.87073    1.000000    
    103 O2    c    0.203596 *  0.897096 *  0.352739 *   0.87073    1.000000    
    104 O2    c    0.697013 *  0.799481 *  0.017881 *   0.87073    1.000000    
    105 O3    c    0.107694 *  0.307949 *  0.682212 *   1.33043    1.000000    
    106 O2    c    0.813910 *  0.115243 *  0.854713 *   0.87073    1.000000    
    107 O2    c    0.302402 *  0.202429 *  0.518306 *   0.87073    1.000000    
    108 O2    c    0.901341 *  0.701408 *  0.182112 *   0.87073    1.000000    
    109 O2    c    0.319384 *  0.642753 *  0.246886 *   0.87073    1.000000    
    110 O2    c    0.352747 *  0.671372 *  0.578686 *   0.87073    1.000000    
    111 O2    c    0.322669 *  0.682748 *  0.913399 *   0.87073    1.000000    
    112 O2    c    0.671322 *  0.353241 *  0.750961 *   0.87073    1.000000    
    113 O3    c    0.616470 *  0.304679 *  0.086163 *   1.33043    1.000000    
    114 O2    c    0.678694 *  0.322200 *  0.416507 *   0.87073    1.000000    
    115 O2    c    0.371419 *  0.333333 *  0.968430 *   0.87073    1.000000    
    116 O2    c    0.670528 *  0.039057 *  0.304705 *   0.87073    1.000000    
    117 O2    c    0.958372 *  0.626005 *  0.635241 *   0.87073    1.000000    
    118 O2    c    0.625525 *  0.668830 *  0.467576 *   0.87073    1.000000    
    119 O3    c    0.315116 *  0.955400 *  0.805224 *   1.33043    1.000000    
    120 O2    c    0.037080 *  0.376604 *  0.131608 *   0.87073    1.000000    
    121 O2    c    0.331219 *  0.370704 *  0.359778 *   0.87073    1.000000    
    122 O2    c    0.035059 *  0.666945 *  0.024904 *   0.87073    1.000000    
    123 O2    c    0.631307 *  0.962621 *  0.696848 *   0.87073    1.000000    
    124 O2    c    0.667709 *  0.630711 *  0.861042 *   0.87073    1.000000    
    125 O2    c    0.949581 *  0.321897 *  0.529554 *   0.87073    1.000000    
    126 O2    c    0.374441 *  0.044402 *  0.197022 *   0.87073    1.000000    
    127 O3    c    0.757417 *  0.286257 *  0.002984 *   1.33043    1.000000    
    128 O2    c    0.698897 *  0.464637 *  0.342945 *   0.87073    1.000000    
    129 O2    c    0.526619 *  0.230168 *  0.680086 *   0.87073    1.000000    
    130 O2    c    0.225831 *  0.691411 *  0.509296 *   0.87073    1.000000    
    131 O2    c    0.301455 *  0.538278 *  0.841622 *   0.87073    1.000000    
    132 O2    c    0.465021 *  0.773094 *  0.175600 *   0.87073    1.000000    
    133 O2    c    0.301285 *  0.764670 *  0.320819 *   0.87073    1.000000    
    134 O2    c    0.465277 *  0.700002 *  0.986805 *   0.87073    1.000000    
    135 O3    c    0.248288 *  0.546392 *  0.655754 *   1.33043    1.000000    
    136 O2    c    0.696872 *  0.233287 *  0.822355 *   0.87073    1.000000    
    137 O2    c    0.532407 *  0.304476 *  0.488124 *   0.87073    1.000000    
    138 O2    c    0.764839 *  0.467901 *  0.151703 *   0.87073    1.000000    
    139 O3    c    0.774530 *  0.547113 *  0.019744 *   1.33043    1.000000    
    140 O2    c    0.467244 *  0.248360 *  0.360345 *   0.87073    1.000000    
    141 O2    c    0.736881 *  0.214593 *  0.697953 *   0.87073    1.000000    
    142 O2    c    0.207394 *  0.461252 *  0.525168 *   0.87073    1.000000    
    143 O2    c    0.533456 *  0.753851 *  0.858217 *   0.87073    1.000000    
    144 O2    c    0.246588 *  0.784946 *  0.193686 *   0.87073    1.000000    
    145 O2    c    0.533423 *  0.779900 *  0.303219 *   0.87073    1.000000    
    146 O2    c    0.246982 *  0.468859 *  0.969040 *   0.87073    1.000000    
    147 O2    c    0.216453 *  0.746190 *  0.634125 *   0.87073    1.000000    
    148 O2    c    0.464998 *  0.210296 *  0.804297 *   0.87073    1.000000    
    149 O2    c    0.752275 *  0.535699 *  0.470440 *   0.87073    1.000000    
    150 O2    c    0.781482 *  0.253588 *  0.134732 *   0.87073    1.000000    
    151 O2    c    0.227512 *  0.327013 *  0.895586 *   0.87073    1.000000    
    152 O2    c    0.676023 *  0.908011 *  0.230456 *   0.87073    1.000000    
    153 O2    c    0.091292 *  0.761242 *  0.562800 *   0.87073    1.000000    
    154 O2    c    0.769233 *  0.675964 *  0.395487 *   0.87073    1.000000    
    155 O2    c    0.319687 *  0.086672 *  0.731248 *   0.87073    1.000000    
    156 O2    c    0.899929 *  0.233494 *  0.060584 *   0.87073    1.000000    
    157 O2    c    0.323230 *  0.229692 *  0.433077 *   0.87073    1.000000    
    158 O2    c    0.897926 *  0.671063 *  0.096084 *   0.87073    1.000000    
    159 O2    c    0.768225 *  0.096763 *  0.769514 *   0.87073    1.000000    
    160 O2    c    0.675035 *  0.772021 *  0.933152 *   0.87073    1.000000    
    161 O3    c    0.091375 *  0.304241 *  0.596891 *   1.33043    1.000000    
    162 O2    c    0.231120 *  0.907083 *  0.268332 *   0.87073    1.000000    
    163 O2    c    0.584941 *  0.561450 *  0.989582 *   0.87073    1.000000    
    164 O2    c    0.441868 *  0.023574 *  0.324925 *   0.87073    1.000000    
    165 O3    c    0.955290 *  0.406519 *  0.660475 *   1.33043    1.000000    
    166 O2    c    0.409325 *  0.439773 *  0.487329 *   0.87073    1.000000    
    167 O3    c    0.574849 *  0.975115 *  0.829818 *   1.33043    1.000000    
    168 O2    c    0.019913 *  0.584616 *  0.149492 *   0.87073    1.000000    
    169 O2    c    0.559815 *  0.584244 *  0.339485 *   0.87073    1.000000    
    170 O2    c    0.015997 *  0.440749 *  0.005985 *   0.87073    1.000000    
    171 O2    c    0.415261 *  0.975859 *  0.676274 *   0.87073    1.000000    
    172 O2    c    0.437738 *  0.414758 *  0.841438 *   0.87073    1.000000    
    173 O2    c    0.973001 *  0.551566 *  0.511596 *   0.87073    1.000000    
    174 O2    c    0.588929 *  0.031866 *  0.176857 *   0.87073    1.000000    
    175 O2    c    0.583994 *  0.163825 *  0.252157 *   0.87073    1.000000    
    176 O2    c    0.832940 *  0.413485 *  0.583753 *   0.87073    1.000000    
    177 O2    c    0.582301 *  0.421577 *  0.915799 *   0.87073    1.000000    
    178 O3    c    0.413206 *  0.817797 *  0.742975 *   1.33043    1.000000    
    179 O2    c    0.154916 *  0.580947 *  0.078206 *   0.87073    1.000000    
    180 O2    c    0.417714 *  0.581666 *  0.412321 *   0.87073    1.000000    
    181 F     c    0.450350 *  0.901991 *  0.250022 *   0.56000    1.000000    
    182 F     c    0.091561 *  0.515492 *  0.591769 *   0.56000    1.000000    
    183 F     c    0.450802 *  0.549772 *  0.915122 *   0.56000    1.000000    
    184 F     c    0.523187 *  0.055141 *  0.758402 *   0.56000    1.000000    
    185 F     c    0.854053 *  0.435189 *  0.070835 *   0.56000    1.000000    
    186 F     c    0.550072 *  0.453117 *  0.415235 *   0.56000    1.000000    
    187 O2    s    0.925955 *  0.007097 *  0.000237 *  -2.87073    1.000000    
    188 O2    s    0.001854 *  0.922819 *  0.330466 *  -2.87073    1.000000    
    189 O2    s    0.071642 *  0.074648 *  0.663789 *  -2.87073    1.000000    
    190 O2    s    0.077292 *  0.994240 *  0.497837 *  -2.87073    1.000000    
    191 O2    s    0.000085 *  0.076938 *  0.830471 *  -2.87073    1.000000    
    192 O2    s    0.926248 *  0.930121 *  0.165138 *  -2.87073    1.000000    
    193 O2    s    0.351423 *  0.581651 *  0.329154 *  -2.87073    1.000000    
    194 O2    s    0.429303 *  0.781112 *  0.657694 *  -2.87073    1.000000    
    195 O2    s    0.229691 *  0.649121 *  0.995532 *  -2.87073    1.000000    
    196 O2    s    0.644588 *  0.416500 *  0.833275 *  -2.87073    1.000000    
    197 O2    s    0.587131 *  0.236109 *  0.170621 *  -2.87073    1.000000    
    198 O2    s    0.761899 *  0.349777 *  0.499915 *  -2.87073    1.000000    
    199 O3    s    0.573517 *  0.348610 *  0.998378 *  -3.33043    1.000000    
    200 O2    s    0.757382 *  0.416936 *  0.666726 *  -2.87073    1.000000    
    201 O2    s    0.649683 *  0.230298 *  0.334892 *  -2.87073    1.000000    
    202 O2    s    0.410689 *  0.644399 *  0.495267 *  -2.87073    1.000000    
    203 O2    s    0.230921 *  0.590012 *  0.162797 *  -2.87073    1.000000    
    204 O3    s    0.351681 *  0.768204 *  0.830944 *  -3.33043    1.000000    
    205 O2    s    0.123867 *  0.220111 *  0.968386 *  -2.87073    1.000000    
    206 O2    s    0.783410 *  0.901391 *  0.301749 *  -2.87073    1.000000    
    207 O2    s    0.095009 *  0.877936 *  0.634154 *  -2.87073    1.000000    
    208 O2    s    0.877009 *  0.782929 *  0.467197 *  -2.87073    1.000000    
    209 O2    s    0.215760 *  0.104470 *  0.802171 *  -2.87073    1.000000    
    210 O2    s    0.901963 *  0.123856 *  0.133297 *  -2.87073    1.000000    
    211 O2    s    0.218403 *  0.119063 *  0.360886 *  -2.87073    1.000000    
    212 O2    s    0.908368 *  0.793174 *  0.026933 *  -2.87073    1.000000    
    213 O2    s    0.880862 *  0.108887 *  0.695019 *  -2.87073    1.000000    
    214 O2    s    0.782485 *  0.883159 *  0.861162 *  -2.87073    1.000000    
    215 O2    s    0.092670 *  0.209965 *  0.523668 *  -2.87073    1.000000    
    216 O2    s    0.121904 *  0.907417 *  0.195829 *  -2.87073    1.000000    
    217 O2    s    0.927367 *  0.856235 *  0.247448 *  -2.87073    1.000000    
    218 O2    s    0.139036 *  0.069865 *  0.580790 *  -2.87073    1.000000    
    219 O2    s    0.937581 *  0.065790 *  0.915396 *  -2.87073    1.000000    
    220 O2    s    0.071822 *  0.147080 *  0.747051 *  -2.87073    1.000000    
    221 O2    s    0.854695 *  0.928438 *  0.082463 *  -2.87073    1.000000    
    222 O2    s    0.070184 *  0.927635 *  0.414218 *  -2.87073    1.000000    
    223 O2    s    0.909997 *  0.205333 *  0.977080 *  -2.87073    1.000000    
    224 O2    s    0.796514 *  0.700983 *  0.313389 *  -2.87073    1.000000    
    225 O2    s    0.292166 *  0.091354 *  0.647965 *  -2.87073    1.000000    
    226 O2    s    0.086036 *  0.787312 *  0.479321 *  -2.87073    1.000000    
    227 O2    s    0.200892 *  0.302986 *  0.813179 *  -2.87073    1.000000    
    228 O2    s    0.702803 *  0.911011 *  0.148233 *  -2.87073    1.000000    
    229 O2    s    0.204938 *  0.904831 *  0.350005 *  -2.87073    1.000000    
    230 O2    s    0.703461 *  0.798436 *  0.015409 *  -2.87073    1.000000    
    231 O3    s    0.098754 *  0.298598 *  0.680896 *  -3.33043    1.000000    
    232 O2    s    0.810347 *  0.105369 *  0.852106 *  -2.87073    1.000000    
    233 O2    s    0.296092 *  0.203702 *  0.515522 *  -2.87073    1.000000    
    234 O2    s    0.908242 *  0.707414 *  0.179690 *  -2.87073    1.000000    
    235 O2    s    0.325320 *  0.654561 *  0.246901 *  -2.87073    1.000000    
    236 O2    s    0.342469 *  0.666413 *  0.578422 *  -2.87073    1.000000    
    237 O2    s    0.327917 *  0.676871 *  0.913656 *  -2.87073    1.000000    
    238 O2    s    0.666216 *  0.342795 *  0.750710 *  -2.87073    1.000000    
    239 O3    s    0.629558 *  0.310883 *  0.087417 *  -3.33043    1.000000    
    240 O2    s    0.672736 *  0.327992 *  0.416421 *  -2.87073    1.000000    
    241 O2    s    0.374254 *  0.343397 *  0.966204 *  -2.87073    1.000000    
    242 O2    s    0.660528 *  0.032590 *  0.302403 *  -2.87073    1.000000    
    243 O2    s    0.964481 *  0.623094 *  0.633385 *  -2.87073    1.000000    
    244 O2    s    0.622206 *  0.658655 *  0.465264 *  -2.87073    1.000000    
    245 O3    s    0.324700 *  0.966233 *  0.802477 *  -3.33043    1.000000    
    246 O2    s    0.031089 *  0.379936 *  0.129657 *  -2.87073    1.000000    
    247 O2    s    0.341173 *  0.374034 *  0.361994 *  -2.87073    1.000000    
    248 O2    s    0.029240 *  0.657459 *  0.026642 *  -2.87073    1.000000    
    249 O2    s    0.628310 *  0.969131 *  0.698761 *  -2.87073    1.000000    
    250 O2    s    0.657508 *  0.627226 *  0.863308 *  -2.87073    1.000000    
    251 O2    s    0.955965 *  0.331666 *  0.531414 *  -2.87073    1.000000    
    252 O2    s    0.377223 *  0.037250 *  0.199280 *  -2.87073    1.000000    
    253 O3    s    0.767796 *  0.293254 *  0.006042 *  -3.33043    1.000000    
    254 O2    s    0.691154 *  0.463997 *  0.346000 *  -2.87073    1.000000    
    255 O2    s    0.527806 *  0.223661 *  0.682700 *  -2.87073    1.000000    
    256 O2    s    0.219051 *  0.684041 *  0.512005 *  -2.87073    1.000000    
    257 O2    s    0.308658 *  0.538270 *  0.844550 *  -2.87073    1.000000    
    258 O2    s    0.464223 *  0.779576 *  0.178732 *  -2.87073    1.000000    
    259 O2    s    0.309064 *  0.772087 *  0.317708 *  -2.87073    1.000000    
    260 O2    s    0.464600 *  0.692411 *  0.983613 *  -2.87073    1.000000    
    261 O3    s    0.243772 *  0.550765 *  0.651982 *  -3.33043    1.000000    
    262 O2    s    0.689623 *  0.227158 *  0.819803 *  -2.87073    1.000000    
    263 O2    s    0.533040 *  0.311876 *  0.484905 *  -2.87073    1.000000    
    264 O2    s    0.771548 *  0.467797 *  0.148912 *  -2.87073    1.000000    
    265 O3    s    0.783971 *  0.548846 *  0.022888 *  -3.33043    1.000000    
    266 O2    s    0.469884 *  0.256140 *  0.362885 *  -2.87073    1.000000    
    267 O2    s    0.731388 *  0.211482 *  0.700029 *  -2.87073    1.000000    
    268 O2    s    0.204317 *  0.464228 *  0.527509 *  -2.87073    1.000000    
    269 O2    s    0.531515 *  0.746721 *  0.860850 *  -2.87073    1.000000    
    270 O2    s    0.254761 *  0.789969 *  0.196174 *  -2.87073    1.000000    
    271 O2    s    0.530884 *  0.785465 *  0.300646 *  -2.87073    1.000000    
    272 O2    s    0.255323 *  0.471887 *  0.966429 *  -2.87073    1.000000    
    273 O2    s    0.211442 *  0.740209 *  0.631955 *  -2.87073    1.000000    
    274 O2    s    0.468172 *  0.207331 *  0.802253 *  -2.87073    1.000000    
    275 O2    s    0.743862 *  0.532631 *  0.467826 *  -2.87073    1.000000    
    276 O2    s    0.785851 *  0.259854 *  0.132355 *  -2.87073    1.000000    
    277 O2    s    0.237355 *  0.336854 *  0.896513 *  -2.87073    1.000000    
    278 O2    s    0.666460 *  0.907699 *  0.231390 *  -2.87073    1.000000    
    279 O2    s    0.091520 *  0.752938 *  0.563485 *  -2.87073    1.000000    
    280 O2    s    0.759665 *  0.666101 *  0.396419 *  -2.87073    1.000000    
    281 O2    s    0.328722 *  0.087462 *  0.731662 *  -2.87073    1.000000    
    282 O2    s    0.899607 *  0.241453 *  0.061711 *  -2.87073    1.000000    
    283 O2    s    0.332828 *  0.239130 *  0.432177 *  -2.87073    1.000000    
    284 O2    s    0.897994 *  0.662414 *  0.095925 *  -2.87073    1.000000    
    285 O2    s    0.760410 *  0.097104 *  0.768388 *  -2.87073    1.000000    
    286 O2    s    0.665371 *  0.762639 *  0.932279 *  -2.87073    1.000000    
    287 O3    s    0.091036 *  0.314057 *  0.594265 *  -3.33043    1.000000    
    288 O2    s    0.240488 *  0.906768 *  0.267393 *  -2.87073    1.000000    
    289 O2    s    0.580565 *  0.562127 *  0.986155 *  -2.87073    1.000000    
    290 O2    s    0.441694 *  0.018978 *  0.321455 *  -2.87073    1.000000    
    291 O3    s    0.957944 *  0.413409 *  0.656446 *  -3.33043    1.000000    
    292 O2    s    0.414382 *  0.439575 *  0.484011 *  -2.87073    1.000000    
    293 O3    s    0.579270 *  0.984380 *  0.826197 *  -3.33043    1.000000    
    294 O2    s    0.016326 *  0.580943 *  0.146692 *  -2.87073    1.000000    
    295 O2    s    0.559971 *  0.579698 *  0.342885 *  -2.87073    1.000000    
    296 O2    s    0.012857 *  0.441239 *  0.008790 *  -2.87073    1.000000    
    297 O2    s    0.418536 *  0.980445 *  0.679163 *  -2.87073    1.000000    
    298 O2    s    0.437791 *  0.419951 *  0.844753 *  -2.87073    1.000000    
    299 O2    s    0.976920 *  0.552435 *  0.514326 *  -2.87073    1.000000    
    300 O2    s    0.584096 *  0.026392 *  0.180165 *  -2.87073    1.000000    
    301 O2    s    0.578379 *  0.152585 *  0.252181 *  -2.87073    1.000000    
    302 O2    s    0.842836 *  0.418416 *  0.583493 *  -2.87073    1.000000    
    303 O2    s    0.576583 *  0.426967 *  0.915634 *  -2.87073    1.000000    
    304 O3    s    0.420733 *  0.830765 *  0.741425 *  -3.33043    1.000000    
    305 O2    s    0.145351 *  0.576007 *  0.078541 *  -2.87073    1.000000    
    306 O2    s    0.423107 *  0.575959 *  0.412441 *  -2.87073    1.000000    
    307 F     s    0.449993 *  0.901495 *  0.250109 *  -1.56000    1.000000    
    308 F     s    0.091783 *  0.509078 *  0.594617 *  -1.56000    1.000000    
    309 F     s    0.450680 *  0.549676 *  0.915218 *  -1.56000    1.000000    
    310 F     s    0.517214 *  0.045159 *  0.760718 *  -1.56000    1.000000    
    311 F     s    0.844933 *  0.431617 *  0.068921 *  -1.56000    1.000000    
    312 F     s    0.550460 *  0.453197 *  0.415336 *  -1.56000    1.000000    
--------------------------------------------------------------------------------



********************************************************************************
*  General input information                                                   *
********************************************************************************

  Species output for all configurations : 

--------------------------------------------------------------------------------
  Species    Type    Atomic    Atomic    Charge       Radii (Angs)     Library
                     Number     Mass       (e)     Cova   Ionic  VDW   Symbol
--------------------------------------------------------------------------------
    Si       Core       14      28.09   4.000000   1.200  0.000  2.100          
    O1       Core        8      16.00   1.733957   0.730  0.000  1.360          
    O1       Shell       8       0.00  -3.733957   0.730  0.000  1.360          
    O2       Core        8      16.00   0.870733   0.730  0.000  1.360          
    O2       Shell       8       0.00  -2.870733   0.730  0.000  1.360          
    O3       Core        8      16.00   1.330431   0.730  0.000  1.360          
    O3       Shell       8       0.00  -3.330431   0.730  0.000  1.360          
    F        Core        9      19.00   0.560000   0.710  0.000  1.300          
    F        Shell       9       0.00  -1.560000   0.710  0.000  1.300          
    Ge       Core       32      72.61   4.000000   1.170  0.000  1.750          
--------------------------------------------------------------------------------


  Lattice summation method               =    Ewald          (3-D)
                                         =    Parry          (2-D)
                                         =    Saunders et al (1-D)
  Accuracy factor for lattice sums       =   12.000


  Time limit = Infinity

  Maximum range for interatomic potentials =        16.000000 Angstroms

  Taper potentials to zero over   1.0000 Angstroms using polynomial

  General interatomic potentials :

--------------------------------------------------------------------------------
Atom  Types   Potential         A         B         C         D     Cutoffs(Ang)
  1     2                                                            Min    Max 
--------------------------------------------------------------------------------
Si   c O1   s Buckingham    0.132E+04 0.318      10.1      0.00     0.000 16.000
Si   c O2   s Buckingham    0.132E+04 0.318      10.1      0.00     0.000 16.000
Si   c O3   s Buckingham    0.132E+04 0.318      10.1      0.00     0.000 16.000
Ge   c O1   s Buckingham    0.150E+04 0.326      16.8      0.00     0.000 16.000
Ge   c O2   s Buckingham    0.150E+04 0.326      16.8      0.00     0.000 16.000
Ge   c O3   s Buckingham    0.150E+04 0.326      16.8      0.00     0.000 16.000
O1   s O1   s Buckingham    0.228E+05 0.149      10.9      0.00     0.000 16.000
O1   s O2   s Buckingham    0.228E+05 0.149      10.9      0.00     0.000 16.000
O1   s O3   s Buckingham    0.228E+05 0.149      10.9      0.00     0.000 16.000
O2   s O2   s Buckingham    0.228E+05 0.149      10.9      0.00     0.000 16.000
O2   s O3   s Buckingham    0.228E+05 0.149      10.9      0.00     0.000 16.000
O3   s O3   s Buckingham    0.228E+05 0.149      10.9      0.00     0.000 16.000
Si   c F    s Buckingham     977.     0.282      0.00      0.00     0.000 16.000
Ge   c F    s Buckingham     681.     0.320      0.00      0.00     0.000 16.000
F    s F    s Buckingham     540.     0.262      0.00      0.00     0.000 16.000
O1   s F    s Buckingham    0.168E+04 0.268      0.00      0.00     0.000 16.000
O2   s F    s Buckingham    0.168E+04 0.268      0.00      0.00     0.000 16.000
O3   s F    s Buckingham    0.168E+04 0.268      0.00      0.00     0.000 16.000
O2   c O2   s Spring (c-s)   76.0      0.00      0.00      0.00     0.000  0.800
O3   c O3   s Spring (c-s)   128.      0.00      0.00      0.00     0.000  0.800
O1   c O1   s Spring (c-s)   180.      0.00      0.00      0.00     0.000  0.800
F    c F    s Spring (c-s)   33.5      0.00      0.00      0.00     0.000  0.800
--------------------------------------------------------------------------------

  General Three-body potentials :

  Harmonic form:

--------------------------------------------------------------------------------
Atom    Atom    Atom           Force Constants            Theta     Cutoffs  
  1       2       3     (eVrad**-2/eVrad**-3/eVrad**-4)   (deg)  1-2  1-3  2-3
--------------------------------------------------------------------------------
Si    c O1    s O1    s  1.261        0.0000    0.0000   109.470 0.00 0.00 0.00
                                                                 1.90 1.90 3.50
Si    c O1    s O2    s  1.261        0.0000    0.0000   109.470 0.00 0.00 0.00
                                                                 1.90 1.90 3.50
Si    c O2    s O2    s  1.261        0.0000    0.0000   109.470 0.00 0.00 0.00
                                                                 1.90 1.90 3.50
--------------------------------------------------------------------------------

********************************************************************************
*  Output for configuration   1                                                *
********************************************************************************


  Components of energy : 

--------------------------------------------------------------------------------
  Interatomic potentials     =        2066.85128105 eV
  Three-body potentials      =           0.47440519 eV
  Monopole - monopole (real) =       -6615.62171984 eV
  Monopole - monopole (recip)=       -3172.51068252 eV
  Monopole - monopole (total)=       -9788.13240237 eV
  Neutralising energy        =          -6.46242336 eV
--------------------------------------------------------------------------------
  Total lattice energy       =       -7727.26913948 eV
--------------------------------------------------------------------------------
  Total lattice energy       =         -745563.3498 kJ/(mole unit cells)
--------------------------------------------------------------------------------


  Number of variables =      939

  Maximum number of calculations  =          5000
  Maximum Hessian update interval =            10
  Maximum step size               =   0.100000000
  Maximum parameter tolerance     =   0.000010000
  Maximum function  tolerance     =   0.000010000
  Maximum gradient  tolerance     =   0.001000000
  Maximum gradient  component     =   0.010000000

  Symmetry not applied to optimisation

  Cell parameters to be optimised using strains

  Newton-Raphson optimiser to be used

  BFGS hessian update to be used

  Dumpfile to be written after every cycle

  Start of bulk optimisation :

  Cycle:      0 Energy:     -7727.269139  Gnorm:      0.010740  CPU:    2.013
  ** Hessian calculated **
  Cycle:      1 Energy:     -7727.300418  Gnorm:      0.009792  CPU:    6.613
  Cycle:      2 Energy:     -7727.346606  Gnorm:      0.008130  CPU:   11.523
  Cycle:      3 Energy:     -7727.392858  Gnorm:      0.006014  CPU:   15.748
  Cycle:      4 Energy:     -7727.431448  Gnorm:      0.003487  CPU:   19.973
  Cycle:      5 Energy:     -7727.441312  Gnorm:      0.002037  CPU:   24.198
  Cycle:      6 Energy:     -7727.443702  Gnorm:      0.001127  CPU:   28.423
  Cycle:      7 Energy:     -7727.444300  Gnorm:      0.000590  CPU:   32.648
  Cycle:      8 Energy:     -7727.444450  Gnorm:      0.000316  CPU:   36.873
  Cycle:      9 Energy:     -7727.444476  Gnorm:      0.000214  CPU:   39.726
  Cycle:     10 Energy:     -7727.444488  Gnorm:      0.000154  CPU:   42.580
  ** Hessian calculated **
  Cycle:     11 Energy:     -7727.444489  Gnorm:      0.000083  CPU:   47.125
  Cycle:     12 Energy:     -7727.444489  Gnorm:      0.000062  CPU:   49.979
  Cycle:     13 Energy:     -7727.444489  Gnorm:      0.000047  CPU:   52.832
  Cycle:     14 Energy:     -7727.444489  Gnorm:      0.000038  CPU:   55.685
  Cycle:     15 Energy:     -7727.444489  Gnorm:      0.000034  CPU:   58.539


  **** Optimisation achieved ****


  Final energy =   -7727.44448885 eV
  Final Gnorm  =       0.00003268

  Components of energy : 

--------------------------------------------------------------------------------
  Interatomic potentials     =        2067.44556124 eV
  Three-body potentials      =           0.48287583 eV
  Monopole - monopole (real) =       -6616.79299082 eV
  Monopole - monopole (recip)=       -3172.11830382 eV
  Monopole - monopole (total)=       -9788.91129465 eV
  Neutralising energy        =          -6.46163127 eV
--------------------------------------------------------------------------------
  Total lattice energy       =       -7727.44448885 eV
--------------------------------------------------------------------------------
  Total lattice energy       =         -745580.2684 kJ/(mole unit cells)
--------------------------------------------------------------------------------

  Final fractional coordinates of atoms :

--------------------------------------------------------------------------------
   No.  Atomic        x           y          z          Radius
        Label       (Frac)      (Frac)     (Frac)       (Angs) 
--------------------------------------------------------------------------------
     1  Ge    c     0.699600    0.375700    0.033890    0.000000
     2  Si    c     0.594373    0.295195    0.365759    0.000000
     3  Si    c     0.648611    0.286225    0.699568    0.000000
     4  Si    c     0.268804    0.591353    0.527748    0.000000
     5  Si    c     0.361216    0.672488    0.861007    0.000000
     6  Si    c     0.298494    0.686570    0.196277    0.000000
     7  Si    c     0.350022    0.675052    0.296769    0.000000
     8  Si    c     0.309309    0.614678    0.962524    0.000000
     9  Si    c     0.287430    0.663219    0.629550    0.000000
    10  Si    c     0.600224    0.286825    0.802041    0.000000
    11  Si    c     0.645871    0.352800    0.466478    0.000000
    12  Si    c     0.668961    0.303533    0.132396    0.000000
    13  Si    c     0.520161    0.412099    0.967367    0.000000
    14  Si    c     0.556595    0.083885    0.302525    0.000000
    15  Si    c     0.859369    0.448721    0.635583    0.000000
    16  Si    c     0.438111    0.552794    0.462254    0.000000
    17  Ge    c     0.414841    0.892812    0.794028    0.000000
    18  Si    c     0.090019    0.517631    0.129061    0.000000
    19  Si    c     0.387965    0.499405    0.360421    0.000000
    20  Si    c     0.094043    0.574873    0.025777    0.000000
    21  Si    c     0.453851    0.871755    0.694715    0.000000
    22  Si    c     0.565727    0.464758    0.864879    0.000000
    23  Si    c     0.853653    0.385236    0.532968    0.000000
    24  Si    c     0.507404    0.094875    0.200787    0.000000
    25  Si    c     0.285334    0.392783    0.848651    0.000000
    26  Si    c     0.578695    0.887628    0.183577    0.000000
    27  Si    c     0.065452    0.670019    0.515350    0.000000
    28  Si    c     0.669611    0.571733    0.348185    0.000000
    29  Si    c     0.369825    0.077798    0.683740    0.000000
    30  Si    c     0.880922    0.286821    0.010227    0.000000
    31  Si    c     0.366439    0.273469    0.478769    0.000000
    32  Si    c     0.876182    0.588254    0.142650    0.000000
    33  Si    c     0.687720    0.088810    0.817819    0.000000
    34  Si    c     0.586651    0.692214    0.978250    0.000000
    35  Ge    c     0.075915    0.392777    0.639772    0.000000
    36  Si    c     0.274683    0.874722    0.314207    0.000000
    37  Si    c     0.241594    0.336233    0.949553    0.000000
    38  Si    c     0.632524    0.883768    0.284714    0.000000
    39  Si    c     0.067406    0.729796    0.616990    0.000000
    40  Si    c     0.717265    0.631800    0.448968    0.000000
    41  Si    c     0.312834    0.071090    0.786299    0.000000
    42  Si    c     0.884885    0.236365    0.113778    0.000000
    43  Si    c     0.311946    0.221673    0.377687    0.000000
    44  Si    c     0.892892    0.657922    0.040092    0.000000
    45  Si    c     0.732507    0.080465    0.714353    0.000000
    46  Si    c     0.642851    0.743023    0.877255    0.000000
    47  Si    c     0.056361    0.304109    0.544177    0.000000
    48  Si    c     0.226515    0.893292    0.213489    0.000000
    49  Si    c     0.964883    0.115722    0.964237    0.000000
    50  Si    c     0.849827    0.820202    0.297859    0.000000
    51  Si    c     0.121714    0.008820    0.632137    0.000000
    52  Si    c     0.996926    0.849177    0.464047    0.000000
    53  Si    c     0.104420    0.146640    0.797335    0.000000
    54  Si    c     0.826778    0.958862    0.132003    0.000000
    55  Si    c     0.094240    0.941411    0.363233    0.000000
    56  Si    c     0.834676    0.875550    0.030316    0.000000
    57  Si    c     0.014040    0.145244    0.695201    0.000000
    58  Si    c     0.868771    0.021663    0.864550    0.000000
    59  Si    c     0.119151    0.092122    0.529225    0.000000
    60  Si    c     0.947192    0.833808    0.196486    0.000000
    61  O2    c     0.918369    0.003761    0.001515    0.000000
    62  O2    c     0.972813    0.898741    0.330259    0.000000
    63  O2    c     0.040885    0.048172    0.664512    0.000000
    64  O2    c     0.041136    0.966925    0.498084    0.000000
    65  O2    c     0.984777    0.062622    0.830008    0.000000
    66  O2    c     0.908784    0.920405    0.165662    0.000000
    67  O2    c     0.311002    0.547538    0.327552    0.000000
    68  O2    c     0.418921    0.765185    0.654934    0.000000
    69  O2    c     0.221539    0.650611    0.994955    0.000000
    70  O2    c     0.639561    0.411399    0.832930    0.000000
    71  O2    c     0.560207    0.224803    0.170863    0.000000
    72  O2    c     0.727350    0.313232    0.500688    0.000000
    73  O3    c     0.563441    0.335057    0.999412    0.000000
    74  O2    c     0.731114    0.408081    0.666013    0.000000
    75  O2    c     0.633540    0.207852    0.335517    0.000000
    76  O2    c     0.387555    0.629328    0.493434    0.000000
    77  O2    c     0.214062    0.566671    0.162252    0.000000
    78  O3    c     0.325373    0.754350    0.828700    0.000000
    79  O2    c     0.117934    0.207481    0.970409    0.000000
    80  O2    c     0.758145    0.881542    0.304643    0.000000
    81  O2    c     0.065728    0.854409    0.636458    0.000000
    82  O2    c     0.842461    0.760100    0.468778    0.000000
    83  O2    c     0.195116    0.085337    0.804646    0.000000
    84  O2    c     0.887740    0.113069    0.135513    0.000000
    85  O2    c     0.186738    0.095228    0.357060    0.000000
    86  O2    c     0.908155    0.795044    0.024768    0.000000
    87  O2    c     0.858975    0.090087    0.691671    0.000000
    88  O2    c     0.770275    0.869552    0.857308    0.000000
    89  O2    c     0.056083    0.181890    0.519901    0.000000
    90  O2    c     0.102014    0.897463    0.193499    0.000000
    91  O2    c     0.901031    0.835980    0.247089    0.000000
    92  O2    c     0.106750    0.043951    0.580612    0.000000
    93  O2    c     0.925882    0.050739    0.915184    0.000000
    94  O2    c     0.051990    0.129609    0.746425    0.000000
    95  O2    c     0.837722    0.916070    0.082256    0.000000
    96  O2    c     0.040483    0.905030    0.413945    0.000000
    97  O2    c     0.895495    0.198984    0.972265    0.000000
    98  O2    c     0.768483    0.667956    0.309693    0.000000
    99  O2    c     0.273671    0.079414    0.644729    0.000000
   100  O2    c     0.061913    0.762281    0.475791    0.000000
   101  O2    c     0.185965    0.297765    0.809771    0.000000
   102  O2    c     0.675739    0.889063    0.145293    0.000000
   103  O2    c     0.175491    0.870673    0.352599    0.000000
   104  O2    c     0.684919    0.792901    0.016248    0.000000
   105  O3    c     0.089586    0.290120    0.680963    0.000000
   106  O2    c     0.797373    0.103364    0.854319    0.000000
   107  O2    c     0.270991    0.174704    0.517254    0.000000
   108  O2    c     0.879103    0.685082    0.181430    0.000000
   109  O2    c     0.295031    0.622566    0.245809    0.000000
   110  O2    c     0.327163    0.648932    0.577428    0.000000
   111  O2    c     0.307593    0.671136    0.912448    0.000000
   112  O2    c     0.648415    0.336539    0.750230    0.000000
   113  O3    c     0.604826    0.296971    0.084719    0.000000
   114  O2    c     0.649195    0.295965    0.416739    0.000000
   115  O2    c     0.362473    0.326478    0.968591    0.000000
   116  O2    c     0.643324    0.014512    0.304690    0.000000
   117  O2    c     0.936261    0.605898    0.635093    0.000000
   118  O2    c     0.594308    0.640886    0.466561    0.000000
   119  O3    c     0.297399    0.940910    0.804892    0.000000
   120  O2    c     0.016549    0.361890    0.131212    0.000000
   121  O2    c     0.301452    0.343028    0.358286    0.000000
   122  O2    c     0.026207    0.662564    0.025199    0.000000
   123  O2    c     0.611548    0.947994    0.695530    0.000000
   124  O2    c     0.653925    0.620552    0.859837    0.000000
   125  O2    c     0.921464    0.298003    0.529321    0.000000
   126  O2    c     0.351042    0.026134    0.196512    0.000000
   127  O3    c     0.748020    0.280397    0.001756    0.000000
   128  O2    c     0.669989    0.437721    0.342440    0.000000
   129  O2    c     0.503744    0.213468    0.678923    0.000000
   130  O2    c     0.196229    0.665512    0.508327    0.000000
   131  O2    c     0.286456    0.526100    0.840637    0.000000
   132  O2    c     0.442303    0.756521    0.174514    0.000000
   133  O2    c     0.273457    0.739611    0.320208    0.000000
   134  O2    c     0.452009    0.691378    0.985963    0.000000
   135  O3    c     0.227278    0.528532    0.655060    0.000000
   136  O2    c     0.678880    0.219673    0.821792    0.000000
   137  O2    c     0.501968    0.277878    0.488005    0.000000
   138  O2    c     0.745154    0.452809    0.151145    0.000000
   139  O3    c     0.769127    0.544145    0.017818    0.000000
   140  O2    c     0.438504    0.221588    0.359594    0.000000
   141  O2    c     0.714567    0.198424    0.697100    0.000000
   142  O2    c     0.179005    0.436403    0.524706    0.000000
   143  O2    c     0.518335    0.742203    0.856495    0.000000
   144  O2    c     0.223389    0.767552    0.192688    0.000000
   145  O2    c     0.506062    0.755901    0.303137    0.000000
   146  O2    c     0.234852    0.458783    0.968760    0.000000
   147  O2    c     0.194312    0.726987    0.633024    0.000000
   148  O2    c     0.446006    0.195130    0.804431    0.000000
   149  O2    c     0.721452    0.509197    0.470197    0.000000
   150  O2    c     0.761381    0.238994    0.133277    0.000000
   151  O2    c     0.216490    0.317175    0.895269    0.000000
   152  O2    c     0.650414    0.886353    0.230320    0.000000
   153  O2    c     0.064989    0.738278    0.562123    0.000000
   154  O2    c     0.738197    0.648168    0.394606    0.000000
   155  O2    c     0.299951    0.070584    0.730862    0.000000
   156  O2    c     0.884508    0.222903    0.059446    0.000000
   157  O2    c     0.293605    0.202615    0.432097    0.000000
   158  O2    c     0.879785    0.658414    0.095563    0.000000
   159  O2    c     0.748510    0.082136    0.768778    0.000000
   160  O2    c     0.660732    0.762961    0.931756    0.000000
   161  O3    c     0.065266    0.282224    0.596666    0.000000
   162  O2    c     0.206423    0.885886    0.267961    0.000000
   163  O2    c     0.573582    0.554900    0.989224    0.000000
   164  O2    c     0.414832    0.997598    0.325089    0.000000
   165  O3    c     0.934946    0.388744    0.660799    0.000000
   166  O2    c     0.378238    0.412141    0.486372    0.000000
   167  O3    c     0.557521    0.962318    0.829391    0.000000
   168  O2    c     0.999526    0.569500    0.148846    0.000000
   169  O2    c     0.529696    0.555495    0.338052    0.000000
   170  O2    c     0.001629    0.433545    0.005003    0.000000
   171  O2    c     0.394671    0.960163    0.675149    0.000000
   172  O2    c     0.424602    0.404961    0.840842    0.000000
   173  O2    c     0.943904    0.527087    0.511308    0.000000
   174  O2    c     0.566202    0.014380    0.176786    0.000000
   175  O2    c     0.557442    0.141479    0.252349    0.000000
   176  O2    c     0.809029    0.391481    0.584227    0.000000
   177  O2    c     0.571044    0.414792    0.915644    0.000000
   178  O3    c     0.395403    0.804000    0.741903    0.000000
   179  O2    c     0.137420    0.567331    0.077922    0.000000
   180  O2    c     0.387192    0.553146    0.410951    0.000000
   181  F     c     0.424533    0.879586    0.249433    0.000000
   182  F     c     0.068056    0.494515    0.591193    0.000000
   183  F     c     0.437380    0.542121    0.914387    0.000000
   184  F     c     0.504255    0.040971    0.757571    0.000000
   185  F     c     0.844197    0.428566    0.070607    0.000000
   186  F     c     0.519368    0.424689    0.414344    0.000000
   187  O2    s     0.913945    0.001642    0.000614    0.000000
   188  O2    s     0.972742    0.894753    0.330353    0.000000
   189  O2    s     0.047266    0.053372    0.663924    0.000000
   190  O2    s     0.044801    0.967435    0.497668    0.000000
   191  O2    s     0.984989    0.067454    0.830276    0.000000
   192  O2    s     0.904118    0.914995    0.165421    0.000000
   193  O2    s     0.322929    0.555565    0.327801    0.000000
   194  O2    s     0.408370    0.764941    0.656169    0.000000
   195  O2    s     0.216483    0.638988    0.995080    0.000000
   196  O2    s     0.628038    0.403308    0.832756    0.000000
   197  O2    s     0.565694    0.219002    0.170114    0.000000
   198  O2    s     0.732242    0.324897    0.500551    0.000000
   199  O3    s     0.568650    0.346275    0.998473    0.000000
   200  O2    s     0.735341    0.399578    0.666445    0.000000
   201  O2    s     0.621605    0.204140    0.335261    0.000000
   202  O2    s     0.380285    0.617490    0.493835    0.000000
   203  O2    s     0.209658    0.573794    0.162257    0.000000
   204  O3    s     0.335561    0.755047    0.829806    0.000000
   205  O2    s     0.113644    0.210445    0.967646    0.000000
   206  O2    s     0.754869    0.875266    0.301891    0.000000
   207  O2    s     0.071654    0.857020    0.633972    0.000000
   208  O2    s     0.846088    0.756400    0.466251    0.000000
   209  O2    s     0.198113    0.090587    0.801825    0.000000
   210  O2    s     0.880998    0.109519    0.132920    0.000000
   211  O2    s     0.189911    0.092007    0.359831    0.000000
   212  O2    s     0.898759    0.789432    0.026937    0.000000
   213  O2    s     0.861001    0.094576    0.694427    0.000000
   214  O2    s     0.767748    0.872827    0.860088    0.000000
   215  O2    s     0.062687    0.184624    0.523220    0.000000
   216  O2    s     0.098489    0.890281    0.195868    0.000000
   217  O2    s     0.900389    0.833947    0.247200    0.000000
   218  O2    s     0.109802    0.045487    0.580482    0.000000
   219  O2    s     0.923901    0.054800    0.915058    0.000000
   220  O2    s     0.053798    0.133230    0.746628    0.000000
   221  O2    s     0.836105    0.916635    0.082355    0.000000
   222  O2    s     0.041547    0.902734    0.413968    0.000000
   223  O2    s     0.901432    0.199384    0.975439    0.000000
   224  O2    s     0.766949    0.674151    0.312381    0.000000
   225  O2    s     0.267514    0.071837    0.647376    0.000000
   226  O2    s     0.055482    0.761550    0.478768    0.000000
   227  O2    s     0.187238    0.291188    0.812342    0.000000
   228  O2    s     0.681550    0.896271    0.147891    0.000000
   229  O2    s     0.176907    0.878531    0.349857    0.000000
   230  O2    s     0.691396    0.791849    0.013988    0.000000
   231  O3    s     0.080170    0.280859    0.679756    0.000000
   232  O2    s     0.793854    0.093472    0.851731    0.000000
   233  O2    s     0.264809    0.176193    0.514533    0.000000
   234  O2    s     0.886152    0.691139    0.179053    0.000000
   235  O2    s     0.301010    0.634481    0.245971    0.000000
   236  O2    s     0.317064    0.644165    0.577230    0.000000
   237  O2    s     0.312986    0.665305    0.912747    0.000000
   238  O2    s     0.643603    0.326188    0.750023    0.000000
   239  O3    s     0.617573    0.302545    0.086676    0.000000
   240  O2    s     0.643240    0.301757    0.416628    0.000000
   241  O2    s     0.364918    0.336126    0.966359    0.000000
   242  O2    s     0.633290    0.008033    0.302385    0.000000
   243  O2    s     0.942369    0.603073    0.633210    0.000000
   244  O2    s     0.591121    0.630839    0.464259    0.000000
   245  O3    s     0.306858    0.951919    0.802116    0.000000
   246  O2    s     0.010624    0.365234    0.129180    0.000000
   247  O2    s     0.311462    0.346446    0.360544    0.000000
   248  O2    s     0.019912    0.652993    0.026766    0.000000
   249  O2    s     0.608479    0.954299    0.697452    0.000000
   250  O2    s     0.643749    0.617056    0.862134    0.000000
   251  O2    s     0.927818    0.307694    0.531193    0.000000
   252  O2    s     0.353918    0.019149    0.198752    0.000000
   253  O3    s     0.759129    0.287386    0.004859    0.000000
   254  O2    s     0.662196    0.437153    0.345466    0.000000
   255  O2    s     0.504952    0.206913    0.681611    0.000000
   256  O2    s     0.189634    0.658365    0.511093    0.000000
   257  O2    s     0.293779    0.526138    0.843580    0.000000
   258  O2    s     0.441687    0.763006    0.177750    0.000000
   259  O2    s     0.281382    0.747153    0.317160    0.000000
   260  O2    s     0.451324    0.683675    0.982768    0.000000
   261  O3    s     0.222893    0.533044    0.651286    0.000000
   262  O2    s     0.671542    0.213493    0.819294    0.000000
   263  O2    s     0.502650    0.285243    0.484749    0.000000
   264  O2    s     0.751844    0.452953    0.148409    0.000000
   265  O3    s     0.778470    0.545876    0.021256    0.000000
   266  O2    s     0.441042    0.229366    0.362165    0.000000
   267  O2    s     0.709192    0.195278    0.699203    0.000000
   268  O2    s     0.175959    0.439433    0.527010    0.000000
   269  O2    s     0.516540    0.735147    0.859226    0.000000
   270  O2    s     0.231581    0.772662    0.195268    0.000000
   271  O2    s     0.503525    0.761406    0.300525    0.000000
   272  O2    s     0.243269    0.461925    0.966131    0.000000
   273  O2    s     0.189264    0.720966    0.630934    0.000000
   274  O2    s     0.449290    0.192345    0.802324    0.000000
   275  O2    s     0.713128    0.506124    0.467566    0.000000
   276  O2    s     0.765836    0.245173    0.131054    0.000000
   277  O2    s     0.226232    0.327010    0.896106    0.000000
   278  O2    s     0.640953    0.886206    0.231221    0.000000
   279  O2    s     0.065285    0.730073    0.562845    0.000000
   280  O2    s     0.728805    0.638440    0.395528    0.000000
   281  O2    s     0.308862    0.071391    0.731186    0.000000
   282  O2    s     0.884194    0.230566    0.060564    0.000000
   283  O2    s     0.303187    0.212066    0.431214    0.000000
   284  O2    s     0.880617    0.650581    0.095320    0.000000
   285  O2    s     0.740837    0.082565    0.767668    0.000000
   286  O2    s     0.651095    0.753461    0.930920    0.000000
   287  O3    s     0.064981    0.291892    0.593871    0.000000
   288  O2    s     0.215689    0.885510    0.267050    0.000000
   289  O2    s     0.569396    0.555672    0.985813    0.000000
   290  O2    s     0.414553    0.993219    0.321575    0.000000
   291  O3    s     0.937222    0.395381    0.656712    0.000000
   292  O2    s     0.383360    0.411982    0.483052    0.000000
   293  O3    s     0.562124    0.971632    0.825774    0.000000
   294  O2    s     0.995896    0.565866    0.146067    0.000000
   295  O2    s     0.529941    0.551202    0.341485    0.000000
   296  O2    s     0.999112    0.433871    0.007808    0.000000
   297  O2    s     0.397811    0.964565    0.678022    0.000000
   298  O2    s     0.424497    0.409957    0.844137    0.000000
   299  O2    s     0.947960    0.527948    0.514050    0.000000
   300  O2    s     0.561273    0.008949    0.180019    0.000000
   301  O2    s     0.552071    0.130492    0.252227    0.000000
   302  O2    s     0.818708    0.396403    0.583835    0.000000
   303  O2    s     0.565424    0.419882    0.915379    0.000000
   304  O3    s     0.402795    0.816792    0.740225    0.000000
   305  O2    s     0.127953    0.562758    0.078153    0.000000
   306  O2    s     0.392626    0.547557    0.411104    0.000000
   307  F     s     0.424135    0.878962    0.249485    0.000000
   308  F     s     0.068469    0.487954    0.594201    0.000000
   309  F     s     0.437184    0.542226    0.914482    0.000000
   310  F     s     0.498148    0.030692    0.759988    0.000000
   311  F     s     0.833408    0.424709    0.068040    0.000000
   312  F     s     0.519684    0.424650    0.414431    0.000000
--------------------------------------------------------------------------------

  Final Cartesian lattice vectors (Angstroms) :

       11.983750    0.000162   -0.014677
       -6.038443   10.370337    0.017701
       -0.228645    0.130416   29.403318


  Final cell parameters and derivatives :

--------------------------------------------------------------------------------
       a           11.983759 Angstrom     dE/de1(xx)    -0.001445 eV/strain
       b           12.000291 Angstrom     dE/de2(yy)    -0.000959 eV/strain
       c           29.404497 Angstrom     dE/de3(zz)    -0.002018 eV/strain
       alpha       89.471691 Degrees      dE/de4(yz)     0.000067 eV/strain
       beta        90.515697 Degrees      dE/de5(xz)     0.000238 eV/strain
       gamma      120.210685 Degrees      dE/de6(xy)     0.000289 eV/strain
--------------------------------------------------------------------------------

  Primitive cell volume =          3654.090669 Angs**3

  Density of cell =      1.750940 g/cm**3

  Non-primitive cell volume =          3654.090669 Angs**3


  Final internal derivatives :

--------------------------------------------------------------------------------
   No.  Atomic          a             b             c           Radius
        Label          (eV)          (eV)          (eV)        (eV/Angs)
--------------------------------------------------------------------------------
      1 Ge    c       0.000000      0.000000      0.000000      0.000000
      2 Si    c       0.000005      0.000385      0.000481      0.000000
      3 Si    c       0.000027      0.000362     -0.000233      0.000000
      4 Si    c       0.000948      0.000033      0.001278      0.000000
      5 Si    c       0.000338     -0.000373     -0.000062      0.000000
      6 Si    c       0.000695     -0.000706      0.001097      0.000000
      7 Si    c       0.000431      0.000079      0.000255      0.000000
      8 Si    c       0.000905     -0.000508     -0.001142      0.000000
      9 Si    c       0.000766     -0.000632     -0.000552      0.000000
     10 Si    c      -0.000218      0.000698     -0.000021      0.000000
     11 Si    c       0.000034      0.000265      0.000200      0.000000
     12 Si    c      -0.000173      0.000918     -0.003319      0.000000
     13 Si    c       0.000643     -0.000601      0.000161      0.000000
     14 Si    c       0.000124      0.000619     -0.000117      0.000000
     15 Si    c      -0.000678      0.000179     -0.000664      0.000000
     16 Si    c       0.000447      0.000163      0.000517      0.000000
     17 Ge    c       0.000355     -0.000905     -0.000109      0.000000
     18 Si    c       0.001460     -0.000347      0.000286      0.000000
     19 Si    c       0.000080      0.000421      0.000688      0.000000
     20 Si    c       0.001746     -0.000048     -0.000361      0.000000
     21 Si    c       0.000399     -0.000953      0.000791      0.000000
     22 Si    c       0.000203     -0.000319      0.000144      0.000000
     23 Si    c      -0.000043      0.000499      0.000572      0.000000
     24 Si    c       0.000253     -0.000193      0.001896      0.000000
     25 Si    c      -0.000430      0.000161      0.000144      0.000000
     26 Si    c       0.000591     -0.000194      0.000594      0.000000
     27 Si    c       0.000067      0.000526      0.000862      0.000000
     28 Si    c       0.000280      0.000704      0.000557      0.000000
     29 Si    c       0.000054      0.000375     -0.000034      0.000000
     30 Si    c       0.000385      0.000830     -0.001088      0.000000
     31 Si    c       0.000042      0.000212      0.000298      0.000000
     32 Si    c       0.000180      0.000928      0.000668      0.000000
     33 Si    c       0.000273     -0.001063      0.000013      0.000000
     34 Si    c       0.000731     -0.000820     -0.000425      0.000000
     35 Ge    c       0.000279     -0.000520     -0.001355      0.000000
     36 Si    c       0.000312      0.000597      0.000045      0.000000
     37 Si    c      -0.000614     -0.000170     -0.000826      0.000000
     38 Si    c       0.000054      0.000346     -0.000220      0.000000
     39 Si    c      -0.000271      0.000240     -0.000526      0.000000
     40 Si    c       0.000323      0.000418      0.000357      0.000000
     41 Si    c      -0.000312      0.000364     -0.000581      0.000000
     42 Si    c       0.000617     -0.000311     -0.000309      0.000000
     43 Si    c      -0.000178      0.000196      0.000676      0.000000
     44 Si    c      -0.000800     -0.000204      0.000101      0.000000
     45 Si    c      -0.000075     -0.001046      0.000621      0.000000
     46 Si    c      -0.000061      0.000209     -0.000141      0.000000
     47 Si    c       0.000624      0.000318      0.001095      0.000000
     48 Si    c       0.000294      0.000247      0.000348      0.000000
     49 Si    c      -0.000310     -0.000235     -0.000796      0.000000
     50 Si    c       0.000105      0.000458     -0.000647      0.000000
     51 Si    c       0.000450      0.000713     -0.000772      0.000000
     52 Si    c       0.000220      0.000394      0.000108      0.000000
     53 Si    c      -0.000259      0.000063     -0.000117      0.000000
     54 Si    c       0.000180     -0.000330      0.000587      0.000000
     55 Si    c      -0.000191      0.000452      0.000755      0.000000
     56 Si    c      -0.000136     -0.000157      0.000632      0.000000
     57 Si    c       0.000338      0.000093     -0.000278      0.000000
     58 Si    c      -0.000586      0.000113     -0.000681      0.000000
     59 Si    c       0.000259      0.000403      0.000759      0.000000
     60 Si    c      -0.000260     -0.000039      0.000092      0.000000
     61 O2    c       0.000536     -0.000697     -0.001268      0.000000
     62 O2    c      -0.000152      0.000566      0.000718      0.000000
     63 O2    c       0.000586      0.001018      0.000047      0.000000
     64 O2    c       0.000079      0.000237      0.000424      0.000000
     65 O2    c      -0.000510     -0.000178     -0.000347      0.000000
     66 O2    c       0.000154     -0.000605      0.000040      0.000000
     67 O2    c       0.000198      0.000538      0.000688      0.000000
     68 O2    c       0.000275     -0.000812      0.000751      0.000000
     69 O2    c       0.001303     -0.000011      0.000296      0.000000
     70 O2    c      -0.000124      0.000304     -0.000317      0.000000
     71 O2    c       0.000427     -0.000546      0.003711      0.000000
     72 O2    c       0.000183      0.000380     -0.000551      0.000000
     73 O3    c       0.001730     -0.000552     -0.001787      0.000000
     74 O2    c      -0.000307     -0.000203     -0.000023      0.000000
     75 O2    c       0.000080      0.000623     -0.000246      0.000000
     76 O2    c       0.000821      0.000127      0.000511      0.000000
     77 O2    c       0.000914     -0.000736      0.000146      0.000000
     78 O3    c       0.000389     -0.000444     -0.000369      0.000000
     79 O2    c       0.000070     -0.000119     -0.001094      0.000000
     80 O2    c       0.000158      0.000700     -0.000135      0.000000
     81 O2    c      -0.000064      0.000437     -0.000216      0.000000
     82 O2    c       0.000368      0.000148     -0.000139      0.000000
     83 O2    c       0.000023     -0.000110     -0.000552      0.000000
     84 O2    c       0.000317     -0.000214      0.001159      0.000000
     85 O2    c      -0.000050      0.000296      0.000715      0.000000
     86 O2    c       0.001222      0.000602     -0.002329      0.000000
     87 O2    c      -0.000440     -0.000704      0.000612      0.000000
     88 O2    c      -0.000373      0.000145      0.000568      0.000000
     89 O2    c       0.000510      0.000226      0.000746      0.000000
     90 O2    c       0.000503      0.000258     -0.000203      0.000000
     91 O2    c       0.000572      0.000351      0.000560      0.000000
     92 O2    c       0.000524      0.000722     -0.000269      0.000000
     93 O2    c      -0.000567      0.000179     -0.000556      0.000000
     94 O2    c      -0.000147      0.000276      0.001272      0.000000
     95 O2    c       0.000446      0.000141      0.000098      0.000000
     96 O2    c       0.000208     -0.000051      0.000445      0.000000
     97 O2    c       0.000722     -0.000835     -0.000482      0.000000
     98 O2    c      -0.000020      0.000413      0.000863      0.000000
     99 O2    c       0.000741      0.000208      0.000303      0.000000
    100 O2    c       0.000449      0.000626      0.000601      0.000000
    101 O2    c      -0.000323      0.000285      0.000714      0.000000
    102 O2    c       0.000184     -0.000083      0.000952      0.000000
    103 O2    c       0.000137      0.000382     -0.000378      0.000000
    104 O2    c       0.000056     -0.001081     -0.000084      0.000000
    105 O3    c       0.000057      0.000635     -0.000281      0.000000
    106 O2    c      -0.000074     -0.000590     -0.000314      0.000000
    107 O2    c       0.000345      0.000331     -0.000100      0.000000
    108 O2    c       0.000176     -0.000493      0.000078      0.000000
    109 O2    c       0.000227      0.000070     -0.000667      0.000000
    110 O2    c       0.000756      0.000160      0.000681      0.000000
    111 O2    c       0.000593     -0.000562      0.000183      0.000000
    112 O2    c       0.000190      0.000450     -0.000060      0.000000
    113 O3    c       0.003356      0.001508      0.006915      0.000000
    114 O2    c      -0.000019      0.000126     -0.000626      0.000000
    115 O2    c       0.000450     -0.000812     -0.000153      0.000000
    116 O2    c      -0.000014      0.000719     -0.000233      0.000000
    117 O2    c      -0.000263      0.000383     -0.000497      0.000000
    118 O2    c       0.000400      0.000124      0.000083      0.000000
    119 O3    c      -0.000320      0.000095     -0.001111      0.000000
    120 O2    c       0.000539      0.000042      0.000355      0.000000
    121 O2    c       0.000143      0.000652      0.000562      0.000000
    122 O2    c       0.002192      0.000445     -0.002505      0.000000
    123 O2    c      -0.000137     -0.000755      0.000579      0.000000
    124 O2    c      -0.000189     -0.000219      0.000021      0.000000
    125 O2    c       0.000599      0.000649      0.000584      0.000000
    126 O2    c       0.000322      0.000188      0.000221      0.000000
    127 O3    c       0.002626     -0.000634     -0.002327      0.000000
    128 O2    c       0.000011      0.000534      0.000794      0.000000
    129 O2    c       0.000370     -0.000140      0.000277      0.000000
    130 O2    c       0.000430      0.000534      0.000274      0.000000
    131 O2    c       0.000021     -0.000249      0.000528      0.000000
    132 O2    c       0.000433     -0.000285      0.000869      0.000000
    133 O2    c       0.000348      0.000864      0.000069      0.000000
    134 O2    c       0.000615     -0.000264     -0.000269      0.000000
    135 O3    c       0.000267     -0.000869     -0.001304      0.000000
    136 O2    c       0.000204     -0.000259      0.000033      0.000000
    137 O2    c       0.000252      0.000266     -0.000321      0.000000
    138 O2    c       0.000692     -0.000243      0.001839      0.000000
    139 O3    c      -0.002157      0.001234     -0.006209      0.000000
    140 O2    c       0.000100      0.000236      0.000704      0.000000
    141 O2    c       0.000171     -0.000649      0.000504      0.000000
    142 O2    c       0.000404      0.000334      0.000685      0.000000
    143 O2    c      -0.000179     -0.000133      0.000797      0.000000
    144 O2    c       0.000502     -0.000098      0.000385      0.000000
    145 O2    c       0.000168      0.000537     -0.000124      0.000000
    146 O2    c       0.000020     -0.000582     -0.000727      0.000000
    147 O2    c      -0.000215      0.000220      0.000126      0.000000
    148 O2    c      -0.000116      0.000133     -0.000666      0.000000
    149 O2    c       0.000008      0.000308     -0.000229      0.000000
    150 O2    c       0.000015     -0.000135      0.001462      0.000000
    151 O2    c      -0.000466     -0.000126     -0.000067      0.000000
    152 O2    c       0.000275      0.000198      0.000004      0.000000
    153 O2    c       0.000061      0.000428      0.000664      0.000000
    154 O2    c       0.000237      0.000464      0.000296      0.000000
    155 O2    c       0.000002      0.000349      0.000475      0.000000
    156 O2    c       0.000646     -0.000053      0.000579      0.000000
    157 O2    c      -0.000049      0.000186     -0.000252      0.000000
    158 O2    c       0.001362      0.002390      0.001416      0.000000
    159 O2    c       0.000244     -0.000752      0.000486      0.000000
    160 O2    c       0.000423     -0.000078     -0.000150      0.000000
    161 O3    c       0.000184      0.000680     -0.000046      0.000000
    162 O2    c       0.000211      0.000308     -0.000106      0.000000
    163 O2    c       0.000644     -0.000708     -0.000641      0.000000
    164 O2    c       0.000136      0.000660     -0.000249      0.000000
    165 O3    c      -0.001385     -0.000122     -0.001138      0.000000
    166 O2    c       0.000183      0.000347      0.000125      0.000000
    167 O3    c       0.000507     -0.000936     -0.001485      0.000000
    168 O2    c       0.001158     -0.000282     -0.000539      0.000000
    169 O2    c       0.000274      0.000501      0.001052      0.000000
    170 O2    c       0.002262     -0.001385     -0.000641      0.000000
    171 O2    c      -0.000153     -0.000731      0.000208      0.000000
    172 O2    c      -0.000273     -0.000156      0.000103      0.000000
    173 O2    c       0.000146      0.000622      0.000160      0.000000
    174 O2    c       0.000726      0.000399      0.000311      0.000000
    175 O2    c       0.000498      0.000767     -0.000846      0.000000
    176 O2    c      -0.000378      0.000198     -0.000708      0.000000
    177 O2    c       0.000226     -0.000633      0.000313      0.000000
    178 O3    c       0.000256     -0.001058      0.000522      0.000000
    179 O2    c       0.001752      0.000109      0.001523      0.000000
    180 O2    c       0.000129      0.000301      0.000111      0.000000
    181 F     c       0.000460      0.000352      0.000914      0.000000
    182 F     c       0.000030     -0.000048      0.000327      0.000000
    183 F     c       0.000019     -0.000036     -0.000225      0.000000
    184 F     c      -0.000044     -0.000552      0.000331      0.000000
    185 F     c      -0.002135     -0.000497     -0.006250      0.000000
    186 F     c      -0.000087      0.000309      0.000283      0.000000
    187 O2    s       0.000604     -0.001066      0.000368      0.000000
    188 O2    s       0.000035      0.000698      0.000511      0.000000
    189 O2    s       0.001434      0.000207     -0.000220      0.000000
    190 O2    s       0.000382      0.000201     -0.000278      0.000000
    191 O2    s       0.000180     -0.001152      0.000232      0.000000
    192 O2    s       0.000005     -0.000524      0.000220      0.000000
    193 O2    s       0.000313      0.000515      0.000510      0.000000
    194 O2    s      -0.000746      0.000054      0.001621      0.000000
    195 O2    s       0.001214     -0.000422      0.000853      0.000000
    196 O2    s       0.000302     -0.000192     -0.000156      0.000000
    197 O2    s      -0.000365      0.000376      0.003487      0.000000
    198 O2    s       0.000354      0.000375     -0.001168      0.000000
    199 O3    s      -0.000136     -0.001384      0.002375      0.000000
    200 O2    s      -0.000093     -0.000529      0.000489      0.000000
    201 O2    s      -0.000159      0.000946     -0.000591      0.000000
    202 O2    s       0.000377      0.000848     -0.000558      0.000000
    203 O2    s       0.000192     -0.000239      0.000014      0.000000
    204 O3    s      -0.000661      0.000222      0.001486      0.000000
    205 O2    s       0.000969     -0.001382     -0.000992      0.000000
    206 O2    s       0.000150      0.000690     -0.000125      0.000000
    207 O2    s       0.000458     -0.000009     -0.000030      0.000000
    208 O2    s       0.000588      0.000184     -0.000937      0.000000
    209 O2    s      -0.000017     -0.000113     -0.000098      0.000000
    210 O2    s       0.000592      0.000219      0.000113      0.000000
    211 O2    s      -0.000152      0.000333      0.001113      0.000000
    212 O2    s       0.001520     -0.000442     -0.001462      0.000000
    213 O2    s      -0.000599     -0.000479      0.001148      0.000000
    214 O2    s       0.000217     -0.000688      0.001392      0.000000
    215 O2    s       0.000484      0.000537     -0.000350      0.000000
    216 O2    s       0.000758     -0.000472      0.000787      0.000000
    217 O2    s       0.001215      0.000106      0.000599      0.000000
    218 O2    s       0.001984      0.000489     -0.001278      0.000000
    219 O2    s       0.000228     -0.001212     -0.001346      0.000000
    220 O2    s      -0.000261      0.000598      0.000814      0.000000
    221 O2    s       0.000396      0.000697      0.001034      0.000000
    222 O2    s       0.000471      0.000101     -0.000337      0.000000
    223 O2    s       0.000556     -0.000286     -0.000234      0.000000
    224 O2    s       0.000065      0.000310      0.001141      0.000000
    225 O2    s       0.001128     -0.000303      0.000802      0.000000
    226 O2    s       0.000855      0.000371      0.000752      0.000000
    227 O2    s      -0.000069     -0.000093      0.001856      0.000000
    228 O2    s      -0.000047      0.000007      0.000157      0.000000
    229 O2    s       0.000155      0.000637     -0.000936      0.000000
    230 O2    s       0.000220     -0.001105      0.000911      0.000000
    231 O3    s      -0.001153      0.001346      0.002448      0.000000
    232 O2    s      -0.000702      0.000059     -0.000688      0.000000
    233 O2    s       0.000716      0.000166     -0.001559      0.000000
    234 O2    s       0.001403     -0.001199      0.001007      0.000000
    235 O2    s      -0.000091      0.000225      0.000202      0.000000
    236 O2    s       0.000442      0.001254     -0.000099      0.000000
    237 O2    s       0.000254     -0.000194      0.000498      0.000000
    238 O2    s       0.001238     -0.000253     -0.000057      0.000000
    239 O3    s      -0.003054     -0.001801      0.008018      0.000000
    240 O2    s      -0.000045      0.000472     -0.000054      0.000000
    241 O2    s       0.000140     -0.001129     -0.000441      0.000000
    242 O2    s      -0.000087      0.000601     -0.000566      0.000000
    243 O2    s      -0.000052      0.000084     -0.000701      0.000000
    244 O2    s       0.000332      0.000420     -0.001251      0.000000
    245 O3    s       0.000345     -0.000318     -0.000180      0.000000
    246 O2    s       0.000992      0.000300     -0.000024      0.000000
    247 O2    s       0.000279      0.000334      0.001029      0.000000
    248 O2    s       0.001429     -0.000179     -0.001611      0.000000
    249 O2    s      -0.000719     -0.000548      0.001373      0.000000
    250 O2    s       0.000090     -0.000340      0.001578      0.000000
    251 O2    s       0.000395      0.000930      0.000311      0.000000
    252 O2    s       0.000595     -0.000199      0.001098      0.000000
    253 O3    s       0.003338     -0.002572     -0.005527      0.000000
    254 O2    s      -0.000007      0.000551      0.000955      0.000000
    255 O2    s       0.000662     -0.000872      0.001680      0.000000
    256 O2    s       0.000545      0.000393      0.000825      0.000000
    257 O2    s      -0.000304     -0.000058      0.001147      0.000000
    258 O2    s       0.000082     -0.000100      0.000908      0.000000
    259 O2    s       0.000375      0.000812     -0.000877      0.000000
    260 O2    s       0.000779     -0.001180     -0.000604      0.000000
    261 O3    s      -0.001382      0.000764      0.000674      0.000000
    262 O2    s      -0.000196     -0.000285     -0.001487      0.000000
    263 O2    s       0.000256      0.000183     -0.001546      0.000000
    264 O2    s       0.000688     -0.000306      0.002258      0.000000
    265 O3    s      -0.002362      0.002682     -0.003416      0.000000
    266 O2    s      -0.000118      0.000590      0.000898      0.000000
    267 O2    s      -0.000063     -0.000357      0.001797      0.000000
    268 O2    s       0.000539      0.000655      0.000045      0.000000
    269 O2    s      -0.000070     -0.000150      0.001482      0.000000
    270 O2    s       0.000697     -0.000258      0.000713      0.000000
    271 O2    s       0.000278      0.000568     -0.000621      0.000000
    272 O2    s       0.000892     -0.000779      0.000058      0.000000
    273 O2    s       0.000121     -0.000170      0.000501      0.000000
    274 O2    s       0.000681     -0.000718     -0.001259      0.000000
    275 O2    s       0.000525      0.000142     -0.001480      0.000000
    276 O2    s       0.001527     -0.000113      0.000840      0.000000
    277 O2    s       0.000410     -0.001508      0.000473      0.000000
    278 O2    s       0.000361      0.000474      0.000908      0.000000
    279 O2    s       0.000325      0.000642      0.000197      0.000000
    280 O2    s       0.000712      0.000800      0.000472      0.000000
    281 O2    s       0.001003     -0.000388      0.000358      0.000000
    282 O2    s       0.001736      0.000257      0.001623      0.000000
    283 O2    s      -0.000041      0.000199      0.000125      0.000000
    284 O2    s       0.002164      0.001840      0.007641      0.000000
    285 O2    s      -0.000755     -0.000347     -0.000240      0.000000
    286 O2    s       0.001004     -0.000533      0.000290      0.000000
    287 O3    s      -0.000089      0.000278     -0.002135      0.000000
    288 O2    s       0.000430      0.000507     -0.001116      0.000000
    289 O2    s       0.000857     -0.000455     -0.001053      0.000000
    290 O2    s      -0.000168      0.001608     -0.000915      0.000000
    291 O3    s      -0.001082      0.000085      0.000727      0.000000
    292 O2    s       0.000215      0.000221     -0.001497      0.000000
    293 O3    s      -0.000929      0.000460      0.000284      0.000000
    294 O2    s       0.001022     -0.000493     -0.001361      0.000000
    295 O2    s       0.000350      0.000977      0.001091      0.000000
    296 O2    s       0.003977     -0.000217      0.000037      0.000000
    297 O2    s      -0.000083     -0.000598      0.001919      0.000000
    298 O2    s      -0.000312     -0.000739      0.001356      0.000000
    299 O2    s       0.000518      0.000532      0.000837      0.000000
    300 O2    s       0.000323     -0.000042      0.000345      0.000000
    301 O2    s       0.000641      0.001146      0.001153      0.000000
    302 O2    s      -0.000952      0.000551     -0.000774      0.000000
    303 O2    s      -0.000537     -0.001019     -0.000103      0.000000
    304 O3    s      -0.001319     -0.000468     -0.000361      0.000000
    305 O2    s       0.002168      0.001009      0.001363      0.000000
    306 O2    s       0.000268      0.000620      0.000829      0.000000
    307 F     s       0.000338      0.000666     -0.000007      0.000000
    308 F     s      -0.000252      0.000512      0.000771      0.000000
    309 F     s       0.000588     -0.000896      0.000235      0.000000
    310 F     s      -0.000312     -0.000509      0.000614      0.000000
    311 F     s      -0.001942      0.001047     -0.009203      0.000000
    312 F     s      -0.000012      0.000309     -0.000045      0.000000
--------------------------------------------------------------------------------
  Maximum abs         0.003977      0.002682      0.009203      0.000000
--------------------------------------------------------------------------------


  Time to end of optimisation =      61.3952 seconds


  Peak dynamic memory used =      19.13 MB 


  Timing analysis for GULP :

--------------------------------------------------------------------------------
  Task / Subroutine                                          Time (Seconds)
--------------------------------------------------------------------------------
  Calculation of reciprocal space energy and derivatives          1.5312
  Calculation of real space energy and derivatives               53.6428
  Calculation of three-body energy and derivatives                5.3801
  Calculation of matrix inversion                                 0.7436
--------------------------------------------------------------------------------
  Total CPU time                                                 61.3952
--------------------------------------------------------------------------------


  Dump file written as out.res                                                 
  CIF file written as out.cif                                                 


  Job Finished at 02:45.06 31st October    2016                               

