********************************************************************************
*                       GENERAL UTILITY LATTICE PROGRAM                        *
*                                 Julian Gale                                  *
*                      Nanochemistry Research Institute                        *
*                           Department of Chemistry                            *
*                    Curtin University, Western Australia                      *
********************************************************************************
* Version = 4.2.0 * Last modified =  20th January 2014                         *
********************************************************************************
*  optimise     - perform optimisation run                                     *
*  conp         - constant pressure calculation                                *
*  qok          - running with non charge neutral cell is OK                   *
********************************************************************************

  Job Started  at 18:06.48 31st October    2016                               

  Number of CPUs =     1


  Total number of configurations input =   1

********************************************************************************
*  Input for Configuration =   1                                               *
********************************************************************************

  Formula = Ge3Si57O120F6                                               

  Number of irreducible atoms/shells =     312


  Total number atoms/shells =     312

  Dimensionality = 3               :  Bulk   


  Charge on solid   =  -6.000000 =>neutralising background added


  Cartesian lattice vectors (Angstroms) :

       11.965073    0.000000    0.000000
       -6.048382   10.369811    0.000000
       -0.189556    0.054609   29.413747

  Cell parameters (Angstroms/Degrees):

  a =      11.9651    alpha =  89.7221
  b =      12.0048    beta  =  90.3692
  c =      29.4144    gamma = 120.2537

  Initial cell volume =        3649.526519 Angs**3

  Temperature of configuration =  0.000     K 

  Pressure of configuration =         0.000 GPa 

  Fractional coordinates of asymmetric unit :

--------------------------------------------------------------------------------
   No.  Atomic       x           y          z         Charge      Occupancy
        Label      (Frac)      (Frac)     (Frac)        (e)         (Frac)  
--------------------------------------------------------------------------------
      1 Ge    c    0.699600    0.375700    0.033890     4.00000    1.000000    
      2 Si    c    0.611523 *  0.312425 *  0.364125 *   4.00000    1.000000    
      3 Si    c    0.675716 *  0.303748 *  0.697499 *   4.00000    1.000000    
      4 Si    c    0.305482 *  0.625779 *  0.528174 *   4.00000    1.000000    
      5 Si    c    0.374534 *  0.677094 *  0.861704 *   4.00000    1.000000    
      6 Si    c    0.314053 *  0.691520 *  0.199776 *   4.00000    1.000000    
      7 Si    c    0.368415 *  0.690931 *  0.300272 *   4.00000    1.000000    
      8 Si    c    0.314881 *  0.621397 *  0.961791 *   4.00000    1.000000    
      9 Si    c    0.299487 *  0.685697 *  0.630131 *   4.00000    1.000000    
     10 Si    c    0.621000 *  0.302141 *  0.798318 *   4.00000    1.000000    
     11 Si    c    0.665575 *  0.362767 *  0.464700 *   4.00000    1.000000    
     12 Si    c    0.673886 *  0.308746 *  0.132217 *   4.00000    1.000000    
     13 Si    c    0.527531 *  0.418325 *  0.966168 *   4.00000    1.000000    
     14 Si    c    0.571088 *  0.099860 *  0.300653 *   4.00000    1.000000    
     15 Si    c    0.882744 *  0.475486 *  0.630591 *   4.00000    1.000000    
     16 Si    c    0.471467 *  0.573123 *  0.465934 *   4.00000    1.000000    
     17 Si    c    0.415127 *  0.890270 *  0.797607 *   4.00000    1.000000    
     18 Ge    c    0.099645 *  0.529664 *  0.131248 *   4.00000    1.000000    
     19 Si    c    0.411859 *  0.520478 *  0.364666 *   4.00000    1.000000    
     20 Si    c    0.100077 *  0.581683 *  0.025630 *   4.00000    1.000000    
     21 Si    c    0.468969 *  0.895404 *  0.695832 *   4.00000    1.000000    
     22 Si    c    0.580416 *  0.471984 *  0.863508 *   4.00000    1.000000    
     23 Si    c    0.878182 *  0.411565 *  0.527720 *   4.00000    1.000000    
     24 Si    c    0.514097 *  0.097063 *  0.199088 *   4.00000    1.000000    
     25 Si    c    0.299586 *  0.401132 *  0.848021 *   4.00000    1.000000    
     26 Si    c    0.590997 *  0.893868 *  0.183992 *   4.00000    1.000000    
     27 Ge    c    0.094569 *  0.685165 *  0.521025 *   4.00000    1.000000    
     28 Si    c    0.692463 *  0.591066 *  0.349949 *   4.00000    1.000000    
     29 Si    c    0.396872 *  0.103079 *  0.681966 *   4.00000    1.000000    
     30 Si    c    0.886280 *  0.291854 *  0.011154 *   4.00000    1.000000    
     31 Si    c    0.389474 *  0.290056 *  0.479560 *   4.00000    1.000000    
     32 Si    c    0.876894 *  0.595138 *  0.143837 *   4.00000    1.000000    
     33 Si    c    0.697398 *  0.100295 *  0.812718 *   4.00000    1.000000    
     34 Si    c    0.593588 *  0.699445 *  0.977897 *   4.00000    1.000000    
     35 Si    c    0.096437 *  0.404005 *  0.645864 *   4.00000    1.000000    
     36 Si    c    0.288130 *  0.889210 *  0.314294 *   4.00000    1.000000    
     37 Si    c    0.247595 *  0.342434 *  0.948364 *   4.00000    1.000000    
     38 Si    c    0.650746 *  0.900982 *  0.285018 *   4.00000    1.000000    
     39 Si    c    0.085509 *  0.759419 *  0.616775 *   4.00000    1.000000    
     40 Si    c    0.749574 *  0.647680 *  0.450854 *   4.00000    1.000000    
     41 Si    c    0.338468 *  0.092120 *  0.782801 *   4.00000    1.000000    
     42 Si    c    0.892159 *  0.242523 *  0.114407 *   4.00000    1.000000    
     43 Si    c    0.330884 *  0.240907 *  0.378707 *   4.00000    1.000000    
     44 Si    c    0.894126 *  0.659346 *  0.040381 *   4.00000    1.000000    
     45 Si    c    0.747772 *  0.096262 *  0.711901 *   4.00000    1.000000    
     46 Si    c    0.655055 *  0.749985 *  0.877187 *   4.00000    1.000000    
     47 Si    c    0.087602 *  0.340036 *  0.544226 *   4.00000    1.000000    
     48 Si    c    0.234051 *  0.893202 *  0.213001 *   4.00000    1.000000    
     49 Si    c    0.969655 *  0.121440 *  0.963317 *   4.00000    1.000000    
     50 Si    c    0.869126 *  0.839639 *  0.298906 *   4.00000    1.000000    
     51 Si    c    0.147241 *  0.034271 *  0.632635 *   4.00000    1.000000    
     52 Si    c    0.029742 *  0.870151 *  0.467120 *   4.00000    1.000000    
     53 Si    c    0.120066 *  0.152526 *  0.797821 *   4.00000    1.000000    
     54 Si    c    0.836923 *  0.965343 *  0.131698 *   4.00000    1.000000    
     55 Si    c    0.111932 *  0.961074 *  0.365032 *   4.00000    1.000000    
     56 Si    c    0.841798 *  0.881248 *  0.029655 *   4.00000    1.000000    
     57 Si    c    0.026870 *  0.156790 *  0.697024 *   4.00000    1.000000    
     58 Si    c    0.876037 *  0.028342 *  0.862613 *   4.00000    1.000000    
     59 Si    c    0.141069 *  0.115051 *  0.530316 *   4.00000    1.000000    
     60 Si    c    0.955597 *  0.842171 *  0.196626 *   4.00000    1.000000    
     61 O2    c    0.925289 *  0.006180 *  0.999015 *   0.87073    1.000000    
     62 O2    c    0.991808 *  0.920147 *  0.331135 *   0.87073    1.000000    
     63 O2    c    0.068730 *  0.079976 *  0.663742 *   0.87073    1.000000    
     64 O2    c    0.058937 *  0.994267 *  0.497818 *   0.87073    1.000000    
     65 O2    c    0.997582 *  0.071103 *  0.829906 *   0.87073    1.000000    
     66 O2    c    0.923837 *  0.932208 *  0.164861 *   0.87073    1.000000    
     67 O2    c    0.332884 *  0.569016 *  0.333053 *   0.87073    1.000000    
     68 O2    c    0.421768 *  0.770562 *  0.663147 *   0.87073    1.000000    
     69 O2    c    0.225010 *  0.656825 *  0.992889 *   0.87073    1.000000    
     70 O2    c    0.657984 *  0.423484 *  0.831437 *   0.87073    1.000000    
     71 O2    c    0.562239 *  0.226041 *  0.168993 *   0.87073    1.000000    
     72 O2    c    0.747538 *  0.321784 *  0.498204 *   0.87073    1.000000    
     73 O3    c    0.566196 *  0.338083 *  0.998080 *   1.33043    1.000000    
     74 O2    c    0.760058 *  0.426106 *  0.664116 *   0.87073    1.000000    
     75 O2    c    0.649209 *  0.226602 *  0.332067 *   0.87073    1.000000    
     76 O2    c    0.431795 *  0.653713 *  0.499611 *   0.87073    1.000000    
     77 O3    c    0.229667 *  0.570965 *  0.166804 *   1.33043    1.000000    
     78 O2    c    0.336983 *  0.762958 *  0.828911 *   0.87073    1.000000    
     79 O2    c    0.123599 *  0.213690 *  0.968776 *   0.87073    1.000000    
     80 O2    c    0.777350 *  0.901465 *  0.305063 *   0.87073    1.000000    
     81 O2    c    0.087895 *  0.881770 *  0.641736 *   0.87073    1.000000    
     82 O2    c    0.874828 *  0.770211 *  0.472371 *   0.87073    1.000000    
     83 O2    c    0.211491 *  0.089944 *  0.802967 *   0.87073    1.000000    
     84 O2    c    0.891996 *  0.117842 *  0.135756 *   0.87073    1.000000    
     85 O2    c    0.204456 *  0.115031 *  0.358239 *   0.87073    1.000000    
     86 O2    c    0.910162 *  0.796153 *  0.024056 *   0.87073    1.000000    
     87 O2    c    0.872948 *  0.095522 *  0.691343 *   0.87073    1.000000    
     88 O2    c    0.782563 *  0.874925 *  0.856625 *   0.87073    1.000000    
     89 O2    c    0.084960 *  0.212752 *  0.525137 *   0.87073    1.000000    
     90 O2    c    0.108512 *  0.893894 *  0.192118 *   0.87073    1.000000    
     91 O2    c    0.918289 *  0.853570 *  0.247661 *   0.87073    1.000000    
     92 O2    c    0.127094 *  0.065728 *  0.581573 *   0.87073    1.000000    
     93 O2    c    0.930188 *  0.062290 *  0.913388 *   0.87073    1.000000    
     94 O2    c    0.066694 *  0.140551 *  0.747155 *   0.87073    1.000000    
     95 O2    c    0.849370 *  0.925882 *  0.081248 *   0.87073    1.000000    
     96 O2    c    0.059888 *  0.924163 *  0.415515 *   0.87073    1.000000    
     97 O2    c    0.900085 *  0.203405 *  0.972950 *   0.87073    1.000000    
     98 O2    c    0.788734 *  0.687941 *  0.310979 *   0.87073    1.000000    
     99 O2    c    0.300539 *  0.107441 *  0.643646 *   0.87073    1.000000    
    100 O3    c    0.105670 *  0.800182 *  0.479254 *   1.33043    1.000000    
    101 O2    c    0.202123 *  0.303904 *  0.809297 *   0.87073    1.000000    
    102 O2    c    0.685899 *  0.890987 *  0.145394 *   0.87073    1.000000    
    103 O2    c    0.192226 *  0.889778 *  0.352751 *   0.87073    1.000000    
    104 O2    c    0.690444 *  0.799537 *  0.016246 *   0.87073    1.000000    
    105 O2    c    0.096625 *  0.309461 *  0.685135 *   0.87073    1.000000    
    106 O2    c    0.795575 *  0.100228 *  0.851169 *   0.87073    1.000000    
    107 O2    c    0.293207 *  0.194209 *  0.518409 *   0.87073    1.000000    
    108 O2    c    0.874227 *  0.692830 *  0.181425 *   0.87073    1.000000    
    109 O2    c    0.311941 *  0.632083 *  0.249914 *   0.87073    1.000000    
    110 O2    c    0.352997 *  0.682612 *  0.579903 *   0.87073    1.000000    
    111 O2    c    0.314180 *  0.677802 *  0.911282 *   0.87073    1.000000    
    112 O2    c    0.677337 *  0.360934 *  0.747871 *   0.87073    1.000000    
    113 O3    c    0.607961 *  0.297405 *  0.084020 *   1.33043    1.000000    
    114 O2    c    0.668445 *  0.309135 *  0.414222 *   0.87073    1.000000    
    115 O2    c    0.369601 *  0.333637 *  0.966367 *   0.87073    1.000000    
    116 O2    c    0.659391 *  0.032307 *  0.303130 *   0.87073    1.000000    
    117 O2    c    0.952661 *  0.631196 *  0.633191 *   0.87073    1.000000    
    118 O2    c    0.627421 *  0.659307 *  0.467940 *   0.87073    1.000000    
    119 O2    c    0.328322 *  0.959337 *  0.800449 *   0.87073    1.000000    
    120 O3    c    0.024805 *  0.363033 *  0.130735 *   1.33043    1.000000    
    121 O2    c    0.323061 *  0.364499 *  0.360407 *   0.87073    1.000000    
    122 O2    c    0.026460 *  0.663916 *  0.023922 *   0.87073    1.000000    
    123 O2    c    0.625457 *  0.964991 *  0.692541 *   0.87073    1.000000    
    124 O2    c    0.665666 *  0.628213 *  0.859310 *   0.87073    1.000000    
    125 O2    c    0.954416 *  0.330820 *  0.527543 *   0.87073    1.000000    
    126 O2    c    0.357365 *  0.025452 *  0.194681 *   0.87073    1.000000    
    127 O3    c    0.753493 *  0.285684 *  0.001408 *   1.33043    1.000000    
    128 O2    c    0.687804 *  0.455420 *  0.341303 *   0.87073    1.000000    
    129 O2    c    0.532462 *  0.236326 *  0.674565 *   0.87073    1.000000    
    130 O3    c    0.244131 *  0.700202 *  0.503634 *   1.33043    1.000000    
    131 O2    c    0.300333 *  0.534748 *  0.838427 *   0.87073    1.000000    
    132 O2    c    0.456209 *  0.760070 *  0.176208 *   0.87073    1.000000    
    133 O2    c    0.290692 *  0.756676 *  0.321862 *   0.87073    1.000000    
    134 O2    c    0.458405 *  0.698835 *  0.984763 *   0.87073    1.000000    
    135 O2    c    0.228456 *  0.540555 *  0.650953 *   0.87073    1.000000    
    136 O2    c    0.696857 *  0.233715 *  0.820118 *   0.87073    1.000000    
    137 O2    c    0.521752 *  0.286639 *  0.486540 *   0.87073    1.000000    
    138 O2    c    0.744067 *  0.458636 *  0.149990 *   0.87073    1.000000    
    139 O3    c    0.767879 *  0.545133 *  0.019180 *   1.33043    1.000000    
    140 O2    c    0.455063 *  0.237932 *  0.359006 *   0.87073    1.000000    
    141 O2    c    0.752728 *  0.224954 *  0.692680 *   0.87073    1.000000    
    142 O2    c    0.212337 *  0.468581 *  0.525976 *   0.87073    1.000000    
    143 O2    c    0.531284 *  0.753536 *  0.856804 *   0.87073    1.000000    
    144 O2    c    0.231154 *  0.765821 *  0.193171 *   0.87073    1.000000    
    145 O2    c    0.524753 *  0.775458 *  0.304647 *   0.87073    1.000000    
    146 O2    c    0.242152 *  0.465690 *  0.967658 *   0.87073    1.000000    
    147 O2    c    0.211418 *  0.752228 *  0.633932 *   0.87073    1.000000    
    148 O2    c    0.464660 *  0.217810 *  0.802581 *   0.87073    1.000000    
    149 O2    c    0.741320 *  0.518143 *  0.470347 *   0.87073    1.000000    
    150 O2    c    0.771385 *  0.250739 *  0.134486 *   0.87073    1.000000    
    151 O2    c    0.225594 *  0.325867 *  0.893902 *   0.87073    1.000000    
    152 O2    c    0.666594 *  0.899659 *  0.230538 *   0.87073    1.000000    
    153 O3    c    0.087435 *  0.786877 *  0.564100 *   1.33043    1.000000    
    154 O2    c    0.767242 *  0.663212 *  0.396186 *   0.87073    1.000000    
    155 O2    c    0.321969 *  0.096747 *  0.728383 *   0.87073    1.000000    
    156 O2    c    0.886813 *  0.226050 *  0.059845 *   0.87073    1.000000    
    157 O2    c    0.312586 *  0.221629 *  0.433118 *   0.87073    1.000000    
    158 O2    c    0.887940 *  0.664586 *  0.095803 *   0.87073    1.000000    
    159 O2    c    0.767533 *  0.096498 *  0.766269 *   0.87073    1.000000    
    160 O2    c    0.670388 *  0.769569 *  0.931645 *   0.87073    1.000000    
    161 O2    c    0.091718 *  0.333191 *  0.598986 *   0.87073    1.000000    
    162 O2    c    0.216681 *  0.891290 *  0.267492 *   0.87073    1.000000    
    163 O2    c    0.577675 *  0.560754 *  0.987754 *   0.87073    1.000000    
    164 O2    c    0.429304 *  0.013205 *  0.322904 *   0.87073    1.000000    
    165 O2    c    0.975215 *  0.425169 *  0.651151 *   0.87073    1.000000    
    166 O2    c    0.409342 *  0.431221 *  0.488909 *   0.87073    1.000000    
    167 O2    c    0.556783 *  0.975357 *  0.820875 *   0.87073    1.000000    
    168 O3    c    0.998226 *  0.577614 *  0.153790 *   1.33043    1.000000    
    169 O2    c    0.553655 *  0.580031 *  0.341665 *   0.87073    1.000000    
    170 O2    c    0.010357 *  0.436853 *  0.006771 *   0.87073    1.000000    
    171 O2    c    0.409479 *  0.977354 *  0.672494 *   0.87073    1.000000    
    172 O2    c    0.438398 *  0.412719 *  0.840156 *   0.87073    1.000000    
    173 O3    c    0.952845 *  0.545913 *  0.501529 *   1.33043    1.000000    
    174 O2    c    0.576383 *  0.019017 *  0.175087 *   0.87073    1.000000    
    175 O2    c    0.567501 *  0.149947 *  0.249758 *   0.87073    1.000000    
    176 O2    c    0.833790 *  0.421964 *  0.579566 *   0.87073    1.000000    
    177 O2    c    0.581792 *  0.423552 *  0.914733 *   0.87073    1.000000    
    178 O2    c    0.415861 *  0.839999 *  0.746378 *   0.87073    1.000000    
    179 O3    c    0.150481 *  0.585776 *  0.076791 *   1.33043    1.000000    
    180 O2    c    0.413266 *  0.572615 *  0.415695 *   0.87073    1.000000    
    181 F     c    0.435372 *  0.886589 *  0.246889 *   0.56000    1.000000    
    182 F     c    0.093830 *  0.579038 *  0.569598 *   0.56000    1.000000    
    183 F     c    0.443202 *  0.553145 *  0.911394 *   0.56000    1.000000    
    184 F     c    0.548605 *  0.101906 *  0.745838 *   0.56000    1.000000    
    185 F     c    0.848778 *  0.432932 *  0.070562 *   0.56000    1.000000    
    186 F     c    0.540134 *  0.438523 *  0.413850 *   0.56000    1.000000    
    187 O2    s    0.920817 *  0.005050 *  0.998453 *  -2.87073    1.000000    
    188 O2    s    0.991151 *  0.915525 *  0.331216 *  -2.87073    1.000000    
    189 O2    s    0.072795 *  0.083638 *  0.664048 *  -2.87073    1.000000    
    190 O2    s    0.065200 *  0.995159 *  0.498335 *  -2.87073    1.000000    
    191 O2    s    0.997761 *  0.075471 *  0.829952 *  -2.87073    1.000000    
    192 O2    s    0.917885 *  0.925980 *  0.164730 *  -2.87073    1.000000    
    193 O2    s    0.344698 *  0.576787 *  0.332860 *  -2.87073    1.000000    
    194 O2    s    0.413683 *  0.774327 *  0.662992 *  -2.87073    1.000000    
    195 O2    s    0.221168 *  0.645472 *  0.993134 *  -2.87073    1.000000    
    196 O2    s    0.646320 *  0.415805 *  0.831231 *  -2.87073    1.000000    
    197 O2    s    0.568880 *  0.221124 *  0.168301 *  -2.87073    1.000000    
    198 O2    s    0.752363 *  0.334905 *  0.497783 *  -2.87073    1.000000    
    199 O3    s    0.571573 *  0.349483 *  0.997195 *  -3.33043    1.000000    
    200 O2    s    0.764340 *  0.418834 *  0.664004 *  -2.87073    1.000000    
    201 O2    s    0.637140 *  0.222076 *  0.332056 *  -2.87073    1.000000    
    202 O2    s    0.422540 *  0.642358 *  0.499148 *  -2.87073    1.000000    
    203 O3    s    0.227272 *  0.579217 *  0.167104 *  -3.33043    1.000000    
    204 O2    s    0.348972 *  0.767568 *  0.828968 *  -2.87073    1.000000    
    205 O2    s    0.119612 *  0.216881 *  0.966116 *  -2.87073    1.000000    
    206 O2    s    0.773762 *  0.894896 *  0.302335 *  -2.87073    1.000000    
    207 O2    s    0.093878 *  0.885498 *  0.638343 *  -2.87073    1.000000    
    208 O2    s    0.876846 *  0.767016 *  0.469542 *  -2.87073    1.000000    
    209 O2    s    0.214950 *  0.096804 *  0.800355 *  -2.87073    1.000000    
    210 O2    s    0.886016 *  0.114296 *  0.133111 *  -2.87073    1.000000    
    211 O2    s    0.207897 *  0.111979 *  0.361050 *  -2.87073    1.000000    
    212 O2    s    0.901149 *  0.791349 *  0.026317 *  -2.87073    1.000000    
    213 O2    s    0.876594 *  0.102222 *  0.694055 *  -2.87073    1.000000    
    214 O2    s    0.779468 *  0.878522 *  0.859351 *  -2.87073    1.000000    
    215 O2    s    0.091026 *  0.216188 *  0.527672 *  -2.87073    1.000000    
    216 O2    s    0.105251 *  0.888309 *  0.194734 *  -2.87073    1.000000    
    217 O2    s    0.917017 *  0.850725 *  0.247613 *  -2.87073    1.000000    
    218 O2    s    0.130954 *  0.067735 *  0.581603 *  -2.87073    1.000000    
    219 O2    s    0.928518 *  0.065122 *  0.913275 *  -2.87073    1.000000    
    220 O2    s    0.068106 *  0.143786 *  0.747067 *  -2.87073    1.000000    
    221 O2    s    0.847093 *  0.925433 *  0.081271 *  -2.87073    1.000000    
    222 O2    s    0.062751 *  0.922777 *  0.415070 *  -2.87073    1.000000    
    223 O2    s    0.906281 *  0.203767 *  0.975919 *  -2.87073    1.000000    
    224 O2    s    0.787515 *  0.694231 *  0.313646 *  -2.87073    1.000000    
    225 O2    s    0.294216 *  0.099311 *  0.646383 *  -2.87073    1.000000    
    226 O3    s    0.096376 *  0.800552 *  0.480603 *  -3.33043    1.000000    
    227 O2    s    0.203181 *  0.297437 *  0.811998 *  -2.87073    1.000000    
    228 O2    s    0.692167 *  0.899151 *  0.147906 *  -2.87073    1.000000    
    229 O2    s    0.193845 *  0.897126 *  0.350011 *  -2.87073    1.000000    
    230 O2    s    0.696732 *  0.798122 *  0.013798 *  -2.87073    1.000000    
    231 O2    s    0.089421 *  0.303700 *  0.682223 *  -2.87073    1.000000    
    232 O2    s    0.794007 *  0.092708 *  0.848448 *  -2.87073    1.000000    
    233 O2    s    0.287013 *  0.195734 *  0.515644 *  -2.87073    1.000000    
    234 O2    s    0.883071 *  0.698735 *  0.179222 *  -2.87073    1.000000    
    235 O2    s    0.317876 *  0.644144 *  0.249886 *  -2.87073    1.000000    
    236 O2    s    0.342783 *  0.677437 *  0.580142 *  -2.87073    1.000000    
    237 O2    s    0.320381 *  0.671953 *  0.911409 *  -2.87073    1.000000    
    238 O2    s    0.671527 *  0.349220 *  0.747801 *  -2.87073    1.000000    
    239 O3    s    0.620893 *  0.303814 *  0.085571 *  -3.33043    1.000000    
    240 O2    s    0.662285 *  0.315002 *  0.414252 *  -2.87073    1.000000    
    241 O2    s    0.371838 *  0.343135 *  0.964321 *  -2.87073    1.000000    
    242 O2    s    0.649384 *  0.025459 *  0.300963 *  -2.87073    1.000000    
    243 O2    s    0.958727 *  0.627828 *  0.631250 *  -2.87073    1.000000    
    244 O2    s    0.623653 *  0.648890 *  0.465904 *  -2.87073    1.000000    
    245 O2    s    0.338337 *  0.966207 *  0.798288 *  -2.87073    1.000000    
    246 O3    s    0.017162 *  0.363931 *  0.129098 *  -3.33043    1.000000    
    247 O2    s    0.333004 *  0.367589 *  0.362765 *  -2.87073    1.000000    
    248 O2    s    0.020830 *  0.654892 *  0.025748 *  -2.87073    1.000000    
    249 O2    s    0.622123 *  0.971630 *  0.694933 *  -2.87073    1.000000    
    250 O2    s    0.655786 *  0.624939 *  0.861621 *  -2.87073    1.000000    
    251 O2    s    0.960958 *  0.339963 *  0.529355 *  -2.87073    1.000000    
    252 O2    s    0.360555 *  0.018918 *  0.197061 *  -2.87073    1.000000    
    253 O3    s    0.763984 *  0.292389 *  0.004682 *  -3.33043    1.000000    
    254 O2    s    0.680466 *  0.454927 *  0.344569 *  -2.87073    1.000000    
    255 O2    s    0.532983 *  0.229248 *  0.677751 *  -2.87073    1.000000    
    256 O3    s    0.240122 *  0.691359 *  0.507449 *  -3.33043    1.000000    
    257 O2    s    0.307853 *  0.535370 *  0.841840 *  -2.87073    1.000000    
    258 O2    s    0.455888 *  0.767205 *  0.179479 *  -2.87073    1.000000    
    259 O2    s    0.298393 *  0.763779 *  0.318810 *  -2.87073    1.000000    
    260 O2    s    0.457614 *  0.691020 *  0.981696 *  -2.87073    1.000000    
    261 O2    s    0.221564 *  0.540780 *  0.648253 *  -2.87073    1.000000    
    262 O2    s    0.689158 *  0.226730 *  0.817075 *  -2.87073    1.000000    
    263 O2    s    0.522571 *  0.294898 *  0.483485 *  -2.87073    1.000000    
    264 O2    s    0.751146 *  0.458399 *  0.147578 *  -2.87073    1.000000    
    265 O3    s    0.777489 *  0.546905 *  0.022385 *  -3.33043    1.000000    
    266 O2    s    0.458076 *  0.246118 *  0.361625 *  -2.87073    1.000000    
    267 O2    s    0.744164 *  0.219245 *  0.695219 *  -2.87073    1.000000    
    268 O2    s    0.207714 *  0.469996 *  0.528180 *  -2.87073    1.000000    
    269 O2    s    0.528401 *  0.745154 *  0.859479 *  -2.87073    1.000000    
    270 O2    s    0.239470 *  0.771821 *  0.195799 *  -2.87073    1.000000    
    271 O2    s    0.522093 *  0.780399 *  0.302060 *  -2.87073    1.000000    
    272 O2    s    0.250323 *  0.468800 *  0.965040 *  -2.87073    1.000000    
    273 O2    s    0.207774 *  0.745749 *  0.631764 *  -2.87073    1.000000    
    274 O2    s    0.467325 *  0.212873 *  0.800002 *  -2.87073    1.000000    
    275 O2    s    0.734046 *  0.515798 *  0.467662 *  -2.87073    1.000000    
    276 O2    s    0.774593 *  0.255820 *  0.132095 *  -2.87073    1.000000    
    277 O2    s    0.235619 *  0.335494 *  0.894799 *  -2.87073    1.000000    
    278 O2    s    0.656969 *  0.899191 *  0.231414 *  -2.87073    1.000000    
    279 O3    s    0.087668 *  0.777152 *  0.566774 *  -3.33043    1.000000    
    280 O2    s    0.757521 *  0.653980 *  0.397008 *  -2.87073    1.000000    
    281 O2    s    0.331570 *  0.096920 *  0.729275 *  -2.87073    1.000000    
    282 O2    s    0.887274 *  0.234306 *  0.060764 *  -2.87073    1.000000    
    283 O2    s    0.322577 *  0.230854 *  0.432240 *  -2.87073    1.000000    
    284 O2    s    0.887326 *  0.656503 *  0.095483 *  -2.87073    1.000000    
    285 O2    s    0.758125 *  0.096866 *  0.765328 *  -2.87073    1.000000    
    286 O2    s    0.660788 *  0.760225 *  0.930680 *  -2.87073    1.000000    
    287 O2    s    0.091786 *  0.341489 *  0.598235 *  -2.87073    1.000000    
    288 O2    s    0.225930 *  0.891260 *  0.266564 *  -2.87073    1.000000    
    289 O2    s    0.574096 *  0.561667 *  0.984460 *  -2.87073    1.000000    
    290 O2    s    0.429090 *  0.008836 *  0.319614 *  -2.87073    1.000000    
    291 O2    s    0.979001 *  0.428248 *  0.648392 *  -2.87073    1.000000    
    292 O2    s    0.413817 *  0.430853 *  0.485493 *  -2.87073    1.000000    
    293 O2    s    0.557180 *  0.980155 *  0.817555 *  -2.87073    1.000000    
    294 O3    s    0.994161 *  0.575339 *  0.150908 *  -3.33043    1.000000    
    295 O2    s    0.553696 *  0.574835 *  0.344953 *  -2.87073    1.000000    
    296 O2    s    0.007049 *  0.437476 *  0.009261 *  -2.87073    1.000000    
    297 O2    s    0.414466 *  0.982382 *  0.675922 *  -2.87073    1.000000    
    298 O2    s    0.438252 *  0.417795 *  0.843429 *  -2.87073    1.000000    
    299 O3    s    0.955741 *  0.542336 *  0.505609 *  -3.33043    1.000000    
    300 O2    s    0.571383 *  0.013630 *  0.178485 *  -2.87073    1.000000    
    301 O2    s    0.562188 *  0.138980 *  0.249787 *  -2.87073    1.000000    
    302 O2    s    0.843307 *  0.426618 *  0.579853 *  -2.87073    1.000000    
    303 O2    s    0.576297 *  0.428242 *  0.914356 *  -2.87073    1.000000    
    304 O2    s    0.421358 *  0.851008 *  0.746362 *  -2.87073    1.000000    
    305 O3    s    0.141533 *  0.580867 *  0.076273 *  -3.33043    1.000000    
    306 O2    s    0.419074 *  0.567235 *  0.415578 *  -2.87073    1.000000    
    307 F     s    0.434742 *  0.885640 *  0.246605 *  -1.56000    1.000000    
    308 F     s    0.094011 *  0.585804 *  0.566611 *  -1.56000    1.000000    
    309 F     s    0.442505 *  0.553737 *  0.911189 *  -1.56000    1.000000    
    310 F     s    0.548972 *  0.102345 *  0.745664 *  -1.56000    1.000000    
    311 F     s    0.838926 *  0.429182 *  0.068252 *  -1.56000    1.000000    
    312 F     s    0.540150 *  0.438082 *  0.413763 *  -1.56000    1.000000    
--------------------------------------------------------------------------------



********************************************************************************
*  General input information                                                   *
********************************************************************************

  Species output for all configurations : 

--------------------------------------------------------------------------------
  Species    Type    Atomic    Atomic    Charge       Radii (Angs)     Library
                     Number     Mass       (e)     Cova   Ionic  VDW   Symbol
--------------------------------------------------------------------------------
    Si       Core       14      28.09   4.000000   1.200  0.000  2.100          
    O1       Core        8      16.00   1.733957   0.730  0.000  1.360          
    O1       Shell       8       0.00  -3.733957   0.730  0.000  1.360          
    O2       Core        8      16.00   0.870733   0.730  0.000  1.360          
    O2       Shell       8       0.00  -2.870733   0.730  0.000  1.360          
    O3       Core        8      16.00   1.330431   0.730  0.000  1.360          
    O3       Shell       8       0.00  -3.330431   0.730  0.000  1.360          
    F        Core        9      19.00   0.560000   0.710  0.000  1.300          
    F        Shell       9       0.00  -1.560000   0.710  0.000  1.300          
    Ge       Core       32      72.61   4.000000   1.170  0.000  1.750          
--------------------------------------------------------------------------------


  Lattice summation method               =    Ewald          (3-D)
                                         =    Parry          (2-D)
                                         =    Saunders et al (1-D)
  Accuracy factor for lattice sums       =   12.000


  Time limit = Infinity

  Maximum range for interatomic potentials =        16.000000 Angstroms

  Taper potentials to zero over   1.0000 Angstroms using polynomial

  General interatomic potentials :

--------------------------------------------------------------------------------
Atom  Types   Potential         A         B         C         D     Cutoffs(Ang)
  1     2                                                            Min    Max 
--------------------------------------------------------------------------------
Si   c O1   s Buckingham    0.132E+04 0.318      10.1      0.00     0.000 16.000
Si   c O2   s Buckingham    0.132E+04 0.318      10.1      0.00     0.000 16.000
Si   c O3   s Buckingham    0.132E+04 0.318      10.1      0.00     0.000 16.000
Ge   c O1   s Buckingham    0.150E+04 0.326      16.8      0.00     0.000 16.000
Ge   c O2   s Buckingham    0.150E+04 0.326      16.8      0.00     0.000 16.000
Ge   c O3   s Buckingham    0.150E+04 0.326      16.8      0.00     0.000 16.000
O1   s O1   s Buckingham    0.228E+05 0.149      10.9      0.00     0.000 16.000
O1   s O2   s Buckingham    0.228E+05 0.149      10.9      0.00     0.000 16.000
O1   s O3   s Buckingham    0.228E+05 0.149      10.9      0.00     0.000 16.000
O2   s O2   s Buckingham    0.228E+05 0.149      10.9      0.00     0.000 16.000
O2   s O3   s Buckingham    0.228E+05 0.149      10.9      0.00     0.000 16.000
O3   s O3   s Buckingham    0.228E+05 0.149      10.9      0.00     0.000 16.000
Si   c F    s Buckingham     977.     0.282      0.00      0.00     0.000 16.000
Ge   c F    s Buckingham     681.     0.320      0.00      0.00     0.000 16.000
F    s F    s Buckingham     540.     0.262      0.00      0.00     0.000 16.000
O1   s F    s Buckingham    0.168E+04 0.268      0.00      0.00     0.000 16.000
O2   s F    s Buckingham    0.168E+04 0.268      0.00      0.00     0.000 16.000
O3   s F    s Buckingham    0.168E+04 0.268      0.00      0.00     0.000 16.000
O2   c O2   s Spring (c-s)   76.0      0.00      0.00      0.00     0.000  0.800
O3   c O3   s Spring (c-s)   128.      0.00      0.00      0.00     0.000  0.800
O1   c O1   s Spring (c-s)   180.      0.00      0.00      0.00     0.000  0.800
F    c F    s Spring (c-s)   33.5      0.00      0.00      0.00     0.000  0.800
--------------------------------------------------------------------------------

  General Three-body potentials :

  Harmonic form:

--------------------------------------------------------------------------------
Atom    Atom    Atom           Force Constants            Theta     Cutoffs  
  1       2       3     (eVrad**-2/eVrad**-3/eVrad**-4)   (deg)  1-2  1-3  2-3
--------------------------------------------------------------------------------
Si    c O1    s O1    s  1.261        0.0000    0.0000   109.470 0.00 0.00 0.00
                                                                 1.90 1.90 3.50
Si    c O1    s O2    s  1.261        0.0000    0.0000   109.470 0.00 0.00 0.00
                                                                 1.90 1.90 3.50
Si    c O2    s O2    s  1.261        0.0000    0.0000   109.470 0.00 0.00 0.00
                                                                 1.90 1.90 3.50
--------------------------------------------------------------------------------

********************************************************************************
*  Output for configuration   1                                                *
********************************************************************************


  Components of energy : 

--------------------------------------------------------------------------------
  Interatomic potentials     =        2064.19341777 eV
  Three-body potentials      =           0.46327244 eV
  Monopole - monopole (real) =       -6611.51472569 eV
  Monopole - monopole (recip)=       -3173.45263509 eV
  Monopole - monopole (total)=       -9784.96736078 eV
  Neutralising energy        =          -6.46432382 eV
--------------------------------------------------------------------------------
  Total lattice energy       =       -7726.77499439 eV
--------------------------------------------------------------------------------
  Total lattice energy       =         -745515.6724 kJ/(mole unit cells)
--------------------------------------------------------------------------------


  Number of variables =      939

  Maximum number of calculations  =          5000
  Maximum Hessian update interval =            10
  Maximum step size               =   0.100000000
  Maximum parameter tolerance     =   0.000010000
  Maximum function  tolerance     =   0.000010000
  Maximum gradient  tolerance     =   0.001000000
  Maximum gradient  component     =   0.010000000

  Symmetry not applied to optimisation

  Cell parameters to be optimised using strains

  Newton-Raphson optimiser to be used

  BFGS hessian update to be used

  Dumpfile to be written after every cycle

  Start of bulk optimisation :

  Cycle:      0 Energy:     -7726.774994  Gnorm:      0.000354  CPU:    2.060
  ** Hessian calculated **
  Cycle:      1 Energy:     -7726.786037  Gnorm:      0.000325  CPU:    6.661
  Cycle:      2 Energy:     -7726.798529  Gnorm:      0.000471  CPU:   10.886
  Cycle:      3 Energy:     -7726.810329  Gnorm:      0.000877  CPU:   15.112
  Cycle:      4 Energy:     -7726.813896  Gnorm:      0.000777  CPU:   19.337
  Cycle:      5 Energy:     -7726.814789  Gnorm:      0.000484  CPU:   23.563
  Cycle:      6 Energy:     -7726.815014  Gnorm:      0.000271  CPU:   27.790
  Cycle:      7 Energy:     -7726.815063  Gnorm:      0.000168  CPU:   31.335
  Cycle:      8 Energy:     -7726.815077  Gnorm:      0.000119  CPU:   34.200
  Cycle:      9 Energy:     -7726.815084  Gnorm:      0.000084  CPU:   37.064
  Cycle:     10 Energy:     -7726.815087  Gnorm:      0.000059  CPU:   39.928
  ** Hessian calculated **
  Cycle:     11 Energy:     -7726.815087  Gnorm:      0.000031  CPU:   44.513


  **** Optimisation achieved ****


  Final energy =   -7726.81508743 eV
  Final Gnorm  =       0.00002292

  Components of energy : 

--------------------------------------------------------------------------------
  Interatomic potentials     =        2064.35852794 eV
  Three-body potentials      =           0.46449629 eV
  Monopole - monopole (real) =       -6612.49603832 eV
  Monopole - monopole (recip)=       -3172.67932310 eV
  Monopole - monopole (total)=       -9785.17536142 eV
  Neutralising energy        =          -6.46275023 eV
--------------------------------------------------------------------------------
  Total lattice energy       =       -7726.81508743 eV
--------------------------------------------------------------------------------
  Total lattice energy       =         -745519.5408 kJ/(mole unit cells)
--------------------------------------------------------------------------------

  Final fractional coordinates of atoms :

--------------------------------------------------------------------------------
   No.  Atomic        x           y          z          Radius
        Label       (Frac)      (Frac)     (Frac)       (Angs) 
--------------------------------------------------------------------------------
     1  Ge    c     0.699600    0.375700    0.033890    0.000000
     2  Si    c     0.593666    0.300247    0.364293    0.000000
     3  Si    c     0.659095    0.289196    0.697367    0.000000
     4  Si    c     0.289259    0.612609    0.529260    0.000000
     5  Si    c     0.363267    0.667150    0.862975    0.000000
     6  Si    c     0.300447    0.681486    0.201294    0.000000
     7  Si    c     0.353229    0.680563    0.301747    0.000000
     8  Si    c     0.307392    0.611359    0.963292    0.000000
     9  Si    c     0.282101    0.671944    0.631238    0.000000
    10  Si    c     0.607128    0.290998    0.798259    0.000000
    11  Si    c     0.648486    0.348763    0.464915    0.000000
    12  Si    c     0.661674    0.299811    0.131810    0.000000
    13  Si    c     0.520653    0.409042    0.965992    0.000000
    14  Si    c     0.554908    0.089357    0.300367    0.000000
    15  Si    c     0.865527    0.461334    0.630405    0.000000
    16  Si    c     0.455031    0.559333    0.467360    0.000000
    17  Si    c     0.401098    0.879402    0.798925    0.000000
    18  Ge    c     0.087367    0.519224    0.133227    0.000000
    19  Si    c     0.394796    0.508491    0.366097    0.000000
    20  Si    c     0.095421    0.575891    0.027805    0.000000
    21  Si    c     0.452306    0.881373    0.697037    0.000000
    22  Si    c     0.569535    0.463029    0.863082    0.000000
    23  Si    c     0.861909    0.397884    0.527559    0.000000
    24  Si    c     0.499217    0.086680    0.198493    0.000000
    25  Si    c     0.288616    0.391733    0.848370    0.000000
    26  Si    c     0.576206    0.882925    0.184457    0.000000
    27  Ge    c     0.078315    0.671530    0.521546    0.000000
    28  Si    c     0.674999    0.579283    0.350688    0.000000
    29  Si    c     0.380128    0.088810    0.682612    0.000000
    30  Si    c     0.881877    0.286761    0.011871    0.000000
    31  Si    c     0.372804    0.276075    0.480410    0.000000
    32  Si    c     0.865232    0.585209    0.145155    0.000000
    33  Si    c     0.683393    0.089254    0.813501    0.000000
    34  Si    c     0.586479    0.689750    0.978294    0.000000
    35  Si    c     0.078978    0.389957    0.646251    0.000000
    36  Si    c     0.272321    0.878747    0.314738    0.000000
    37  Si    c     0.240385    0.332834    0.948955    0.000000
    38  Si    c     0.635021    0.890501    0.285654    0.000000
    39  Si    c     0.068157    0.745443    0.617231    0.000000
    40  Si    c     0.732859    0.634053    0.451672    0.000000
    41  Si    c     0.324445    0.080975    0.783589    0.000000
    42  Si    c     0.880111    0.233043    0.115179    0.000000
    43  Si    c     0.313497    0.228784    0.379527    0.000000
    44  Si    c     0.892027    0.657114    0.041959    0.000000
    45  Si    c     0.731282    0.082092    0.712573    0.000000
    46  Si    c     0.644143    0.740510    0.877378    0.000000
    47  Si    c     0.071229    0.326534    0.544647    0.000000
    48  Si    c     0.219434    0.882340    0.213263    0.000000
    49  Si    c     0.961822    0.113954    0.963817    0.000000
    50  Si    c     0.852570    0.828189    0.299684    0.000000
    51  Si    c     0.130047    0.020061    0.633442    0.000000
    52  Si    c     0.013045    0.856553    0.467892    0.000000
    53  Si    c     0.107464    0.143285    0.798535    0.000000
    54  Si    c     0.822809    0.955171    0.132597    0.000000
    55  Si    c     0.095207    0.949160    0.365828    0.000000
    56  Si    c     0.833858    0.874312    0.030621    0.000000
    57  Si    c     0.010525    0.143235    0.697865    0.000000
    58  Si    c     0.863721    0.019476    0.863449    0.000000
    59  Si    c     0.124331    0.101194    0.531052    0.000000
    60  Si    c     0.940809    0.831080    0.197601    0.000000
    61  O2    c     0.915686    0.999707    0.000081    0.000000
    62  O2    c     0.974625    0.907624    0.332174    0.000000
    63  O2    c     0.052380    0.065911    0.664877    0.000000
    64  O2    c     0.041869    0.980195    0.498736    0.000000
    65  O2    c     0.985669    0.063499    0.830965    0.000000
    66  O2    c     0.908558    0.920907    0.165895    0.000000
    67  O2    c     0.316801    0.558897    0.334817    0.000000
    68  O2    c     0.403733    0.755975    0.664578    0.000000
    69  O2    c     0.220625    0.648896    0.995179    0.000000
    70  O2    c     0.645736    0.413893    0.830645    0.000000
    71  O2    c     0.547834    0.215002    0.167825    0.000000
    72  O2    c     0.731485    0.307951    0.498011    0.000000
    73  O3    c     0.565016    0.333462    0.997615    0.000000
    74  O2    c     0.742348    0.411033    0.663660    0.000000
    75  O2    c     0.632024    0.216058    0.331726    0.000000
    76  O2    c     0.416073    0.640069    0.501178    0.000000
    77  O3    c     0.215971    0.559180    0.169145    0.000000
    78  O2    c     0.324076    0.752859    0.830710    0.000000
    79  O2    c     0.116178    0.203043    0.968847    0.000000
    80  O2    c     0.761740    0.891109    0.305628    0.000000
    81  O2    c     0.069999    0.867342    0.642253    0.000000
    82  O2    c     0.858277    0.756212    0.473142    0.000000
    83  O2    c     0.198195    0.080001    0.803807    0.000000
    84  O2    c     0.877830    0.107518    0.136794    0.000000
    85  O2    c     0.186754    0.103249    0.359152    0.000000
    86  O2    c     0.907819    0.794068    0.026110    0.000000
    87  O2    c     0.856468    0.080738    0.692369    0.000000
    88  O2    c     0.771155    0.866245    0.856958    0.000000
    89  O2    c     0.069119    0.199581    0.525563    0.000000
    90  O2    c     0.093581    0.882945    0.192665    0.000000
    91  O2    c     0.903240    0.842241    0.248631    0.000000
    92  O2    c     0.109835    0.052464    0.582459    0.000000
    93  O2    c     0.917847    0.053131    0.914281    0.000000
    94  O2    c     0.052583    0.129913    0.748022    0.000000
    95  O2    c     0.836600    0.917304    0.082100    0.000000
    96  O2    c     0.043375    0.911146    0.416318    0.000000
    97  O2    c     0.896639    0.199817    0.973466    0.000000
    98  O2    c     0.770835    0.676492    0.311680    0.000000
    99  O2    c     0.283221    0.092328    0.644345    0.000000
   100  O3    c     0.089205    0.786687    0.479814    0.000000
   101  O2    c     0.190373    0.294764    0.809764    0.000000
   102  O2    c     0.671596    0.880456    0.145988    0.000000
   103  O2    c     0.176425    0.879219    0.353162    0.000000
   104  O2    c     0.683723    0.789261    0.016539    0.000000
   105  O2    c     0.079009    0.295434    0.685561    0.000000
   106  O2    c     0.782293    0.090417    0.851962    0.000000
   107  O2    c     0.276454    0.179475    0.519148    0.000000
   108  O2    c     0.860021    0.681598    0.182651    0.000000
   109  O2    c     0.297514    0.621492    0.251445    0.000000
   110  O2    c     0.335957    0.669204    0.581034    0.000000
   111  O2    c     0.304466    0.667409    0.912887    0.000000
   112  O2    c     0.661982    0.347809    0.747511    0.000000
   113  O3    c     0.602018    0.293597    0.083034    0.000000
   114  O2    c     0.650560    0.295682    0.414290    0.000000
   115  O2    c     0.362611    0.323897    0.966735    0.000000
   116  O2    c     0.643377    0.022078    0.303197    0.000000
   117  O2    c     0.935037    0.616915    0.633238    0.000000
   118  O2    c     0.610896    0.645261    0.469156    0.000000
   119  O2    c     0.314220    0.948400    0.801646    0.000000
   120  O3    c     0.012366    0.352682    0.132056    0.000000
   121  O2    c     0.305595    0.352680    0.361518    0.000000
   122  O2    c     0.023783    0.660286    0.025827    0.000000
   123  O2    c     0.608717    0.950624    0.693508    0.000000
   124  O2    c     0.654814    0.619311    0.858931    0.000000
   125  O2    c     0.938257    0.317240    0.527673    0.000000
   126  O2    c     0.342405    0.014408    0.194487    0.000000
   127  O3    c     0.751577    0.284409    0.001371    0.000000
   128  O2    c     0.669830    0.443632    0.341764    0.000000
   129  O2    c     0.515668    0.221510    0.674655    0.000000
   130  O3    c     0.228398    0.687228    0.504482    0.000000
   131  O2    c     0.288672    0.525262    0.839472    0.000000
   132  O2    c     0.441732    0.748864    0.177048    0.000000
   133  O2    c     0.275448    0.746718    0.322854    0.000000
   134  O2    c     0.451382    0.688665    0.985694    0.000000
   135  O2    c     0.210688    0.526401    0.651721    0.000000
   136  O2    c     0.683088    0.222907    0.820276    0.000000
   137  O2    c     0.505045    0.272391    0.487043    0.000000
   138  O2    c     0.731601    0.449174    0.150241    0.000000
   139  O3    c     0.766692    0.544055    0.019634    0.000000
   140  O2    c     0.437247    0.225862    0.359387    0.000000
   141  O2    c     0.735991    0.210227    0.692767    0.000000
   142  O2    c     0.196016    0.455509    0.526733    0.000000
   143  O2    c     0.519844    0.744007    0.857514    0.000000
   144  O2    c     0.216510    0.754706    0.193738    0.000000
   145  O2    c     0.509506    0.765626    0.305887    0.000000
   146  O2    c     0.234882    0.455510    0.968874    0.000000
   147  O2    c     0.193673    0.738047    0.634745    0.000000
   148  O2    c     0.450962    0.206867    0.802965    0.000000
   149  O2    c     0.724443    0.504014    0.470752    0.000000
   150  O2    c     0.758791    0.241337    0.134497    0.000000
   151  O2    c     0.216902    0.316429    0.894549    0.000000
   152  O2    c     0.651035    0.888684    0.231201    0.000000
   153  O3    c     0.070990    0.773341    0.564545    0.000000
   154  O2    c     0.749869    0.650399    0.396985    0.000000
   155  O2    c     0.306589    0.084125    0.729170    0.000000
   156  O2    c     0.877847    0.218365    0.060548    0.000000
   157  O2    c     0.295610    0.208551    0.433944    0.000000
   158  O2    c     0.881408    0.657922    0.097295    0.000000
   159  O2    c     0.751980    0.083755    0.766935    0.000000
   160  O2    c     0.661416    0.759974    0.931797    0.000000
   161  O2    c     0.074766    0.319341    0.599424    0.000000
   162  O2    c     0.201542    0.880495    0.267746    0.000000
   163  O2    c     0.570965    0.551266    0.987731    0.000000
   164  O2    c     0.413409    0.002971    0.322761    0.000000
   165  O2    c     0.957645    0.410894    0.651213    0.000000
   166  O2    c     0.392999    0.417145    0.490181    0.000000
   167  O2    c     0.542806    0.964881    0.822028    0.000000
   168  O3    c     0.984866    0.565709    0.155828    0.000000
   169  O2    c     0.536188    0.568309    0.342822    0.000000
   170  O2    c     0.006332    0.431646    0.008651    0.000000
   171  O2    c     0.392319    0.962741    0.673545    0.000000
   172  O2    c     0.427472    0.404281    0.839871    0.000000
   173  O3    c     0.937257    0.532484    0.501547    0.000000
   174  O2    c     0.561178    0.007709    0.175159    0.000000
   175  O2    c     0.551684    0.139037    0.249295    0.000000
   176  O2    c     0.817153    0.408335    0.579328    0.000000
   177  O2    c     0.572157    0.414135    0.914114    0.000000
   178  O2    c     0.400549    0.827469    0.747860    0.000000
   179  O3    c     0.142418    0.578482    0.079291    0.000000
   180  O2    c     0.396324    0.559495    0.417268    0.000000
   181  F     c     0.419248    0.874408    0.247091    0.000000
   182  F     c     0.076817    0.565295    0.570076    0.000000
   183  F     c     0.434078    0.543436    0.911819    0.000000
   184  F     c     0.532841    0.088824    0.746395    0.000000
   185  F     c     0.844266    0.428703    0.071577    0.000000
   186  F     c     0.522408    0.425114    0.414695    0.000000
   187  O2    s     0.911551    0.998341    0.999457    0.000000
   188  O2    s     0.974102    0.903188    0.332200    0.000000
   189  O2    s     0.056356    0.069605    0.665109    0.000000
   190  O2    s     0.048196    0.981156    0.499214    0.000000
   191  O2    s     0.985721    0.067569    0.830950    0.000000
   192  O2    s     0.902767    0.914818    0.165741    0.000000
   193  O2    s     0.328631    0.566463    0.334561    0.000000
   194  O2    s     0.395878    0.759880    0.664366    0.000000
   195  O2    s     0.216345    0.637504    0.995359    0.000000
   196  O2    s     0.634043    0.406105    0.830546    0.000000
   197  O2    s     0.554537    0.210332    0.167301    0.000000
   198  O2    s     0.736172    0.321052    0.497632    0.000000
   199  O3    s     0.569485    0.344790    0.996650    0.000000
   200  O2    s     0.746822    0.403898    0.663605    0.000000
   201  O2    s     0.619973    0.211343    0.331766    0.000000
   202  O2    s     0.406689    0.628756    0.500652    0.000000
   203  O3    s     0.213612    0.567676    0.169311    0.000000
   204  O2    s     0.336115    0.757418    0.830660    0.000000
   205  O2    s     0.112116    0.206612    0.966300    0.000000
   206  O2    s     0.758048    0.884426    0.302932    0.000000
   207  O2    s     0.076109    0.871145    0.638885    0.000000
   208  O2    s     0.860242    0.753085    0.470319    0.000000
   209  O2    s     0.201651    0.086814    0.801177    0.000000
   210  O2    s     0.872072    0.104053    0.134105    0.000000
   211  O2    s     0.190318    0.100139    0.361938    0.000000
   212  O2    s     0.898297    0.788588    0.028213    0.000000
   213  O2    s     0.860131    0.087620    0.695019    0.000000
   214  O2    s     0.768024    0.869754    0.859722    0.000000
   215  O2    s     0.075035    0.202908    0.528125    0.000000
   216  O2    s     0.090381    0.877364    0.195294    0.000000
   217  O2    s     0.901831    0.839418    0.248566    0.000000
   218  O2    s     0.113760    0.054298    0.582459    0.000000
   219  O2    s     0.916716    0.056196    0.914135    0.000000
   220  O2    s     0.053912    0.132968    0.747916    0.000000
   221  O2    s     0.834710    0.916847    0.082134    0.000000
   222  O2    s     0.046198    0.909833    0.415869    0.000000
   223  O2    s     0.902274    0.199640    0.976483    0.000000
   224  O2    s     0.769792    0.682740    0.314363    0.000000
   225  O2    s     0.276960    0.084368    0.647089    0.000000
   226  O3    s     0.079905    0.787032    0.481186    0.000000
   227  O2    s     0.191416    0.288284    0.812467    0.000000
   228  O2    s     0.677822    0.888606    0.148516    0.000000
   229  O2    s     0.177960    0.886458    0.350460    0.000000
   230  O2    s     0.689961    0.788291    0.014162    0.000000
   231  O2    s     0.071915    0.289692    0.682672    0.000000
   232  O2    s     0.780763    0.082886    0.849255    0.000000
   233  O2    s     0.270292    0.181171    0.516399    0.000000
   234  O2    s     0.869060    0.687639    0.180430    0.000000
   235  O2    s     0.303517    0.633705    0.251441    0.000000
   236  O2    s     0.325796    0.664022    0.581261    0.000000
   237  O2    s     0.310740    0.661632    0.912964    0.000000
   238  O2    s     0.656163    0.336095    0.747501    0.000000
   239  O3    s     0.614641    0.299589    0.084939    0.000000
   240  O2    s     0.644488    0.301623    0.414351    0.000000
   241  O2    s     0.364776    0.333360    0.964677    0.000000
   242  O2    s     0.633393    0.015186    0.301054    0.000000
   243  O2    s     0.941172    0.613591    0.631313    0.000000
   244  O2    s     0.607127    0.634918    0.467102    0.000000
   245  O2    s     0.324234    0.955242    0.799457    0.000000
   246  O3    s     0.004764    0.353651    0.130413    0.000000
   247  O2    s     0.315577    0.355727    0.363874    0.000000
   248  O2    s     0.017892    0.651289    0.027650    0.000000
   249  O2    s     0.605430    0.957294    0.695884    0.000000
   250  O2    s     0.644958    0.615994    0.861290    0.000000
   251  O2    s     0.944761    0.326366    0.529484    0.000000
   252  O2    s     0.345687    0.008042    0.196857    0.000000
   253  O3    s     0.762086    0.290827    0.004742    0.000000
   254  O2    s     0.662551    0.443114    0.345035    0.000000
   255  O2    s     0.516195    0.214497    0.677877    0.000000
   256  O3    s     0.224336    0.678330    0.508294    0.000000
   257  O2    s     0.296297    0.525811    0.842834    0.000000
   258  O2    s     0.441569    0.756221    0.180341    0.000000
   259  O2    s     0.283107    0.753743    0.319793    0.000000
   260  O2    s     0.450513    0.680880    0.982619    0.000000
   261  O2    s     0.203880    0.526700    0.649013    0.000000
   262  O2    s     0.675352    0.215846    0.817277    0.000000
   263  O2    s     0.505838    0.280691    0.484003    0.000000
   264  O2    s     0.738873    0.449089    0.147899    0.000000
   265  O3    s     0.775998    0.545251    0.022951    0.000000
   266  O2    s     0.440319    0.234032    0.362027    0.000000
   267  O2    s     0.727484    0.204593    0.695342    0.000000
   268  O2    s     0.191378    0.456834    0.528931    0.000000
   269  O2    s     0.517063    0.735609    0.860184    0.000000
   270  O2    s     0.224845    0.760880    0.196404    0.000000
   271  O2    s     0.506807    0.770436    0.303263    0.000000
   272  O2    s     0.243013    0.458713    0.966231    0.000000
   273  O2    s     0.190138    0.731627    0.632572    0.000000
   274  O2    s     0.453570    0.201891    0.800388    0.000000
   275  O2    s     0.717185    0.501757    0.468096    0.000000
   276  O2    s     0.762155    0.246431    0.132148    0.000000
   277  O2    s     0.226865    0.326068    0.895397    0.000000
   278  O2    s     0.641471    0.888274    0.232056    0.000000
   279  O3    s     0.071139    0.763598    0.567247    0.000000
   280  O2    s     0.740201    0.641185    0.397798    0.000000
   281  O2    s     0.316201    0.084283    0.730040    0.000000
   282  O2    s     0.878440    0.226671    0.061466    0.000000
   283  O2    s     0.305594    0.217786    0.433063    0.000000
   284  O2    s     0.880713    0.649998    0.096884    0.000000
   285  O2    s     0.742621    0.084150    0.766016    0.000000
   286  O2    s     0.651767    0.750600    0.930876    0.000000
   287  O2    s     0.074842    0.327657    0.598662    0.000000
   288  O2    s     0.210811    0.880495    0.266865    0.000000
   289  O2    s     0.567359    0.552365    0.984467    0.000000
   290  O2    s     0.413164    0.998539    0.319514    0.000000
   291  O2    s     0.961501    0.414012    0.648462    0.000000
   292  O2    s     0.397431    0.416830    0.486741    0.000000
   293  O2    s     0.543232    0.969608    0.818687    0.000000
   294  O3    s     0.980985    0.563779    0.152869    0.000000
   295  O2    s     0.536300    0.563086    0.346093    0.000000
   296  O2    s     0.002939    0.432262    0.011067    0.000000
   297  O2    s     0.397403    0.967863    0.676946    0.000000
   298  O2    s     0.427284    0.409192    0.843193    0.000000
   299  O3    s     0.939973    0.528798    0.505642    0.000000
   300  O2    s     0.556237    0.002505    0.178539    0.000000
   301  O2    s     0.546457    0.128215    0.249326    0.000000
   302  O2    s     0.826659    0.412943    0.579633    0.000000
   303  O2    s     0.566786    0.418913    0.913769    0.000000
   304  O2    s     0.406046    0.838484    0.747777    0.000000
   305  O3    s     0.133430    0.573483    0.078634    0.000000
   306  O2    s     0.402176    0.554146    0.417109    0.000000
   307  F     s     0.418471    0.873201    0.246762    0.000000
   308  F     s     0.077041    0.572171    0.567046    0.000000
   309  F     s     0.433394    0.544030    0.911611    0.000000
   310  F     s     0.533171    0.089229    0.746210    0.000000
   311  F     s     0.834311    0.425157    0.069058    0.000000
   312  F     s     0.522372    0.424642    0.414612    0.000000
--------------------------------------------------------------------------------

  Final Cartesian lattice vectors (Angstroms) :

       11.971480    0.003085   -0.003056
       -6.048947   10.372791    0.010665
       -0.197156    0.080453   29.406732


  Final cell parameters and derivatives :

--------------------------------------------------------------------------------
       a           11.971481 Angstrom     dE/de1(xx)     0.002247 eV/strain
       b           12.007692 Angstrom     dE/de2(yy)     0.001599 eV/strain
       c           29.407503 Angstrom     dE/de3(zz)     0.003210 eV/strain
       alpha       89.620196 Degrees      dE/de4(yz)    -0.000309 eV/strain
       beta        90.398715 Degrees      dE/de5(xz)     0.000097 eV/strain
       gamma      120.234058 Degrees      dE/de6(xy)     0.000367 eV/strain
--------------------------------------------------------------------------------

  Primitive cell volume =          3652.192990 Angs**3

  Density of cell =      1.751849 g/cm**3

  Non-primitive cell volume =          3652.192990 Angs**3


  Final internal derivatives :

--------------------------------------------------------------------------------
   No.  Atomic          a             b             c           Radius
        Label          (eV)          (eV)          (eV)        (eV/Angs)
--------------------------------------------------------------------------------
      1 Ge    c       0.000000      0.000000      0.000000      0.000000
      2 Si    c       0.000012      0.000231      0.000543      0.000000
      3 Si    c       0.000040      0.000058     -0.000802      0.000000
      4 Si    c       0.000063      0.000025      0.000130      0.000000
      5 Si    c       0.000138     -0.000024      0.000155      0.000000
      6 Si    c       0.000328     -0.000764      0.000922      0.000000
      7 Si    c       0.000399      0.000299     -0.000414      0.000000
      8 Si    c       0.000652     -0.000299     -0.000927      0.000000
      9 Si    c       0.000172      0.000070     -0.000224      0.000000
     10 Si    c      -0.000170     -0.000342     -0.000281      0.000000
     11 Si    c       0.000077      0.000063     -0.000070      0.000000
     12 Si    c       0.000626     -0.000222      0.009305      0.000000
     13 Si    c      -0.002049      0.001840     -0.005014      0.000000
     14 Si    c      -0.000040     -0.000123     -0.000156      0.000000
     15 Si    c       0.000007     -0.000056     -0.000137      0.000000
     16 Si    c       0.000127      0.000105     -0.000059      0.000000
     17 Si    c       0.000130      0.000142      0.000513      0.000000
     18 Ge    c       0.000592     -0.000217      0.002259      0.000000
     19 Si    c       0.000228      0.000185      0.000202      0.000000
     20 Si    c      -0.000469     -0.000186     -0.002040      0.000000
     21 Si    c       0.000216      0.000070     -0.000130      0.000000
     22 Si    c      -0.000318      0.000246     -0.000374      0.000000
     23 Si    c       0.000027      0.000042     -0.000068      0.000000
     24 Si    c      -0.000131      0.000130      0.000992      0.000000
     25 Si    c       0.000197     -0.000281     -0.000455      0.000000
     26 Si    c       0.000429     -0.000068      0.000770      0.000000
     27 Ge    c       0.000108      0.000143      0.000048      0.000000
     28 Si    c       0.000222      0.000308     -0.000155      0.000000
     29 Si    c      -0.000044      0.000082     -0.000395      0.000000
     30 Si    c       0.000891     -0.000142     -0.002779      0.000000
     31 Si    c       0.000026     -0.000048      0.000129      0.000000
     32 Si    c       0.000173      0.000556      0.002957      0.000000
     33 Si    c      -0.000021     -0.000194      0.000353      0.000000
     34 Si    c      -0.000127      0.000080     -0.000116      0.000000
     35 Si    c       0.000096     -0.000129     -0.000145      0.000000
     36 Si    c       0.000092      0.000236     -0.000309      0.000000
     37 Si    c      -0.000081     -0.000058      0.000027      0.000000
     38 Si    c       0.000045     -0.000018     -0.000562      0.000000
     39 Si    c       0.000069      0.000059     -0.000432      0.000000
     40 Si    c       0.000166      0.000237     -0.000111      0.000000
     41 Si    c      -0.000027      0.000098      0.000330      0.000000
     42 Si    c       0.001173     -0.000674      0.001191      0.000000
     43 Si    c       0.000096     -0.000008      0.000227      0.000000
     44 Si    c      -0.000327     -0.000063     -0.004565      0.000000
     45 Si    c       0.000081     -0.000102     -0.000199      0.000000
     46 Si    c       0.000114      0.000123     -0.000222      0.000000
     47 Si    c       0.000092      0.000034      0.000240      0.000000
     48 Si    c       0.000013      0.000328      0.000940      0.000000
     49 Si    c       0.000248     -0.000292      0.001216      0.000000
     50 Si    c       0.000198      0.000097      0.000058      0.000000
     51 Si    c       0.000139      0.000153     -0.000227      0.000000
     52 Si    c       0.000064      0.000062     -0.000375      0.000000
     53 Si    c       0.000276     -0.000032      0.000807      0.000000
     54 Si    c      -0.000074      0.000216      0.001028      0.000000
     55 Si    c       0.000029      0.000150      0.000235      0.000000
     56 Si    c      -0.000245      0.001248     -0.001036      0.000000
     57 Si    c      -0.000011      0.000071     -0.001198      0.000000
     58 Si    c       0.000203      0.000140     -0.000433      0.000000
     59 Si    c       0.000198      0.000045      0.000130      0.000000
     60 Si    c       0.000033      0.000195      0.000220      0.000000
     61 O2    c       0.000197     -0.000102      0.000184      0.000000
     62 O2    c       0.000200      0.000088     -0.000039      0.000000
     63 O2    c       0.000080      0.000018     -0.000005      0.000000
     64 O2    c       0.000175      0.000073      0.000040      0.000000
     65 O2    c      -0.000034     -0.000210      0.000079      0.000000
     66 O2    c       0.000121      0.000136      0.000132      0.000000
     67 O2    c       0.000094      0.000222     -0.000393      0.000000
     68 O2    c      -0.000041     -0.000014     -0.000119      0.000000
     69 O2    c      -0.000260      0.000539      0.000458      0.000000
     70 O2    c       0.000069      0.000269      0.000408      0.000000
     71 O2    c      -0.000654     -0.000313      0.001572      0.000000
     72 O2    c       0.000283      0.000094      0.000218      0.000000
     73 O3    c      -0.000375     -0.003296      0.002021      0.000000
     74 O2    c       0.000222     -0.000035     -0.000030      0.000000
     75 O2    c       0.000239     -0.000090     -0.000281      0.000000
     76 O2    c       0.000153     -0.000022     -0.000147      0.000000
     77 O3    c       0.000346     -0.000680     -0.001352      0.000000
     78 O2    c      -0.000128      0.000226     -0.000480      0.000000
     79 O2    c       0.001250     -0.000007      0.000233      0.000000
     80 O2    c       0.000021      0.000151     -0.000171      0.000000
     81 O2    c       0.000106     -0.000046     -0.000196      0.000000
     82 O2    c       0.000206      0.000085     -0.000207      0.000000
     83 O2    c       0.000002      0.000071     -0.000203      0.000000
     84 O2    c       0.000210     -0.000205     -0.000010      0.000000
     85 O2    c       0.000180      0.000172      0.000122      0.000000
     86 O2    c       0.002550     -0.002397     -0.001327      0.000000
     87 O2    c      -0.000010      0.000004     -0.000015      0.000000
     88 O2    c       0.000087     -0.000079      0.000141      0.000000
     89 O2    c       0.000106      0.000120      0.000108      0.000000
     90 O2    c       0.000184      0.000032      0.000375      0.000000
     91 O2    c       0.000229      0.000014     -0.000594      0.000000
     92 O2    c       0.000107      0.000074      0.000172      0.000000
     93 O2    c       0.000079     -0.000532     -0.004085      0.000000
     94 O2    c       0.000249     -0.000177      0.001031      0.000000
     95 O2    c      -0.000179      0.000769      0.004706      0.000000
     96 O2    c       0.000110      0.000077      0.000297      0.000000
     97 O2    c      -0.001367      0.000975     -0.000283      0.000000
     98 O2    c       0.000097     -0.000021      0.000386      0.000000
     99 O2    c       0.000021     -0.000026      0.000137      0.000000
    100 O3    c       0.000012     -0.000027      0.000407      0.000000
    101 O2    c       0.000124     -0.000093     -0.000123      0.000000
    102 O2    c       0.000121      0.000196      0.000297      0.000000
    103 O2    c       0.000413     -0.000054     -0.000364      0.000000
    104 O2    c      -0.002331      0.000473     -0.000700      0.000000
    105 O2    c       0.000061      0.000234     -0.000481      0.000000
    106 O2    c       0.000033     -0.000027     -0.000076      0.000000
    107 O2    c       0.000074      0.000160     -0.000333      0.000000
    108 O2    c       0.000076      0.000411      0.001106      0.000000
    109 O2    c       0.000126      0.000219     -0.000242      0.000000
    110 O2    c      -0.000036      0.000003      0.000200      0.000000
    111 O2    c       0.000063      0.000017     -0.000271      0.000000
    112 O2    c       0.000076      0.000073     -0.000247      0.000000
    113 O3    c      -0.004102     -0.000960     -0.001578      0.000000
    114 O2    c       0.000069      0.000161     -0.000046      0.000000
    115 O2    c      -0.001023      0.000338     -0.000266      0.000000
    116 O2    c       0.000074      0.000242      0.000085      0.000000
    117 O2    c       0.000107     -0.000036     -0.000072      0.000000
    118 O2    c       0.000010      0.000028     -0.000072      0.000000
    119 O2    c       0.000129     -0.000041     -0.000103      0.000000
    120 O3    c       0.000761     -0.000433      0.000191      0.000000
    121 O2    c       0.000204      0.000051      0.000065      0.000000
    122 O2    c       0.000085      0.000514     -0.000678      0.000000
    123 O2    c      -0.000037      0.000049      0.000087      0.000000
    124 O2    c       0.000030     -0.000217      0.000206      0.000000
    125 O2    c       0.000168      0.000118      0.000076      0.000000
    126 O2    c       0.000003      0.000024      0.000158      0.000000
    127 O3    c      -0.001928      0.000307     -0.001077      0.000000
    128 O2    c       0.000089      0.000128      0.000089      0.000000
    129 O2    c       0.000197     -0.000016      0.000216      0.000000
    130 O3    c       0.000043     -0.000045      0.000292      0.000000
    131 O2    c       0.000031      0.000252     -0.000080      0.000000
    132 O2    c       0.000324      0.000172      0.000029      0.000000
    133 O2    c       0.000182      0.000074      0.000183      0.000000
    134 O2    c       0.000400     -0.000167     -0.000027      0.000000
    135 O2    c       0.000050      0.000039     -0.000178      0.000000
    136 O2    c       0.000025      0.000088     -0.000034      0.000000
    137 O2    c       0.000202      0.000173     -0.000277      0.000000
    138 O2    c      -0.000578     -0.000034      0.000579      0.000000
    139 O3    c      -0.001281     -0.000970     -0.001825      0.000000
    140 O2    c       0.000245      0.000156      0.000070      0.000000
    141 O2    c      -0.000027      0.000088      0.000021      0.000000
    142 O2    c       0.000065      0.000010      0.000095      0.000000
    143 O2    c       0.000112     -0.000089      0.000013      0.000000
    144 O2    c      -0.000141      0.000364      0.000042      0.000000
    145 O2    c       0.000090      0.000085      0.000119      0.000000
    146 O2    c       0.000124     -0.000063      0.000030      0.000000
    147 O2    c       0.000037     -0.000020     -0.000125      0.000000
    148 O2    c       0.000103      0.000039     -0.000079      0.000000
    149 O2    c       0.000090      0.000048     -0.000085      0.000000
    150 O2    c       0.000413     -0.000305      0.000558      0.000000
    151 O2    c       0.000106     -0.000083      0.000659      0.000000
    152 O2    c       0.000075      0.000121     -0.000039      0.000000
    153 O3    c       0.000083     -0.000154      0.000576      0.000000
    154 O2    c       0.000058      0.000008      0.000093      0.000000
    155 O2    c       0.000041      0.000012      0.000161      0.000000
    156 O2    c       0.000904     -0.001130      0.001694      0.000000
    157 O2    c       0.000199      0.000172     -0.000142      0.000000
    158 O2    c      -0.000368      0.001471     -0.001109      0.000000
    159 O2    c       0.000060      0.000027     -0.000258      0.000000
    160 O2    c       0.000034     -0.000031      0.000308      0.000000
    161 O2    c       0.000075      0.000117     -0.000278      0.000000
    162 O2    c       0.000102      0.000160     -0.000267      0.000000
    163 O2    c      -0.000108      0.000551      0.000051      0.000000
    164 O2    c       0.000350      0.000133     -0.000032      0.000000
    165 O2    c       0.000126      0.000035     -0.000211      0.000000
    166 O2    c       0.000115      0.000282     -0.000179      0.000000
    167 O2    c      -0.000007      0.000037     -0.000258      0.000000
    168 O3    c       0.001059     -0.000248      0.001553      0.000000
    169 O2    c       0.000155     -0.000001      0.000211      0.000000
    170 O2    c       0.000690      0.000454     -0.000722      0.000000
    171 O2    c       0.000123     -0.000037      0.000050      0.000000
    172 O2    c       0.000370     -0.000076      0.000334      0.000000
    173 O3    c       0.000117     -0.000122      0.000307      0.000000
    174 O2    c       0.000256     -0.000029      0.000050      0.000000
    175 O2    c       0.000128     -0.000041     -0.000140      0.000000
    176 O2    c       0.000206      0.000031      0.000053      0.000000
    177 O2    c      -0.000062      0.000320     -0.001838      0.000000
    178 O2    c       0.000054     -0.000038     -0.000206      0.000000
    179 O3    c       0.001297     -0.000035     -0.001242      0.000000
    180 O2    c       0.000202      0.000031      0.000193      0.000000
    181 F     c       0.000090     -0.000039     -0.000202      0.000000
    182 F     c       0.000052      0.000116     -0.000234      0.000000
    183 F     c       0.000198     -0.000116      0.000151      0.000000
    184 F     c       0.000045     -0.000006     -0.000058      0.000000
    185 F     c       0.000444      0.000277     -0.000310      0.000000
    186 F     c       0.000159      0.000104     -0.000024      0.000000
    187 O2    s       0.000548     -0.000040     -0.000161      0.000000
    188 O2    s       0.000260      0.000098      0.000021      0.000000
    189 O2    s       0.000100     -0.000028     -0.000624      0.000000
    190 O2    s       0.000340     -0.000020      0.000039      0.000000
    191 O2    s      -0.000026      0.000042     -0.000043      0.000000
    192 O2    s       0.000245      0.000039      0.000328      0.000000
    193 O2    s       0.000355      0.000117     -0.000292      0.000000
    194 O2    s      -0.000057      0.000154     -0.000212      0.000000
    195 O2    s      -0.000078     -0.000106     -0.000369      0.000000
    196 O2    s       0.000126      0.000072      0.000530      0.000000
    197 O2    s       0.000220     -0.000132      0.002479      0.000000
    198 O2    s       0.000107      0.000219      0.000155      0.000000
    199 O3    s       0.000642      0.002369      0.001458      0.000000
    200 O2    s       0.000250     -0.000132     -0.000134      0.000000
    201 O2    s       0.000100      0.000046     -0.000298      0.000000
    202 O2    s       0.000109      0.000113     -0.000181      0.000000
    203 O3    s       0.000245      0.000162      0.000357      0.000000
    204 O2    s      -0.000005      0.000115     -0.000308      0.000000
    205 O2    s       0.001279      0.000119      0.000301      0.000000
    206 O2    s       0.000090      0.000154     -0.000324      0.000000
    207 O2    s       0.000210     -0.000033     -0.000347      0.000000
    208 O2    s       0.000254      0.000013     -0.000292      0.000000
    209 O2    s       0.000094     -0.000017      0.000081      0.000000
    210 O2    s       0.000166      0.000032      0.001040      0.000000
    211 O2    s       0.000265      0.000089      0.000101      0.000000
    212 O2    s       0.001758     -0.000852     -0.003046      0.000000
    213 O2    s      -0.000095      0.000033     -0.000353      0.000000
    214 O2    s       0.000114      0.000078     -0.000083      0.000000
    215 O2    s       0.000139      0.000064      0.000269      0.000000
    216 O2    s       0.000171      0.000094      0.000128      0.000000
    217 O2    s       0.000244      0.000204     -0.000255      0.000000
    218 O2    s       0.000211      0.000015     -0.000067      0.000000
    219 O2    s      -0.000056     -0.000579     -0.002188      0.000000
    220 O2    s       0.000083      0.000085      0.000438      0.000000
    221 O2    s       0.000205      0.000899      0.002696      0.000000
    222 O2    s       0.000271     -0.000053      0.000116      0.000000
    223 O2    s      -0.001008      0.000850     -0.000380      0.000000
    224 O2    s       0.000105      0.000112      0.000445      0.000000
    225 O2    s       0.000073     -0.000071     -0.000128      0.000000
    226 O3    s      -0.000022      0.000265     -0.000025      0.000000
    227 O2    s      -0.000063      0.000107     -0.000147      0.000000
    228 O2    s       0.000027      0.000164      0.000658      0.000000
    229 O2    s       0.000207      0.000105     -0.000201      0.000000
    230 O2    s      -0.001605      0.000241     -0.001682      0.000000
    231 O2    s      -0.000075      0.000223     -0.000610      0.000000
    232 O2    s       0.000067      0.000020     -0.000026      0.000000
    233 O2    s       0.000137      0.000071     -0.000220      0.000000
    234 O2    s       0.000155      0.000495      0.001993      0.000000
    235 O2    s       0.000055      0.000537     -0.000966      0.000000
    236 O2    s      -0.000101      0.000121      0.000090      0.000000
    237 O2    s       0.000023      0.000115     -0.000476      0.000000
    238 O2    s       0.000197     -0.000115     -0.000393      0.000000
    239 O3    s       0.002298      0.001208     -0.001961      0.000000
    240 O2    s       0.000063      0.000222      0.000071      0.000000
    241 O2    s      -0.000166      0.000150     -0.000103      0.000000
    242 O2    s       0.000153      0.000237     -0.000139      0.000000
    243 O2    s       0.000253     -0.000149     -0.000178      0.000000
    244 O2    s       0.000130      0.000103     -0.000129      0.000000
    245 O2    s       0.000145      0.000012     -0.000240      0.000000
    246 O3    s      -0.000425      0.000419      0.000646      0.000000
    247 O2    s       0.000350      0.000007      0.000124      0.000000
    248 O2    s       0.000388     -0.000373     -0.000225      0.000000
    249 O2    s       0.000001      0.000150      0.000016      0.000000
    250 O2    s       0.000274     -0.000188     -0.000294      0.000000
    251 O2    s       0.000080      0.000144      0.000327      0.000000
    252 O2    s       0.000510     -0.000005      0.000451      0.000000
    253 O3    s       0.000156     -0.000168     -0.000781      0.000000
    254 O2    s       0.000103      0.000193      0.000153      0.000000
    255 O2    s       0.000175     -0.000055     -0.000028      0.000000
    256 O3    s       0.000129     -0.000019      0.000484      0.000000
    257 O2    s      -0.000132      0.000112     -0.000520      0.000000
    258 O2    s      -0.000136      0.000441      0.000795      0.000000
    259 O2    s       0.000125      0.000106     -0.000122      0.000000
    260 O2    s       0.000070      0.000112      0.000304      0.000000
    261 O2    s      -0.000067      0.000100     -0.000256      0.000000
    262 O2    s       0.000022     -0.000074     -0.000118      0.000000
    263 O2    s       0.000070      0.000143     -0.000096      0.000000
    264 O2    s       0.000040     -0.000537      0.001336      0.000000
    265 O3    s       0.000686     -0.000871      0.001721      0.000000
    266 O2    s       0.000128      0.000204      0.000254      0.000000
    267 O2    s      -0.000019      0.000063      0.000048      0.000000
    268 O2    s      -0.000042      0.000135      0.000433      0.000000
    269 O2    s       0.000095      0.000089     -0.000301      0.000000
    270 O2    s       0.000729      0.000394      0.001126      0.000000
    271 O2    s       0.000229     -0.000117      0.000018      0.000000
    272 O2    s       0.000075      0.000242     -0.000451      0.000000
    273 O2    s       0.000103     -0.000078     -0.000493      0.000000
    274 O2    s       0.000127     -0.000296     -0.000046      0.000000
    275 O2    s       0.000125      0.000070     -0.000081      0.000000
    276 O2    s      -0.000075      0.000176      0.000722      0.000000
    277 O2    s      -0.000103      0.000099      0.000339      0.000000
    278 O2    s       0.000247      0.000133     -0.000259      0.000000
    279 O3    s       0.000331     -0.000200     -0.000105      0.000000
    280 O2    s       0.000093      0.000096     -0.000072      0.000000
    281 O2    s       0.000265     -0.000176     -0.000022      0.000000
    282 O2    s      -0.000375      0.000213      0.001900      0.000000
    283 O2    s       0.000294      0.000140     -0.000113      0.000000
    284 O2    s       0.000253     -0.000042     -0.000624      0.000000
    285 O2    s      -0.000042      0.000008     -0.000157      0.000000
    286 O2    s       0.000128     -0.000128      0.000116      0.000000
    287 O2    s      -0.000062      0.000211      0.000004      0.000000
    288 O2    s       0.000394      0.000113     -0.000281      0.000000
    289 O2    s       0.000086     -0.000489     -0.000637      0.000000
    290 O2    s       0.000107      0.000251     -0.000459      0.000000
    291 O2    s       0.000060      0.000015     -0.000378      0.000000
    292 O2    s       0.000208      0.000086     -0.000312      0.000000
    293 O2    s       0.000074     -0.000017     -0.000031      0.000000
    294 O3    s       0.000846     -0.000293      0.000963      0.000000
    295 O2    s       0.000215      0.000095      0.000321      0.000000
    296 O2    s      -0.000094      0.000948     -0.000552      0.000000
    297 O2    s       0.000150     -0.000061      0.000083      0.000000
    298 O2    s       0.000301     -0.000190     -0.000557      0.000000
    299 O3    s       0.000190      0.000010      0.000575      0.000000
    300 O2    s       0.000118      0.000201      0.000300      0.000000
    301 O2    s       0.000198     -0.000107     -0.000433      0.000000
    302 O2    s       0.000251     -0.000035      0.000059      0.000000
    303 O2    s       0.000568      0.000074     -0.001063      0.000000
    304 O2    s       0.000088      0.000143     -0.000081      0.000000
    305 O3    s      -0.000561      0.000377      0.000860      0.000000
    306 O2    s       0.000341      0.000047      0.000036      0.000000
    307 F     s       0.000212      0.000614      0.000198      0.000000
    308 F     s       0.000044      0.000158     -0.000279      0.000000
    309 F     s       0.000053      0.000047      0.000314      0.000000
    310 F     s       0.000063      0.000037     -0.000091      0.000000
    311 F     s      -0.000446     -0.000059     -0.000049      0.000000
    312 F     s       0.000153      0.000099     -0.000023      0.000000
--------------------------------------------------------------------------------
  Maximum abs         0.004102      0.003296      0.009305      0.000000
--------------------------------------------------------------------------------


  Time to end of optimisation =      47.3804 seconds


  Peak dynamic memory used =      19.13 MB 


  Timing analysis for GULP :

--------------------------------------------------------------------------------
  Task / Subroutine                                          Time (Seconds)
--------------------------------------------------------------------------------
  Calculation of reciprocal space energy and derivatives          1.2936
  Calculation of real space energy and derivatives               41.1564
  Calculation of three-body energy and derivatives                4.1002
  Calculation of matrix inversion                                 0.7435
--------------------------------------------------------------------------------
  Total CPU time                                                 47.3804
--------------------------------------------------------------------------------


  Dump file written as out.res                                                 
  CIF file written as out.cif                                                 


  Job Finished at 18:07.36 31st October    2016                               

