********************************************************************************
*                       GENERAL UTILITY LATTICE PROGRAM                        *
*                                 Julian Gale                                  *
*                      Nanochemistry Research Institute                        *
*                           Department of Chemistry                            *
*                    Curtin University, Western Australia                      *
********************************************************************************
* Version = 4.2.0 * Last modified =  20th January 2014                         *
********************************************************************************
*  optimise     - perform optimisation run                                     *
*  conp         - constant pressure calculation                                *
*  qok          - running with non charge neutral cell is OK                   *
********************************************************************************

  Job Started  at 00:25.49  2nd November   2016                               

  Number of CPUs =     1


  Total number of configurations input =   1

********************************************************************************
*  Input for Configuration =   1                                               *
********************************************************************************

  Formula = Ge3Si57O120F6                                               

  Number of irreducible atoms/shells =     312


  Total number atoms/shells =     312

  Dimensionality = 3               :  Bulk   


  Charge on solid   =  -6.000000 =>neutralising background added


  Cartesian lattice vectors (Angstroms) :

       11.946176    0.000000    0.000000
       -6.019730   10.343596    0.000000
        0.015596   -0.062753   29.565038

  Cell parameters (Angstroms/Degrees):

  a =      11.9462    alpha =  90.1203
  b =      11.9678    beta  =  89.9698
  c =      29.5651    gamma = 120.1984

  Initial cell volume =        3653.245928 Angs**3

  Temperature of configuration =  0.000     K 

  Pressure of configuration =         0.000 GPa 

  Fractional coordinates of asymmetric unit :

--------------------------------------------------------------------------------
   No.  Atomic       x           y          z         Charge      Occupancy
        Label      (Frac)      (Frac)     (Frac)        (e)         (Frac)  
--------------------------------------------------------------------------------
      1 Ge    c    0.699600    0.375700    0.033890     4.00000    1.000000    
      2 Si    c    0.621955 *  0.324350 *  0.367755 *   4.00000    1.000000    
      3 Si    c    0.676831 *  0.298314 *  0.699590 *   4.00000    1.000000    
      4 Si    c    0.297655 *  0.622374 *  0.532994 *   4.00000    1.000000    
      5 Si    c    0.379122 *  0.681264 *  0.866807 *   4.00000    1.000000    
      6 Si    c    0.322723 *  0.701705 *  0.202899 *   4.00000    1.000000    
      7 Si    c    0.377981 *  0.701314 *  0.302871 *   4.00000    1.000000    
      8 Si    c    0.310712 *  0.627273 *  0.969226 *   4.00000    1.000000    
      9 Si    c    0.298093 *  0.677446 *  0.633145 *   4.00000    1.000000    
     10 Si    c    0.621977 *  0.298664 *  0.799825 *   4.00000    1.000000    
     11 Si    c    0.676516 *  0.379245 *  0.467806 *   4.00000    1.000000    
     12 Si    c    0.699044 *  0.319618 *  0.136272 *   4.00000    1.000000    
     13 Si    c    0.525910 *  0.408935 *  0.968641 *   4.00000    1.000000    
     14 Si    c    0.583931 *  0.113061 *  0.303754 *   4.00000    1.000000    
     15 Si    c    0.885594 *  0.469524 *  0.633967 *   4.00000    1.000000    
     16 Si    c    0.469212 *  0.583554 *  0.468146 *   4.00000    1.000000    
     17 Si    c    0.417181 *  0.887061 *  0.799948 *   4.00000    1.000000    
     18 Si    c    0.121186 *  0.531327 *  0.135112 *   4.00000    1.000000    
     19 Si    c    0.417295 *  0.529874 *  0.367046 *   4.00000    1.000000    
     20 Ge    c    0.088299 *  0.566531 *  0.035994 *   4.00000    1.000000    
     21 Si    c    0.469273 *  0.886434 *  0.698759 *   4.00000    1.000000    
     22 Si    c    0.586103 *  0.470393 *  0.866504 *   4.00000    1.000000    
     23 Si    c    0.886123 *  0.417119 *  0.532802 *   4.00000    1.000000    
     24 Si    c    0.530857 *  0.111156 *  0.203054 *   4.00000    1.000000    
     25 Si    c    0.300322 *  0.399467 *  0.851324 *   4.00000    1.000000    
     26 Si    c    0.602787 *  0.903088 *  0.187403 *   4.00000    1.000000    
     27 Si    c    0.095622 *  0.698938 *  0.518127 *   4.00000    1.000000    
     28 Si    c    0.699142 *  0.602749 *  0.352269 *   4.00000    1.000000    
     29 Si    c    0.397821 *  0.095776 *  0.684246 *   4.00000    1.000000    
     30 Si    c    0.899597 *  0.289253 *  0.014360 *   4.00000    1.000000    
     31 Si    c    0.397457 *  0.302154 *  0.482177 *   4.00000    1.000000    
     32 Si    c    0.906012 *  0.603988 *  0.148578 *   4.00000    1.000000    
     33 Si    c    0.699371 *  0.097025 *  0.814483 *   4.00000    1.000000    
     34 Ge    c    0.583461 *  0.683053 *  0.975361 *   4.00000    1.000000    
     35 Si    c    0.095734 *  0.398572 *  0.647637 *   4.00000    1.000000    
     36 Si    c    0.301668 *  0.903391 *  0.317092 *   4.00000    1.000000    
     37 Si    c    0.245144 *  0.341072 *  0.952606 *   4.00000    1.000000    
     38 Si    c    0.660453 *  0.911176 *  0.287794 *   4.00000    1.000000    
     39 Si    c    0.088172 *  0.748945 *  0.618459 *   4.00000    1.000000    
     40 Si    c    0.748392 *  0.660457 *  0.452633 *   4.00000    1.000000    
     41 Si    c    0.340448 *  0.088759 *  0.784320 *   4.00000    1.000000    
     42 Si    c    0.915209 *  0.249443 *  0.117176 *   4.00000    1.000000    
     43 Si    c    0.339639 *  0.250794 *  0.381977 *   4.00000    1.000000    
     44 Si    c    0.909614 *  0.669133 *  0.047003 *   4.00000    1.000000    
     45 Si    c    0.749045 *  0.089019 *  0.714117 *   4.00000    1.000000    
     46 Si    c    0.667168 *  0.754175 *  0.880099 *   4.00000    1.000000    
     47 Si    c    0.088108 *  0.340017 *  0.547538 *   4.00000    1.000000    
     48 Si    c    0.250110 *  0.911043 *  0.216902 *   4.00000    1.000000    
     49 Si    c    0.966079 *  0.111840 *  0.964883 *   4.00000    1.000000    
     50 Si    c    0.878474 *  0.849408 *  0.300646 *   4.00000    1.000000    
     51 Si    c    0.150243 *  0.028873 *  0.633310 *   4.00000    1.000000    
     52 Si    c    0.028249 *  0.878845 *  0.467348 *   4.00000    1.000000    
     53 Si    c    0.124235 *  0.152812 *  0.798690 *   4.00000    1.000000    
     54 Si    c    0.846461 *  0.968637 *  0.133165 *   4.00000    1.000000    
     55 Si    c    0.120804 *  0.970674 *  0.366598 *   4.00000    1.000000    
     56 Si    c    0.832068 *  0.875683 *  0.030867 *   4.00000    1.000000    
     57 Si    c    0.029511 *  0.151518 *  0.698223 *   4.00000    1.000000    
     58 Si    c    0.880315 *  0.029167 *  0.863287 *   4.00000    1.000000    
     59 Si    c    0.149713 *  0.121778 *  0.532755 *   4.00000    1.000000    
     60 Si    c    0.970434 *  0.850659 *  0.199399 *   4.00000    1.000000    
     61 O2    c    0.927474 *  0.994981 *  0.998588 *   0.87073    1.000000    
     62 O2    c    0.002351 *  0.929370 *  0.332397 *   0.87073    1.000000    
     63 O2    c    0.070064 *  0.070860 *  0.665598 *   0.87073    1.000000    
     64 O2    c    0.070380 *  0.000800 *  0.499780 *   0.87073    1.000000    
     65 O2    c    0.002046 *  0.074219 *  0.830585 *   0.87073    1.000000    
     66 O2    c    0.929731 *  0.926567 *  0.164514 *   0.87073    1.000000    
     67 O2    c    0.339219 *  0.577853 *  0.335089 *   0.87073    1.000000    
     68 O2    c    0.421016 *  0.761308 *  0.666140 *   0.87073    1.000000    
     69 O3    c    0.218393 *  0.656430 *  0.997649 *   1.33043    1.000000    
     70 O2    c    0.659663 *  0.420474 *  0.833094 *   0.87073    1.000000    
     71 O2    c    0.583306 *  0.238656 *  0.171602 *   0.87073    1.000000    
     72 O2    c    0.760122 *  0.339995 *  0.500484 *   0.87073    1.000000    
     73 O3    c    0.566628 *  0.323358 *  0.998235 *   1.33043    1.000000    
     74 O2    c    0.760827 *  0.421247 *  0.666741 *   0.87073    1.000000    
     75 O2    c    0.661490 *  0.239118 *  0.335840 *   0.87073    1.000000    
     76 O2    c    0.421183 *  0.661060 *  0.500416 *   0.87073    1.000000    
     77 O2    c    0.237449 *  0.575643 *  0.171603 *   0.87073    1.000000    
     78 O2    c    0.340493 *  0.762925 *  0.832834 *   0.87073    1.000000    
     79 O2    c    0.119488 *  0.212540 *  0.971399 *   0.87073    1.000000    
     80 O2    c    0.787542 *  0.912209 *  0.307691 *   0.87073    1.000000    
     81 O2    c    0.086851 *  0.874399 *  0.638739 *   0.87073    1.000000    
     82 O2    c    0.873801 *  0.787486 *  0.473137 *   0.87073    1.000000    
     83 O2    c    0.214033 *  0.088645 *  0.804459 *   0.87073    1.000000    
     84 O2    c    0.910554 *  0.123667 *  0.139473 *   0.87073    1.000000    
     85 O2    c    0.212556 *  0.125195 *  0.361538 *   0.87073    1.000000    
     86 O2    c    0.901119 *  0.789905 *  0.028775 *   0.87073    1.000000    
     87 O2    c    0.874459 *  0.087441 *  0.693744 *   0.87073    1.000000    
     88 O2    c    0.787837 *  0.876248 *  0.854573 *   0.87073    1.000000    
     89 O2    c    0.086622 *  0.212921 *  0.527438 *   0.87073    1.000000    
     90 O2    c    0.126013 *  0.914637 *  0.196271 *   0.87073    1.000000    
     91 O2    c    0.926075 *  0.862837 *  0.249322 *   0.87073    1.000000    
     92 O2    c    0.136715 *  0.068109 *  0.582944 *   0.87073    1.000000    
     93 O2    c    0.935482 *  0.062639 *  0.913582 *   0.87073    1.000000    
     94 O2    c    0.073395 *  0.141600 *  0.748191 *   0.87073    1.000000    
     95 O2    c    0.849960 *  0.932638 *  0.081933 *   0.87073    1.000000    
     96 O2    c    0.065134 *  0.930675 *  0.416693 *   0.87073    1.000000    
     97 O2    c    0.886654 *  0.183788 *  0.976988 *   0.87073    1.000000    
     98 O2    c    0.797076 *  0.697739 *  0.313421 *   0.87073    1.000000    
     99 O2    c    0.302419 *  0.098446 *  0.645637 *   0.87073    1.000000    
    100 O2    c    0.098036 *  0.796972 *  0.479612 *   0.87073    1.000000    
    101 O2    c    0.206914 *  0.304584 *  0.811879 *   0.87073    1.000000    
    102 O2    c    0.696648 *  0.898978 *  0.148905 *   0.87073    1.000000    
    103 O2    c    0.203428 *  0.901026 *  0.355542 *   0.87073    1.000000    
    104 O3    c    0.686800 *  0.798267 *  0.017846 *   1.33043    1.000000    
    105 O2    c    0.098494 *  0.303116 *  0.685951 *   0.87073    1.000000    
    106 O2    c    0.798727 *  0.100910 *  0.852764 *   0.87073    1.000000    
    107 O2    c    0.301810 *  0.204266 *  0.520732 *   0.87073    1.000000    
    108 O2    c    0.904882 *  0.698372 *  0.187799 *   0.87073    1.000000    
    109 O2    c    0.322202 *  0.644122 *  0.252757 *   0.87073    1.000000    
    110 O2    c    0.356305 *  0.679406 *  0.583043 *   0.87073    1.000000    
    111 O2    c    0.322380 *  0.679489 *  0.916444 *   0.87073    1.000000    
    112 O2    c    0.679015 *  0.356805 *  0.749741 *   0.87073    1.000000    
    113 O3    c    0.640544 *  0.320039 *  0.087864 *   1.33043    1.000000    
    114 O2    c    0.678364 *  0.322967 *  0.417760 *   0.87073    1.000000    
    115 O2    c    0.368068 *  0.329095 *  0.968468 *   0.87073    1.000000    
    116 O2    c    0.671456 *  0.044187 *  0.306115 *   0.87073    1.000000    
    117 O2    c    0.955108 *  0.626133 *  0.636649 *   0.87073    1.000000    
    118 O2    c    0.626083 *  0.671022 *  0.470844 *   0.87073    1.000000    
    119 O2    c    0.330102 *  0.956478 *  0.802829 *   0.87073    1.000000    
    120 O2    c    0.046147 *  0.373273 *  0.135906 *   0.87073    1.000000    
    121 O2    c    0.329699 *  0.373323 *  0.363848 *   0.87073    1.000000    
    122 O3    c    0.041485 *  0.684702 *  0.028961 *   1.33043    1.000000    
    123 O2    c    0.626045 *  0.955772 *  0.696017 *   0.87073    1.000000    
    124 O2    c    0.672129 *  0.626499 *  0.863249 *   0.87073    1.000000    
    125 O2    c    0.955022 *  0.329724 *  0.529483 *   0.87073    1.000000    
    126 O2    c    0.374482 *  0.043330 *  0.198731 *   0.87073    1.000000    
    127 O3    c    0.765047 *  0.287379 *  0.011669 *   1.33043    1.000000    
    128 O2    c    0.697592 *  0.467629 *  0.345203 *   0.87073    1.000000    
    129 O2    c    0.532960 *  0.230039 *  0.677327 *   0.87073    1.000000    
    130 O2    c    0.229472 *  0.697685 *  0.510826 *   0.87073    1.000000    
    131 O2    c    0.306504 *  0.536150 *  0.845558 *   0.87073    1.000000    
    132 O2    c    0.465929 *  0.770696 *  0.180210 *   0.87073    1.000000    
    133 O2    c    0.301880 *  0.769458 *  0.324480 *   0.87073    1.000000    
    134 O3    c    0.452142 *  0.701738 *  0.991533 *   1.33043    1.000000    
    135 O2    c    0.229792 *  0.533579 *  0.655064 *   0.87073    1.000000    
    136 O2    c    0.696756 *  0.229945 *  0.821853 *   0.87073    1.000000    
    137 O2    c    0.532269 *  0.303443 *  0.489712 *   0.87073    1.000000    
    138 O2    c    0.774786 *  0.466778 *  0.155221 *   0.87073    1.000000    
    139 O3    c    0.786038 *  0.539777 *  0.027396 *   1.33043    1.000000    
    140 O2    c    0.465213 *  0.249208 *  0.362645 *   0.87073    1.000000    
    141 O2    c    0.750556 *  0.215872 *  0.694807 *   0.87073    1.000000    
    142 O2    c    0.215497 *  0.465813 *  0.528199 *   0.87073    1.000000    
    143 O2    c    0.534858 *  0.748700 *  0.863024 *   0.87073    1.000000    
    144 O2    c    0.247313 *  0.782856 *  0.198004 *   0.87073    1.000000    
    145 O2    c    0.534543 *  0.784916 *  0.307517 *   0.87073    1.000000    
    146 O2    c    0.251766 *  0.469368 *  0.971612 *   0.87073    1.000000    
    147 O2    c    0.215521 *  0.751092 *  0.637814 *   0.87073    1.000000    
    148 O2    c    0.465161 *  0.217298 *  0.803754 *   0.87073    1.000000    
    149 O2    c    0.750322 *  0.535724 *  0.472244 *   0.87073    1.000000    
    150 O2    c    0.790759 *  0.256690 *  0.134158 *   0.87073    1.000000    
    151 O2    c    0.231699 *  0.331318 *  0.898064 *   0.87073    1.000000    
    152 O2    c    0.676982 *  0.907292 *  0.233726 *   0.87073    1.000000    
    153 O2    c    0.090983 *  0.769304 *  0.564329 *   0.87073    1.000000    
    154 O2    c    0.769540 *  0.678363 *  0.398467 *   0.87073    1.000000    
    155 O2    c    0.321658 *  0.090250 *  0.730243 *   0.87073    1.000000    
    156 O2    c    0.915272 *  0.232973 *  0.063231 *   0.87073    1.000000    
    157 O2    c    0.321690 *  0.230633 *  0.436108 *   0.87073    1.000000    
    158 O2    c    0.904147 *  0.672623 *  0.102217 *   0.87073    1.000000    
    159 O2    c    0.769566 *  0.092548 *  0.768187 *   0.87073    1.000000    
    160 O3    c    0.694878 *  0.784179 *  0.932307 *   1.33043    1.000000    
    161 O2    c    0.090452 *  0.322486 *  0.601616 *   0.87073    1.000000    
    162 O2    c    0.230948 *  0.909282 *  0.271087 *   0.87073    1.000000    
    163 O3    c    0.588442 *  0.544971 *  0.994634 *   1.33043    1.000000    
    164 O2    c    0.441797 *  0.028696 *  0.326482 *   0.87073    1.000000    
    165 O2    c    0.969698 *  0.411855 *  0.656592 *   0.87073    1.000000    
    166 O2    c    0.411271 *  0.441697 *  0.490852 *   0.87073    1.000000    
    167 O2    c    0.559412 *  0.970466 *  0.822803 *   0.87073    1.000000    
    168 O2    c    0.029486 *  0.585788 *  0.154429 *   0.87073    1.000000    
    169 O2    c    0.559098 *  0.588574 *  0.343796 *   0.87073    1.000000    
    170 O3    c    0.023361 *  0.423671 *  0.002144 *   1.33043    1.000000    
    171 O2    c    0.411759 *  0.970118 *  0.675631 *   0.87073    1.000000    
    172 O2    c    0.442212 *  0.417500 *  0.846348 *   0.87073    1.000000    
    173 O2    c    0.969428 *  0.558795 *  0.509723 *   0.87073    1.000000    
    174 O2    c    0.591531 *  0.030838 *  0.179408 *   0.87073    1.000000    
    175 O2    c    0.583969 *  0.167160 *  0.253365 *   0.87073    1.000000    
    176 O2    c    0.831468 *  0.415874 *  0.583340 *   0.87073    1.000000    
    177 O2    c    0.582942 *  0.417700 *  0.917108 *   0.87073    1.000000    
    178 O2    c    0.415442 *  0.832214 *  0.749340 *   0.87073    1.000000    
    179 O3    c    0.179100 *  0.584271 *  0.086358 *   1.33043    1.000000    
    180 O2    c    0.416315 *  0.583628 *  0.417500 *   0.87073    1.000000    
    181 F     c    0.452096 *  0.906191 *  0.252189 *   0.56000    1.000000    
    182 F     c    0.094882 *  0.547649 *  0.582983 *   0.56000    1.000000    
    183 F     c    0.480595 *  0.574486 *  0.926606 *   0.56000    1.000000    
    184 F     c    0.546685 *  0.095255 *  0.749457 *   0.56000    1.000000    
    185 F     c    0.933897 *  0.469131 *  0.072290 *   0.56000    1.000000    
    186 F     c    0.547529 *  0.452326 *  0.417198 *   0.56000    1.000000    
    187 O2    s    0.921906 *  0.996020 *  0.998066 *  -2.87073    1.000000    
    188 O2    s    0.001707 *  0.924998 *  0.332660 *  -2.87073    1.000000    
    189 O2    s    0.074492 *  0.075187 *  0.665636 *  -2.87073    1.000000    
    190 O2    s    0.074566 *  0.000661 *  0.499842 *  -2.87073    1.000000    
    191 O2    s    0.002453 *  0.078298 *  0.830581 *  -2.87073    1.000000    
    192 O2    s    0.925345 *  0.922675 *  0.165029 *  -2.87073    1.000000    
    193 O2    s    0.351307 *  0.585751 *  0.335022 *  -2.87073    1.000000    
    194 O2    s    0.413279 *  0.765562 *  0.666087 *  -2.87073    1.000000    
    195 O3    s    0.219913 *  0.647009 *  0.997027 *  -3.33043    1.000000    
    196 O2    s    0.648161 *  0.413076 *  0.833106 *  -2.87073    1.000000    
    197 O2    s    0.590317 *  0.234171 *  0.171043 *  -2.87073    1.000000    
    198 O2    s    0.764506 *  0.352036 *  0.500423 *  -2.87073    1.000000    
    199 O3    s    0.572757 *  0.335737 *  0.998064 *  -3.33043    1.000000    
    200 O2    s    0.765089 *  0.413582 *  0.666748 *  -2.87073    1.000000    
    201 O2    s    0.649377 *  0.234785 *  0.335798 *  -2.87073    1.000000    
    202 O2    s    0.413427 *  0.649047 *  0.500448 *  -2.87073    1.000000    
    203 O2    s    0.234367 *  0.584224 *  0.171119 *  -2.87073    1.000000    
    204 O2    s    0.352389 *  0.767412 *  0.832929 *  -2.87073    1.000000    
    205 O2    s    0.116826 *  0.215732 *  0.968743 *  -2.87073    1.000000    
    206 O2    s    0.784013 *  0.905405 *  0.304908 *  -2.87073    1.000000    
    207 O2    s    0.093761 *  0.877863 *  0.636086 *  -2.87073    1.000000    
    208 O2    s    0.877300 *  0.783998 *  0.470409 *  -2.87073    1.000000    
    209 O2    s    0.217546 *  0.095581 *  0.801774 *  -2.87073    1.000000    
    210 O2    s    0.904369 *  0.120736 *  0.136518 *  -2.87073    1.000000    
    211 O2    s    0.216009 *  0.121764 *  0.364176 *  -2.87073    1.000000    
    212 O2    s    0.894592 *  0.785334 *  0.031075 *  -2.87073    1.000000    
    213 O2    s    0.878048 *  0.094491 *  0.696305 *  -2.87073    1.000000    
    214 O2    s    0.785561 *  0.880313 *  0.858001 *  -2.87073    1.000000    
    215 O2    s    0.093495 *  0.216400 *  0.530054 *  -2.87073    1.000000    
    216 O2    s    0.122409 *  0.907496 *  0.198710 *  -2.87073    1.000000    
    217 O2    s    0.925732 *  0.860000 *  0.249468 *  -2.87073    1.000000    
    218 O2    s    0.139693 *  0.069752 *  0.582960 *  -2.87073    1.000000    
    219 O2    s    0.932668 *  0.064338 *  0.913575 *  -2.87073    1.000000    
    220 O2    s    0.074236 *  0.144027 *  0.748268 *  -2.87073    1.000000    
    221 O2    s    0.847735 *  0.931070 *  0.082769 *  -2.87073    1.000000    
    222 O2    s    0.067286 *  0.929349 *  0.416737 *  -2.87073    1.000000    
    223 O2    s    0.896397 *  0.186760 *  0.979488 *  -2.87073    1.000000    
    224 O2    s    0.795717 *  0.704109 *  0.316008 *  -2.87073    1.000000    
    225 O2    s    0.295973 *  0.090707 *  0.648264 *  -2.87073    1.000000    
    226 O2    s    0.090430 *  0.795645 *  0.482228 *  -2.87073    1.000000    
    227 O2    s    0.208088 *  0.298668 *  0.814627 *  -2.87073    1.000000    
    228 O2    s    0.702583 *  0.906824 *  0.151326 *  -2.87073    1.000000    
    229 O2    s    0.204730 *  0.908672 *  0.352771 *  -2.87073    1.000000    
    230 O3    s    0.697105 *  0.799955 *  0.016679 *  -3.33043    1.000000    
    231 O2    s    0.090776 *  0.296731 *  0.683322 *  -2.87073    1.000000    
    232 O2    s    0.797046 *  0.093091 *  0.849953 *  -2.87073    1.000000    
    233 O2    s    0.295400 *  0.205560 *  0.518067 *  -2.87073    1.000000    
    234 O2    s    0.911975 *  0.704735 *  0.184976 *  -2.87073    1.000000    
    235 O2    s    0.328069 *  0.656056 *  0.252812 *  -2.87073    1.000000    
    236 O2    s    0.344344 *  0.673375 *  0.583053 *  -2.87073    1.000000    
    237 O2    s    0.327397 *  0.674841 *  0.915967 *  -2.87073    1.000000    
    238 O2    s    0.672996 *  0.344958 *  0.749745 *  -2.87073    1.000000    
    239 O3    s    0.651008 *  0.324339 *  0.088548 *  -3.33043    1.000000    
    240 O2    s    0.672374 *  0.328937 *  0.417759 *  -2.87073    1.000000    
    241 O2    s    0.370970 *  0.338516 *  0.966783 *  -2.87073    1.000000    
    242 O2    s    0.661244 *  0.037357 *  0.303945 *  -2.87073    1.000000    
    243 O2    s    0.961935 *  0.622855 *  0.634461 *  -2.87073    1.000000    
    244 O2    s    0.622701 *  0.660790 *  0.468641 *  -2.87073    1.000000    
    245 O2    s    0.340187 *  0.963272 *  0.800579 *  -2.87073    1.000000    
    246 O2    s    0.039758 *  0.375907 *  0.133848 *  -2.87073    1.000000    
    247 O2    s    0.339844 *  0.376664 *  0.366088 *  -2.87073    1.000000    
    248 O3    s    0.030887 *  0.674577 *  0.031410 *  -3.33043    1.000000    
    249 O2    s    0.622745 *  0.962638 *  0.698205 *  -2.87073    1.000000    
    250 O2    s    0.662586 *  0.622941 *  0.865291 *  -2.87073    1.000000    
    251 O2    s    0.961862 *  0.339861 *  0.531722 *  -2.87073    1.000000    
    252 O2    s    0.377745 *  0.036550 *  0.201068 *  -2.87073    1.000000    
    253 O3    s    0.773409 *  0.294781 *  0.013746 *  -3.33043    1.000000    
    254 O2    s    0.689947 *  0.467118 *  0.348287 *  -2.87073    1.000000    
    255 O2    s    0.533545 *  0.222860 *  0.680391 *  -2.87073    1.000000    
    256 O2    s    0.222382 *  0.690034 *  0.513897 *  -2.87073    1.000000    
    257 O2    s    0.313278 *  0.536167 *  0.848357 *  -2.87073    1.000000    
    258 O2    s    0.465544 *  0.777592 *  0.183345 *  -2.87073    1.000000    
    259 O2    s    0.309751 *  0.776572 *  0.321445 *  -2.87073    1.000000    
    260 O3    s    0.448009 *  0.692932 *  0.988054 *  -3.33043    1.000000    
    261 O2    s    0.222623 *  0.534173 *  0.651983 *  -2.87073    1.000000    
    262 O2    s    0.689270 *  0.223075 *  0.818778 *  -2.87073    1.000000    
    263 O2    s    0.532900 *  0.311205 *  0.486619 *  -2.87073    1.000000    
    264 O2    s    0.780949 *  0.466071 *  0.152546 *  -2.87073    1.000000    
    265 O3    s    0.790675 *  0.537968 *  0.029828 *  -3.33043    1.000000    
    266 O2    s    0.467975 *  0.257335 *  0.365230 *  -2.87073    1.000000    
    267 O2    s    0.742596 *  0.210689 *  0.697359 *  -2.87073    1.000000    
    268 O2    s    0.210135 *  0.468495 *  0.530751 *  -2.87073    1.000000    
    269 O2    s    0.531826 *  0.741949 *  0.865185 *  -2.87073    1.000000    
    270 O2    s    0.255453 *  0.788361 *  0.200503 *  -2.87073    1.000000    
    271 O2    s    0.531827 *  0.790016 *  0.304930 *  -2.87073    1.000000    
    272 O2    s    0.256817 *  0.469881 *  0.969253 *  -2.87073    1.000000    
    273 O2    s    0.210250 *  0.743061 *  0.635266 *  -2.87073    1.000000    
    274 O2    s    0.468097 *  0.211831 *  0.801278 *  -2.87073    1.000000    
    275 O2    s    0.742285 *  0.532859 *  0.469687 *  -2.87073    1.000000    
    276 O2    s    0.794372 *  0.262768 *  0.132556 *  -2.87073    1.000000    
    277 O2    s    0.240535 *  0.339750 *  0.898653 *  -2.87073    1.000000    
    278 O2    s    0.667401 *  0.907260 *  0.234635 *  -2.87073    1.000000    
    279 O2    s    0.091174 *  0.759764 *  0.565202 *  -2.87073    1.000000    
    280 O2    s    0.759937 *  0.668520 *  0.399321 *  -2.87073    1.000000    
    281 O2    s    0.331619 *  0.090656 *  0.731148 *  -2.87073    1.000000    
    282 O2    s    0.913856 *  0.240262 *  0.064399 *  -2.87073    1.000000    
    283 O2    s    0.331532 *  0.240268 *  0.435207 *  -2.87073    1.000000    
    284 O2    s    0.904891 *  0.664751 *  0.101806 *  -2.87073    1.000000    
    285 O2    s    0.760062 *  0.092666 *  0.767273 *  -2.87073    1.000000    
    286 O3    s    0.684618 *  0.774320 *  0.929657 *  -3.33043    1.000000    
    287 O2    s    0.090758 *  0.332326 *  0.600696 *  -2.87073    1.000000    
    288 O2    s    0.240331 *  0.908863 *  0.270133 *  -2.87073    1.000000    
    289 O3    s    0.581775 *  0.541346 *  0.990700 *  -3.33043    1.000000    
    290 O2    s    0.441595 *  0.023805 *  0.323090 *  -2.87073    1.000000    
    291 O2    s    0.974688 *  0.416638 *  0.653263 *  -2.87073    1.000000    
    292 O2    s    0.416052 *  0.441486 *  0.487549 *  -2.87073    1.000000    
    293 O2    s    0.559609 *  0.975587 *  0.819524 *  -2.87073    1.000000    
    294 O2    s    0.025071 *  0.582175 *  0.151825 *  -2.87073    1.000000    
    295 O2    s    0.559398 *  0.583767 *  0.347117 *  -2.87073    1.000000    
    296 O3    s    0.014682 *  0.419507 *  0.005771 *  -3.33043    1.000000    
    297 O2    s    0.416420 *  0.975123 *  0.678965 *  -2.87073    1.000000    
    298 O2    s    0.441777 *  0.421279 *  0.849022 *  -2.87073    1.000000    
    299 O2    s    0.974578 *  0.559134 *  0.513028 *  -2.87073    1.000000    
    300 O2    s    0.586289 *  0.025567 *  0.182704 *  -2.87073    1.000000    
    301 O2    s    0.578350 *  0.155599 *  0.253323 *  -2.87073    1.000000    
    302 O2    s    0.842751 *  0.421581 *  0.583355 *  -2.87073    1.000000    
    303 O2    s    0.577896 *  0.422553 *  0.916674 *  -2.87073    1.000000    
    304 O2    s    0.421177 *  0.843484 *  0.749347 *  -2.87073    1.000000    
    305 O3    s    0.166875 *  0.577528 *  0.087975 *  -3.33043    1.000000    
    306 O2    s    0.421922 *  0.578000 *  0.417529 *  -2.87073    1.000000    
    307 F     s    0.451934 *  0.906112 *  0.252130 *  -1.56000    1.000000    
    308 F     s    0.095241 *  0.547776 *  0.582985 *  -1.56000    1.000000    
    309 F     s    0.487320 *  0.581147 *  0.929427 *  -1.56000    1.000000    
    310 F     s    0.546723 *  0.095571 *  0.749446 *  -1.56000    1.000000    
    311 F     s    0.941669 *  0.474163 *  0.070042 *  -1.56000    1.000000    
    312 F     s    0.547681 *  0.452105 *  0.417170 *  -1.56000    1.000000    
--------------------------------------------------------------------------------



********************************************************************************
*  General input information                                                   *
********************************************************************************

  Species output for all configurations : 

--------------------------------------------------------------------------------
  Species    Type    Atomic    Atomic    Charge       Radii (Angs)     Library
                     Number     Mass       (e)     Cova   Ionic  VDW   Symbol
--------------------------------------------------------------------------------
    Si       Core       14      28.09   4.000000   1.200  0.000  2.100          
    O1       Core        8      16.00   1.733957   0.730  0.000  1.360          
    O1       Shell       8       0.00  -3.733957   0.730  0.000  1.360          
    O2       Core        8      16.00   0.870733   0.730  0.000  1.360          
    O2       Shell       8       0.00  -2.870733   0.730  0.000  1.360          
    O3       Core        8      16.00   1.330431   0.730  0.000  1.360          
    O3       Shell       8       0.00  -3.330431   0.730  0.000  1.360          
    F        Core        9      19.00   0.560000   0.710  0.000  1.300          
    F        Shell       9       0.00  -1.560000   0.710  0.000  1.300          
    Ge       Core       32      72.61   4.000000   1.170  0.000  1.750          
--------------------------------------------------------------------------------


  Lattice summation method               =    Ewald          (3-D)
                                         =    Parry          (2-D)
                                         =    Saunders et al (1-D)
  Accuracy factor for lattice sums       =   12.000


  Time limit = Infinity

  Maximum range for interatomic potentials =        16.000000 Angstroms

  Taper potentials to zero over   1.0000 Angstroms using polynomial

  General interatomic potentials :

--------------------------------------------------------------------------------
Atom  Types   Potential         A         B         C         D     Cutoffs(Ang)
  1     2                                                            Min    Max 
--------------------------------------------------------------------------------
Si   c O1   s Buckingham    0.132E+04 0.318      10.1      0.00     0.000 16.000
Si   c O2   s Buckingham    0.132E+04 0.318      10.1      0.00     0.000 16.000
Si   c O3   s Buckingham    0.132E+04 0.318      10.1      0.00     0.000 16.000
Ge   c O1   s Buckingham    0.150E+04 0.326      16.8      0.00     0.000 16.000
Ge   c O2   s Buckingham    0.150E+04 0.326      16.8      0.00     0.000 16.000
Ge   c O3   s Buckingham    0.150E+04 0.326      16.8      0.00     0.000 16.000
O1   s O1   s Buckingham    0.228E+05 0.149      10.9      0.00     0.000 16.000
O1   s O2   s Buckingham    0.228E+05 0.149      10.9      0.00     0.000 16.000
O1   s O3   s Buckingham    0.228E+05 0.149      10.9      0.00     0.000 16.000
O2   s O2   s Buckingham    0.228E+05 0.149      10.9      0.00     0.000 16.000
O2   s O3   s Buckingham    0.228E+05 0.149      10.9      0.00     0.000 16.000
O3   s O3   s Buckingham    0.228E+05 0.149      10.9      0.00     0.000 16.000
Si   c F    s Buckingham     977.     0.282      0.00      0.00     0.000 16.000
Ge   c F    s Buckingham     681.     0.320      0.00      0.00     0.000 16.000
F    s F    s Buckingham     540.     0.262      0.00      0.00     0.000 16.000
O1   s F    s Buckingham    0.168E+04 0.268      0.00      0.00     0.000 16.000
O2   s F    s Buckingham    0.168E+04 0.268      0.00      0.00     0.000 16.000
O3   s F    s Buckingham    0.168E+04 0.268      0.00      0.00     0.000 16.000
O2   c O2   s Spring (c-s)   76.0      0.00      0.00      0.00     0.000  0.800
O3   c O3   s Spring (c-s)   128.      0.00      0.00      0.00     0.000  0.800
O1   c O1   s Spring (c-s)   180.      0.00      0.00      0.00     0.000  0.800
F    c F    s Spring (c-s)   33.5      0.00      0.00      0.00     0.000  0.800
--------------------------------------------------------------------------------

  General Three-body potentials :

  Harmonic form:

--------------------------------------------------------------------------------
Atom    Atom    Atom           Force Constants            Theta     Cutoffs  
  1       2       3     (eVrad**-2/eVrad**-3/eVrad**-4)   (deg)  1-2  1-3  2-3
--------------------------------------------------------------------------------
Si    c O1    s O1    s  1.261        0.0000    0.0000   109.470 0.00 0.00 0.00
                                                                 1.90 1.90 3.50
Si    c O1    s O2    s  1.261        0.0000    0.0000   109.470 0.00 0.00 0.00
                                                                 1.90 1.90 3.50
Si    c O2    s O2    s  1.261        0.0000    0.0000   109.470 0.00 0.00 0.00
                                                                 1.90 1.90 3.50
--------------------------------------------------------------------------------

********************************************************************************
*  Output for configuration   1                                                *
********************************************************************************


  Components of energy : 

--------------------------------------------------------------------------------
  Interatomic potentials     =        2065.55410073 eV
  Three-body potentials      =           0.43138227 eV
  Monopole - monopole (real) =       -6613.84437145 eV
  Monopole - monopole (recip)=       -3172.37851835 eV
  Monopole - monopole (total)=       -9786.22288980 eV
  Neutralising energy        =          -6.46212928 eV
--------------------------------------------------------------------------------
  Total lattice energy       =       -7726.69953608 eV
--------------------------------------------------------------------------------
  Total lattice energy       =         -745508.3918 kJ/(mole unit cells)
--------------------------------------------------------------------------------


  Number of variables =      939

  Maximum number of calculations  =          5000
  Maximum Hessian update interval =            10
  Maximum step size               =   0.100000000
  Maximum parameter tolerance     =   0.000010000
  Maximum function  tolerance     =   0.000010000
  Maximum gradient  tolerance     =   0.001000000
  Maximum gradient  component     =   0.010000000

  Symmetry not applied to optimisation

  Cell parameters to be optimised using strains

  Newton-Raphson optimiser to be used

  BFGS hessian update to be used

  Dumpfile to be written after every cycle

  Start of bulk optimisation :

  Cycle:      0 Energy:     -7726.699536  Gnorm:      0.020695  CPU:    2.005
  ** Hessian calculated **
  Cycle:      1 Energy:     -7726.701488  Gnorm:      0.008608  CPU:    5.886
  Cycle:      2 Energy:     -7726.702387  Gnorm:      0.006593  CPU:    9.390
  Cycle:      3 Energy:     -7726.703511  Gnorm:      0.005699  CPU:   13.574
  Cycle:      4 Energy:     -7726.705043  Gnorm:      0.006337  CPU:   17.757
  Cycle:      5 Energy:     -7726.707055  Gnorm:      0.008467  CPU:   21.940
  Cycle:      6 Energy:     -7726.709504  Gnorm:      0.010136  CPU:   26.123
  Cycle:      7 Energy:     -7726.711504  Gnorm:      0.010296  CPU:   29.628
  Cycle:      8 Energy:     -7726.713395  Gnorm:      0.010409  CPU:   33.131
  Cycle:      9 Energy:     -7726.715659  Gnorm:      0.010254  CPU:   37.314
  Cycle:     10 Energy:     -7726.717495  Gnorm:      0.009457  CPU:   40.817
  ** Hessian calculated **
  Cycle:     11 Energy:     -7726.718126  Gnorm:      0.008132  CPU:   46.005
  Cycle:     12 Energy:     -7726.719274  Gnorm:      0.007253  CPU:   50.868
  Cycle:     13 Energy:     -7726.720544  Gnorm:      0.006323  CPU:   55.051
  Cycle:     14 Energy:     -7726.721797  Gnorm:      0.005375  CPU:   59.234
  Cycle:     15 Energy:     -7726.722338  Gnorm:      0.004757  CPU:   62.738
  Cycle:     16 Energy:     -7726.722786  Gnorm:      0.004408  CPU:   66.921
  Cycle:     17 Energy:     -7726.723337  Gnorm:      0.004596  CPU:   71.104
  Cycle:     18 Energy:     -7726.724060  Gnorm:      0.004210  CPU:   75.287
  Cycle:     19 Energy:     -7726.724638  Gnorm:      0.004808  CPU:   78.790
  Cycle:     20 Energy:     -7726.725396  Gnorm:      0.004445  CPU:   82.972
  ** Hessian calculated **
  Cycle:     21 Energy:     -7726.725856  Gnorm:      0.004422  CPU:   88.839
  Cycle:     22 Energy:     -7726.726632  Gnorm:      0.004383  CPU:   93.700
  Cycle:     23 Energy:     -7726.727828  Gnorm:      0.004322  CPU:   98.562
  Cycle:     24 Energy:     -7726.729610  Gnorm:      0.004230  CPU:  103.423
  Cycle:     25 Energy:     -7726.731787  Gnorm:      0.004113  CPU:  107.605
  Cycle:     26 Energy:     -7726.735347  Gnorm:      0.003914  CPU:  112.465
  Cycle:     27 Energy:     -7726.739679  Gnorm:      0.003656  CPU:  116.657
  Cycle:     28 Energy:     -7726.746430  Gnorm:      0.003209  CPU:  121.526
  Cycle:     29 Energy:     -7726.753827  Gnorm:      0.002641  CPU:  125.715
  Cycle:     30 Energy:     -7726.761730  Gnorm:      0.001887  CPU:  129.899
  ** Hessian calculated **
  Cycle:     31 Energy:     -7726.767025  Gnorm:      0.001054  CPU:  135.780
  Cycle:     32 Energy:     -7726.768337  Gnorm:      0.000650  CPU:  139.961
  Cycle:     33 Energy:     -7726.768665  Gnorm:      0.000354  CPU:  144.141
  Cycle:     34 Energy:     -7726.768748  Gnorm:      0.000188  CPU:  148.321
  Cycle:     35 Energy:     -7726.768763  Gnorm:      0.000133  CPU:  151.144
  Cycle:     36 Energy:     -7726.768770  Gnorm:      0.000094  CPU:  153.966
  Cycle:     37 Energy:     -7726.768773  Gnorm:      0.000066  CPU:  156.788
  Cycle:     38 Energy:     -7726.768775  Gnorm:      0.000046  CPU:  159.611


  **** Optimisation achieved ****


  Final energy =   -7726.76877566 eV
  Final Gnorm  =       0.00003231

  Components of energy : 

--------------------------------------------------------------------------------
  Interatomic potentials     =        2064.72004394 eV
  Three-body potentials      =           0.45768322 eV
  Monopole - monopole (real) =       -6613.08488282 eV
  Monopole - monopole (recip)=       -3172.39945127 eV
  Monopole - monopole (total)=       -9785.48433410 eV
  Neutralising energy        =          -6.46216872 eV
--------------------------------------------------------------------------------
  Total lattice energy       =       -7726.76877566 eV
--------------------------------------------------------------------------------
  Total lattice energy       =         -745515.0724 kJ/(mole unit cells)
--------------------------------------------------------------------------------

  Final fractional coordinates of atoms :

--------------------------------------------------------------------------------
   No.  Atomic        x           y          z          Radius
        Label       (Frac)      (Frac)     (Frac)       (Angs) 
--------------------------------------------------------------------------------
     1  Ge    c     0.699600    0.375700    0.033890    0.000000
     2  Si    c     0.629209    0.335219    0.368917    0.000000
     3  Si    c     0.685395    0.311838    0.701631    0.000000
     4  Si    c     0.302997    0.634255    0.533474    0.000000
     5  Si    c     0.385186    0.691346    0.867225    0.000000
     6  Si    c     0.331511    0.713624    0.203009    0.000000
     7  Si    c     0.385929    0.712095    0.303619    0.000000
     8  Si    c     0.312670    0.635432    0.969991    0.000000
     9  Si    c     0.305717    0.691384    0.634139    0.000000
    10  Si    c     0.629685    0.310025    0.802406    0.000000
    11  Si    c     0.683152    0.392804    0.469629    0.000000
    12  Si    c     0.708470    0.328366    0.137579    0.000000
    13  Si    c     0.528169    0.419339    0.971102    0.000000
    14  Si    c     0.592929    0.122092    0.305853    0.000000
    15  Si    c     0.895165    0.483855    0.636285    0.000000
    16  Si    c     0.475278    0.595141    0.468820    0.000000
    17  Si    c     0.425034    0.900092    0.801316    0.000000
    18  Si    c     0.129424    0.542496    0.134499    0.000000
    19  Si    c     0.423919    0.539035    0.367103    0.000000
    20  Ge    c     0.087188    0.570705    0.035349    0.000000
    21  Si    c     0.478149    0.902203    0.699428    0.000000
    22  Si    c     0.592163    0.481987    0.868632    0.000000
    23  Si    c     0.893639    0.430280    0.534461    0.000000
    24  Si    c     0.540399    0.120306    0.204516    0.000000
    25  Si    c     0.306883    0.410629    0.852414    0.000000
    26  Si    c     0.612394    0.914002    0.188347    0.000000
    27  Si    c     0.102268    0.711267    0.519236    0.000000
    28  Si    c     0.705362    0.611888    0.352868    0.000000
    29  Si    c     0.406326    0.109970    0.685578    0.000000
    30  Si    c     0.900263    0.292657    0.014280    0.000000
    31  Si    c     0.404375    0.315741    0.483241    0.000000
    32  Si    c     0.913626    0.613271    0.148220    0.000000
    33  Si    c     0.707109    0.109966    0.816328    0.000000
    34  Ge    c     0.584657    0.691947    0.976985    0.000000
    35  Si    c     0.104705    0.413354    0.649282    0.000000
    36  Si    c     0.310590    0.913072    0.318729    0.000000
    37  Si    c     0.247868    0.350545    0.954049    0.000000
    38  Si    c     0.668811    0.921265    0.289459    0.000000
    39  Si    c     0.096630    0.762731    0.620210    0.000000
    40  Si    c     0.754325    0.672151    0.453775    0.000000
    41  Si    c     0.348311    0.100582    0.786351    0.000000
    42  Si    c     0.923933    0.259524    0.117726    0.000000
    43  Si    c     0.346958    0.261506    0.382486    0.000000
    44  Si    c     0.908152    0.670701    0.045708    0.000000
    45  Si    c     0.757994    0.104303    0.715369    0.000000
    46  Si    c     0.672824    0.765020    0.881527    0.000000
    47  Si    c     0.094284    0.352520    0.548530    0.000000
    48  Si    c     0.259185    0.921449    0.217974    0.000000
    49  Si    c     0.970156    0.117351    0.965970    0.000000
    50  Si    c     0.885460    0.858083    0.301367    0.000000
    51  Si    c     0.158224    0.042239    0.634408    0.000000
    52  Si    c     0.034592    0.890583    0.468428    0.000000
    53  Si    c     0.131760    0.163442    0.799622    0.000000
    54  Si    c     0.856451    0.979396    0.133838    0.000000
    55  Si    c     0.128981    0.980492    0.367350    0.000000
    56  Si    c     0.835200    0.881246    0.031395    0.000000
    57  Si    c     0.038168    0.165837    0.698984    0.000000
    58  Si    c     0.886649    0.038812    0.863840    0.000000
    59  Si    c     0.156076    0.134887    0.533630    0.000000
    60  Si    c     0.979620    0.861112    0.199799    0.000000
    61  O2    c     0.933014    0.999632    0.999077    0.000000
    62  O2    c     0.010833    0.937607    0.332730    0.000000
    63  O2    c     0.077045    0.085002    0.665785    0.000000
    64  O2    c     0.077191    0.013880    0.500360    0.000000
    65  O2    c     0.007225    0.083778    0.830515    0.000000
    66  O2    c     0.940761    0.938839    0.165184    0.000000
    67  O2    c     0.346594    0.587367    0.335094    0.000000
    68  O2    c     0.429976    0.777262    0.666621    0.000000
    69  O3    c     0.216456    0.661786    0.996857    0.000000
    70  O2    c     0.666459    0.431523    0.835851    0.000000
    71  O2    c     0.593596    0.247905    0.173280    0.000000
    72  O2    c     0.766393    0.353823    0.502471    0.000000
    73  O3    c     0.564819    0.329267    0.999873    0.000000
    74  O2    c     0.770555    0.435454    0.669227    0.000000
    75  O2    c     0.669371    0.248950    0.337897    0.000000
    76  O2    c     0.426129    0.672336    0.500671    0.000000
    77  O2    c     0.246338    0.588635    0.171050    0.000000
    78  O2    c     0.348242    0.774395    0.833444    0.000000
    79  O2    c     0.122305    0.222313    0.973006    0.000000
    80  O2    c     0.795351    0.920995    0.309094    0.000000
    81  O2    c     0.095921    0.888469    0.640292    0.000000
    82  O2    c     0.880141    0.799453    0.474186    0.000000
    83  O2    c     0.221554    0.100148    0.806152    0.000000
    84  O2    c     0.920652    0.134253    0.139499    0.000000
    85  O2    c     0.220462    0.134683    0.362137    0.000000
    86  O2    c     0.895513    0.788515    0.027622    0.000000
    87  O2    c     0.883422    0.103363    0.694922    0.000000
    88  O2    c     0.792633    0.886216    0.855380    0.000000
    89  O2    c     0.092291    0.224991    0.528841    0.000000
    90  O2    c     0.135185    0.925402    0.197648    0.000000
    91  O2    c     0.931768    0.870669    0.249678    0.000000
    92  O2    c     0.144254    0.079826    0.583680    0.000000
    93  O2    c     0.943853    0.070532    0.914145    0.000000
    94  O2    c     0.083482    0.153437    0.748616    0.000000
    95  O2    c     0.859271    0.940024    0.082647    0.000000
    96  O2    c     0.071931    0.940970    0.417474    0.000000
    97  O2    c     0.886106    0.184072    0.977978    0.000000
    98  O2    c     0.803511    0.706801    0.313975    0.000000
    99  O2    c     0.310201    0.112634    0.647101    0.000000
   100  O2    c     0.103901    0.809168    0.480944    0.000000
   101  O2    c     0.214071    0.314815    0.812834    0.000000
   102  O2    c     0.707209    0.910560    0.149953    0.000000
   103  O2    c     0.212283    0.911652    0.357089    0.000000
   104  O3    c     0.688978    0.807921    0.019381    0.000000
   105  O2    c     0.107763    0.317439    0.687339    0.000000
   106  O2    c     0.806143    0.111561    0.854433    0.000000
   107  O2    c     0.307987    0.218738    0.521857    0.000000
   108  O2    c     0.914784    0.710176    0.187040    0.000000
   109  O2    c     0.330812    0.656210    0.253048    0.000000
   110  O2    c     0.362350    0.692047    0.583664    0.000000
   111  O2    c     0.326926    0.687264    0.916913    0.000000
   112  O2    c     0.687341    0.368808    0.752292    0.000000
   113  O3    c     0.647907    0.329302    0.089424    0.000000
   114  O2    c     0.685125    0.336336    0.419419    0.000000
   115  O2    c     0.370428    0.339003    0.970043    0.000000
   116  O2    c     0.680651    0.054003    0.308307    0.000000
   117  O2    c     0.964409    0.640143    0.638936    0.000000
   118  O2    c     0.632135    0.682784    0.471794    0.000000
   119  O2    c     0.337994    0.968814    0.804762    0.000000
   120  O2    c     0.052660    0.384633    0.137231    0.000000
   121  O2    c     0.336504    0.382684    0.363787    0.000000
   122  O3    c     0.042085    0.689917    0.028760    0.000000
   123  O2    c     0.634867    0.971723    0.696822    0.000000
   124  O2    c     0.677865    0.637576    0.864974    0.000000
   125  O2    c     0.961280    0.342427    0.530663    0.000000
   126  O2    c     0.384159    0.052838    0.199792    0.000000
   127  O3    c     0.762089    0.283940    0.013219    0.000000
   128  O2    c     0.704344    0.477503    0.345899    0.000000
   129  O2    c     0.541673    0.244197    0.679036    0.000000
   130  O2    c     0.235306    0.709461    0.511322    0.000000
   131  O2    c     0.313602    0.546692    0.845570    0.000000
   132  O2    c     0.474963    0.782645    0.180483    0.000000
   133  O2    c     0.309702    0.779051    0.325808    0.000000
   134  O3    c     0.453191    0.710378    0.993044    0.000000
   135  O2    c     0.238763    0.548537    0.656593    0.000000
   136  O2    c     0.704655    0.242184    0.824642    0.000000
   137  O2    c     0.538896    0.317631    0.491486    0.000000
   138  O2    c     0.786930    0.474271    0.157508    0.000000
   139  O3    c     0.790108    0.538710    0.024951    0.000000
   140  O2    c     0.472687    0.260327    0.363342    0.000000
   141  O2    c     0.759345    0.230483    0.696170    0.000000
   142  O2    c     0.220492    0.477948    0.528564    0.000000
   143  O2    c     0.540653    0.758498    0.863978    0.000000
   144  O2    c     0.256198    0.794098    0.198578    0.000000
   145  O2    c     0.542361    0.795734    0.309115    0.000000
   146  O2    c     0.254235    0.478103    0.973277    0.000000
   147  O2    c     0.223819    0.764941    0.639445    0.000000
   148  O2    c     0.472880    0.228246    0.806406    0.000000
   149  O2    c     0.756428    0.548825    0.474094    0.000000
   150  O2    c     0.798003    0.263827    0.134404    0.000000
   151  O2    c     0.236441    0.343140    0.899170    0.000000
   152  O2    c     0.685135    0.917665    0.235116    0.000000
   153  O2    c     0.098423    0.781349    0.565824    0.000000
   154  O2    c     0.775146    0.688027    0.399360    0.000000
   155  O2    c     0.330470    0.102614    0.731995    0.000000
   156  O2    c     0.925462    0.244510    0.063490    0.000000
   157  O2    c     0.329139    0.243516    0.436890    0.000000
   158  O2    c     0.900162    0.672824    0.101267    0.000000
   159  O2    c     0.777811    0.107368    0.769709    0.000000
   160  O3    c     0.698114    0.793982    0.934057    0.000000
   161  O2    c     0.098004    0.337242    0.602897    0.000000
   162  O2    c     0.240870    0.919727    0.272422    0.000000
   163  O3    c     0.588224    0.554141    0.997484    0.000000
   164  O2    c     0.451159    0.037163    0.328778    0.000000
   165  O2    c     0.979802    0.427375    0.658921    0.000000
   166  O2    c     0.417791    0.454521    0.492025    0.000000
   167  O2    c     0.567004    0.983638    0.824519    0.000000
   168  O2    c     0.040943    0.601690    0.152694    0.000000
   169  O2    c     0.565420    0.596703    0.343796    0.000000
   170  O3    c     0.018293    0.428243    0.000277    0.000000
   171  O2    c     0.421279    0.985800    0.676279    0.000000
   172  O2    c     0.448637    0.428761    0.848003    0.000000
   173  O2    c     0.976415    0.570975    0.510915    0.000000
   174  O2    c     0.601386    0.041143    0.180515    0.000000
   175  O2    c     0.592968    0.175266    0.255207    0.000000
   176  O2    c     0.840995    0.429827    0.585456    0.000000
   177  O2    c     0.588088    0.430964    0.919675    0.000000
   178  O2    c     0.423978    0.848082    0.750096    0.000000
   179  O3    c     0.183701    0.589520    0.084924    0.000000
   180  O2    c     0.422819    0.593029    0.417744    0.000000
   181  F     c     0.461113    0.916353    0.253600    0.000000
   182  F     c     0.103152    0.561381    0.584392    0.000000
   183  F     c     0.484194    0.584369    0.928224    0.000000
   184  F     c     0.556066    0.110026    0.751272    0.000000
   185  F     c     0.939034    0.475831    0.072677    0.000000
   186  F     c     0.553938    0.463679    0.418163    0.000000
   187  O2    s     0.927124    0.000959    0.998618    0.000000
   188  O2    s     0.009973    0.933471    0.333083    0.000000
   189  O2    s     0.081783    0.089248    0.665986    0.000000
   190  O2    s     0.081246    0.013607    0.500507    0.000000
   191  O2    s     0.008016    0.087943    0.830708    0.000000
   192  O2    s     0.936068    0.934605    0.165666    0.000000
   193  O2    s     0.358624    0.595321    0.335118    0.000000
   194  O2    s     0.422134    0.781303    0.666647    0.000000
   195  O3    s     0.218576    0.652551    0.996440    0.000000
   196  O2    s     0.654994    0.424193    0.835781    0.000000
   197  O2    s     0.600367    0.243303    0.172672    0.000000
   198  O2    s     0.770915    0.365766    0.502363    0.000000
   199  O3    s     0.571739    0.341521    0.999768    0.000000
   200  O2    s     0.774678    0.427772    0.669163    0.000000
   201  O2    s     0.657340    0.244669    0.337771    0.000000
   202  O2    s     0.418567    0.660455    0.500757    0.000000
   203  O2    s     0.243211    0.596923    0.170638    0.000000
   204  O2    s     0.359961    0.778861    0.833590    0.000000
   205  O2    s     0.119724    0.224968    0.970284    0.000000
   206  O2    s     0.791812    0.914381    0.306276    0.000000
   207  O2    s     0.102597    0.891798    0.637626    0.000000
   208  O2    s     0.883602    0.795988    0.471479    0.000000
   209  O2    s     0.225074    0.106958    0.803433    0.000000
   210  O2    s     0.914363    0.131245    0.136682    0.000000
   211  O2    s     0.223848    0.131434    0.364776    0.000000
   212  O2    s     0.890431    0.785077    0.030082    0.000000
   213  O2    s     0.886960    0.110134    0.697444    0.000000
   214  O2    s     0.790666    0.890350    0.858834    0.000000
   215  O2    s     0.099212    0.228604    0.531345    0.000000
   216  O2    s     0.131570    0.918225    0.199949    0.000000
   217  O2    s     0.931970    0.868219    0.249880    0.000000
   218  O2    s     0.147170    0.081821    0.583745    0.000000
   219  O2    s     0.940309    0.072181    0.914217    0.000000
   220  O2    s     0.083837    0.156006    0.748801    0.000000
   221  O2    s     0.856481    0.938647    0.083419    0.000000
   222  O2    s     0.074183    0.939769    0.417546    0.000000
   223  O2    s     0.896446    0.188006    0.980395    0.000000
   224  O2    s     0.802213    0.713156    0.316590    0.000000
   225  O2    s     0.303893    0.104915    0.649667    0.000000
   226  O2    s     0.096413    0.807802    0.483524    0.000000
   227  O2    s     0.215200    0.308980    0.815616    0.000000
   228  O2    s     0.712993    0.918179    0.152308    0.000000
   229  O2    s     0.213509    0.919093    0.354249    0.000000
   230  O3    s     0.699197    0.809022    0.018107    0.000000
   231  O2    s     0.100044    0.311137    0.684681    0.000000
   232  O2    s     0.804399    0.103881    0.851526    0.000000
   233  O2    s     0.301618    0.219749    0.519139    0.000000
   234  O2    s     0.921548    0.716201    0.184395    0.000000
   235  O2    s     0.336613    0.667959    0.253128    0.000000
   236  O2    s     0.350492    0.686074    0.583697    0.000000
   237  O2    s     0.331919    0.682914    0.916429    0.000000
   238  O2    s     0.681291    0.357052    0.752238    0.000000
   239  O3    s     0.657975    0.332807    0.089942    0.000000
   240  O2    s     0.679148    0.342060    0.419380    0.000000
   241  O2    s     0.373322    0.348397    0.968426    0.000000
   242  O2    s     0.670440    0.047183    0.306090    0.000000
   243  O2    s     0.971149    0.636916    0.636690    0.000000
   244  O2    s     0.628778    0.672624    0.469585    0.000000
   245  O2    s     0.347999    0.975606    0.802467    0.000000
   246  O2    s     0.046599    0.386912    0.134906    0.000000
   247  O2    s     0.346600    0.386127    0.366089    0.000000
   248  O3    s     0.031078    0.679536    0.031069    0.000000
   249  O2    s     0.631596    0.978468    0.699051    0.000000
   250  O2    s     0.668377    0.633995    0.867026    0.000000
   251  O2    s     0.968229    0.352488    0.532925    0.000000
   252  O2    s     0.387288    0.046121    0.202179    0.000000
   253  O3    s     0.770577    0.292248    0.015027    0.000000
   254  O2    s     0.696736    0.476981    0.349021    0.000000
   255  O2    s     0.542180    0.237008    0.682081    0.000000
   256  O2    s     0.228295    0.701934    0.514456    0.000000
   257  O2    s     0.320153    0.546765    0.848517    0.000000
   258  O2    s     0.474643    0.789392    0.183670    0.000000
   259  O2    s     0.317623    0.786260    0.322752    0.000000
   260  O3    s     0.449053    0.701627    0.989546    0.000000
   261  O2    s     0.231486    0.548946    0.653479    0.000000
   262  O2    s     0.697207    0.235318    0.821456    0.000000
   263  O2    s     0.539565    0.325207    0.488320    0.000000
   264  O2    s     0.792224    0.473847    0.154457    0.000000
   265  O3    s     0.793970    0.537501    0.027662    0.000000
   266  O2    s     0.475410    0.268338    0.365953    0.000000
   267  O2    s     0.751404    0.225215    0.698786    0.000000
   268  O2    s     0.215308    0.480592    0.531199    0.000000
   269  O2    s     0.537543    0.751873    0.866125    0.000000
   270  O2    s     0.264374    0.799614    0.201106    0.000000
   271  O2    s     0.539763    0.800724    0.306448    0.000000
   272  O2    s     0.259202    0.478507    0.970827    0.000000
   273  O2    s     0.218441    0.756969    0.636839    0.000000
   274  O2    s     0.475770    0.222916    0.803844    0.000000
   275  O2    s     0.748430    0.545848    0.471451    0.000000
   276  O2    s     0.802037    0.270355    0.132944    0.000000
   277  O2    s     0.245224    0.351192    0.899806    0.000000
   278  O2    s     0.675701    0.917657    0.235986    0.000000
   279  O2    s     0.098637    0.772012    0.566696    0.000000
   280  O2    s     0.765649    0.678381    0.400221    0.000000
   281  O2    s     0.340342    0.103161    0.732868    0.000000
   282  O2    s     0.922969    0.250843    0.064658    0.000000
   283  O2    s     0.338888    0.252975    0.435974    0.000000
   284  O2    s     0.902392    0.666065    0.100948    0.000000
   285  O2    s     0.768326    0.107318    0.768787    0.000000
   286  O3    s     0.688176    0.784338    0.931257    0.000000
   287  O2    s     0.098302    0.346850    0.601975    0.000000
   288  O2    s     0.250062    0.919232    0.271463    0.000000
   289  O3    s     0.581851    0.550193    0.993467    0.000000
   290  O2    s     0.450868    0.032513    0.325295    0.000000
   291  O2    s     0.984603    0.431936    0.655514    0.000000
   292  O2    s     0.422538    0.454291    0.488643    0.000000
   293  O2    s     0.567209    0.988633    0.821212    0.000000
   294  O2    s     0.035684    0.596941    0.150356    0.000000
   295  O2    s     0.565734    0.592167    0.347195    0.000000
   296  O3    s     0.010210    0.423490    0.004109    0.000000
   297  O2    s     0.425753    0.990658    0.679689    0.000000
   298  O2    s     0.448155    0.432475    0.850665    0.000000
   299  O2    s     0.981555    0.571478    0.514263    0.000000
   300  O2    s     0.596088    0.035763    0.183847    0.000000
   301  O2    s     0.587395    0.163884    0.255151    0.000000
   302  O2    s     0.852084    0.435478    0.585443    0.000000
   303  O2    s     0.582858    0.435349    0.919166    0.000000
   304  O2    s     0.429674    0.859070    0.750168    0.000000
   305  O3    s     0.171617    0.583268    0.086832    0.000000
   306  O2    s     0.428415    0.587626    0.417808    0.000000
   307  F     s     0.460955    0.916274    0.253569    0.000000
   308  F     s     0.103589    0.561552    0.584391    0.000000
   309  F     s     0.491117    0.591349    0.931259    0.000000
   310  F     s     0.556219    0.110476    0.751292    0.000000
   311  F     s     0.947487    0.481266    0.070127    0.000000
   312  F     s     0.554064    0.463470    0.418149    0.000000
--------------------------------------------------------------------------------

  Final Cartesian lattice vectors (Angstroms) :

       11.975338   -0.027304   -0.000377
       -6.058066   10.381207   -0.016076
        0.014845   -0.109425   29.424973


  Final cell parameters and derivatives :

--------------------------------------------------------------------------------
       a           11.975369 Angstrom     dE/de1(xx)     0.004847 eV/strain
       b           12.019563 Angstrom     dE/de2(yy)     0.003761 eV/strain
       c           29.425180 Angstrom     dE/de3(zz)     0.004248 eV/strain
       alpha       90.275226 Degrees      dE/de4(yz)    -0.000323 eV/strain
       beta        89.972410 Degrees      dE/de5(xz)     0.000526 eV/strain
       gamma      120.396765 Degrees      dE/de6(xy)     0.000218 eV/strain
--------------------------------------------------------------------------------

  Primitive cell volume =          3653.179028 Angs**3

  Density of cell =      1.751377 g/cm**3

  Non-primitive cell volume =          3653.179028 Angs**3


  Final internal derivatives :

--------------------------------------------------------------------------------
   No.  Atomic          a             b             c           Radius
        Label          (eV)          (eV)          (eV)        (eV/Angs)
--------------------------------------------------------------------------------
      1 Ge    c       0.000000      0.000000      0.000000      0.000000
      2 Si    c      -0.000214      0.000457      0.000401      0.000000
      3 Si    c      -0.000173      0.000254      0.000302      0.000000
      4 Si    c       0.000710     -0.000032     -0.000152      0.000000
      5 Si    c      -0.000142     -0.000421     -0.000142      0.000000
      6 Si    c      -0.000217     -0.000691      0.000530      0.000000
      7 Si    c       0.000100     -0.000394     -0.001020      0.000000
      8 Si    c       0.002564     -0.000821     -0.003430      0.000000
      9 Si    c       0.000638      0.000163     -0.000630      0.000000
     10 Si    c      -0.000098      0.000575      0.000708      0.000000
     11 Si    c      -0.000486     -0.000604     -0.000332      0.000000
     12 Si    c       0.000066     -0.000549      0.001346      0.000000
     13 Si    c      -0.002494      0.001925     -0.004123      0.000000
     14 Si    c       0.000152      0.000553     -0.000216      0.000000
     15 Si    c      -0.001000     -0.000269     -0.000537      0.000000
     16 Si    c       0.000081      0.000080      0.000073      0.000000
     17 Si    c       0.000149     -0.000275     -0.000085      0.000000
     18 Si    c       0.000061      0.000383      0.003281      0.000000
     19 Si    c       0.000207      0.000467     -0.000376      0.000000
     20 Ge    c      -0.001096      0.000649      0.000613      0.000000
     21 Si    c      -0.000098     -0.000791      0.000234      0.000000
     22 Si    c      -0.000558     -0.000336     -0.000714      0.000000
     23 Si    c      -0.000922     -0.000211     -0.000396      0.000000
     24 Si    c      -0.000111      0.000316      0.001053      0.000000
     25 Si    c      -0.000328     -0.000675     -0.001571      0.000000
     26 Si    c       0.000617     -0.000770      0.000236      0.000000
     27 Si    c      -0.000478     -0.000212      0.000765      0.000000
     28 Si    c       0.000347      0.000162     -0.001225      0.000000
     29 Si    c      -0.000464      0.000766     -0.000422      0.000000
     30 Si    c       0.000306     -0.000354      0.000758      0.000000
     31 Si    c      -0.000431     -0.000321      0.000662      0.000000
     32 Si    c      -0.000044      0.000199      0.004754      0.000000
     33 Si    c      -0.000342     -0.000605     -0.000277      0.000000
     34 Ge    c       0.000349     -0.000008      0.000535      0.000000
     35 Si    c       0.000882     -0.000492     -0.000410      0.000000
     36 Si    c       0.000140      0.000232     -0.000690      0.000000
     37 Si    c       0.000110      0.000498      0.000795      0.000000
     38 Si    c      -0.000077     -0.000364     -0.001069      0.000000
     39 Si    c      -0.000714      0.000444     -0.000623      0.000000
     40 Si    c       0.000365      0.000346      0.000544      0.000000
     41 Si    c      -0.000162      0.000537     -0.000758      0.000000
     42 Si    c       0.000298     -0.000003     -0.001462      0.000000
     43 Si    c      -0.000285     -0.000248     -0.000815      0.000000
     44 Si    c       0.000187     -0.000287      0.001933      0.000000
     45 Si    c       0.000337     -0.001066      0.000566      0.000000
     46 Si    c      -0.000194      0.000279     -0.001055      0.000000
     47 Si    c       0.000431     -0.000186      0.000725      0.000000
     48 Si    c      -0.000277      0.000555      0.001024      0.000000
     49 Si    c      -0.000075     -0.000379      0.001604      0.000000
     50 Si    c       0.000339      0.000413     -0.001297      0.000000
     51 Si    c       0.000301      0.000319     -0.000133      0.000000
     52 Si    c       0.000353     -0.000148      0.000538      0.000000
     53 Si    c      -0.000046     -0.000412     -0.001250      0.000000
     54 Si    c      -0.000035     -0.000340      0.000888      0.000000
     55 Si    c      -0.000324     -0.000239     -0.000156      0.000000
     56 Si    c      -0.000945      0.002349      0.001529      0.000000
     57 Si    c      -0.000179     -0.000022     -0.002079      0.000000
     58 Si    c       0.000126     -0.000096     -0.000522      0.000000
     59 Si    c      -0.000560     -0.000056     -0.000004      0.000000
     60 Si    c       0.000119     -0.000084     -0.001371      0.000000
     61 O2    c       0.000332     -0.000012      0.000537      0.000000
     62 O2    c      -0.000104      0.000246     -0.000637      0.000000
     63 O2    c      -0.000038      0.000242      0.000543      0.000000
     64 O2    c      -0.000129      0.000222      0.000591      0.000000
     65 O2    c       0.000038     -0.000516      0.000155      0.000000
     66 O2    c      -0.000746      0.000038     -0.000340      0.000000
     67 O2    c      -0.000140      0.000289     -0.001026      0.000000
     68 O2    c       0.000357     -0.000150      0.000374      0.000000
     69 O3    c      -0.001781      0.002283      0.005553      0.000000
     70 O2    c       0.000153     -0.000651     -0.001485      0.000000
     71 O2    c      -0.000375     -0.000070      0.001088      0.000000
     72 O2    c       0.000182     -0.000085      0.000334      0.000000
     73 O3    c      -0.001154     -0.003185     -0.003999      0.000000
     74 O2    c      -0.000256      0.000407     -0.000682      0.000000
     75 O2    c       0.000285     -0.000668     -0.001500      0.000000
     76 O2    c      -0.000371      0.000031      0.000524      0.000000
     77 O2    c      -0.000140     -0.000180     -0.000388      0.000000
     78 O2    c       0.000120     -0.000236     -0.000730      0.000000
     79 O2    c       0.000994      0.000023      0.000646      0.000000
     80 O2    c      -0.000157     -0.000051     -0.001207      0.000000
     81 O2    c       0.000179      0.000008     -0.000498      0.000000
     82 O2    c      -0.000300      0.000315     -0.000377      0.000000
     83 O2    c       0.000119     -0.000057     -0.001364      0.000000
     84 O2    c       0.000021     -0.000560     -0.000538      0.000000
     85 O2    c      -0.000019      0.000062      0.000409      0.000000
     86 O2    c       0.003840     -0.003549      0.000433      0.000000
     87 O2    c       0.000398     -0.000301      0.000508      0.000000
     88 O2    c       0.000059     -0.000031     -0.000037      0.000000
     89 O2    c       0.000405      0.000166      0.001321      0.000000
     90 O2    c      -0.000503     -0.000197      0.000649      0.000000
     91 O2    c      -0.000091     -0.000059      0.000675      0.000000
     92 O2    c       0.000083     -0.000152      0.001929      0.000000
     93 O2    c      -0.000133      0.000106     -0.000159      0.000000
     94 O2    c      -0.000156     -0.000061      0.001022      0.000000
     95 O2    c      -0.000146      0.000066      0.002699      0.000000
     96 O2    c       0.000077     -0.000107      0.000333      0.000000
     97 O2    c      -0.000693      0.001343      0.001170      0.000000
     98 O2    c       0.000381     -0.000024      0.000501      0.000000
     99 O2    c      -0.000374      0.000168      0.000765      0.000000
    100 O2    c       0.000030     -0.000335      0.001255      0.000000
    101 O2    c      -0.000111     -0.000145      0.000546      0.000000
    102 O2    c       0.000233     -0.000287      0.000231      0.000000
    103 O2    c       0.000340     -0.000271     -0.001509      0.000000
    104 O3    c      -0.001839      0.000068     -0.001374      0.000000
    105 O2    c       0.000120     -0.000363     -0.000615      0.000000
    106 O2    c      -0.000658      0.000498     -0.001631      0.000000
    107 O2    c       0.000124     -0.000423     -0.000374      0.000000
    108 O2    c       0.000059     -0.000725     -0.001172      0.000000
    109 O2    c       0.000253     -0.000979     -0.000123      0.000000
    110 O2    c       0.000624     -0.000107     -0.000126      0.000000
    111 O2    c      -0.000173      0.000539     -0.000127      0.000000
    112 O2    c      -0.000194      0.000832     -0.000241      0.000000
    113 O3    c      -0.000923     -0.000711      0.006044      0.000000
    114 O2    c       0.000765     -0.000899      0.000404      0.000000
    115 O2    c       0.000540     -0.000608     -0.000054      0.000000
    116 O2    c       0.000272      0.000160      0.000267      0.000000
    117 O2    c      -0.000782      0.000520     -0.000417      0.000000
    118 O2    c       0.000049      0.000106      0.000121      0.000000
    119 O2    c      -0.000546     -0.000402      0.000331      0.000000
    120 O2    c       0.000274     -0.000935      0.000173      0.000000
    121 O2    c      -0.000037      0.000126     -0.000427      0.000000
    122 O3    c       0.000282      0.000778     -0.000132      0.000000
    123 O2    c       0.000515     -0.000903     -0.000101      0.000000
    124 O2    c       0.000326     -0.000451     -0.000363      0.000000
    125 O2    c      -0.000209     -0.000323     -0.000522      0.000000
    126 O2    c      -0.000442      0.000806     -0.000007      0.000000
    127 O3    c      -0.001773      0.000647      0.001535      0.000000
    128 O2    c       0.000578     -0.000280     -0.000550      0.000000
    129 O2    c      -0.000470      0.000776     -0.000585      0.000000
    130 O2    c       0.000576      0.000158     -0.001250      0.000000
    131 O2    c      -0.000710      0.000633     -0.000631      0.000000
    132 O2    c       0.000540     -0.000880     -0.000169      0.000000
    133 O2    c      -0.000206     -0.000733      0.000822      0.000000
    134 O3    c      -0.000014      0.000630     -0.000108      0.000000
    135 O2    c       0.000614     -0.000639      0.000028      0.000000
    136 O2    c      -0.000052      0.000588      0.000892      0.000000
    137 O2    c       0.000236     -0.000647      0.000238      0.000000
    138 O2    c      -0.001883     -0.000738      0.000764      0.000000
    139 O3    c      -0.002376     -0.000432     -0.002891      0.000000
    140 O2    c      -0.000223     -0.000306      0.000027      0.000000
    141 O2    c       0.000554     -0.000057     -0.000808      0.000000
    142 O2    c       0.000930     -0.000294      0.000049      0.000000
    143 O2    c       0.000198      0.000123      0.000192      0.000000
    144 O2    c      -0.000960      0.000365     -0.000362      0.000000
    145 O2    c       0.000419     -0.000928     -0.000484      0.000000
    146 O2    c       0.000135     -0.000432     -0.000199      0.000000
    147 O2    c      -0.000082      0.000523     -0.000013      0.000000
    148 O2    c      -0.000565      0.000986     -0.000603      0.000000
    149 O2    c       0.000063      0.000153      0.000232      0.000000
    150 O2    c      -0.000091     -0.000095     -0.000980      0.000000
    151 O2    c      -0.000574     -0.000438     -0.000143      0.000000
    152 O2    c       0.000676     -0.000418     -0.001014      0.000000
    153 O2    c      -0.000252      0.000659     -0.001377      0.000000
    154 O2    c       0.000304      0.000295     -0.000649      0.000000
    155 O2    c      -0.000793      0.000401     -0.000979      0.000000
    156 O2    c       0.000533     -0.001543      0.004465      0.000000
    157 O2    c      -0.000075     -0.000628      0.000584      0.000000
    158 O2    c      -0.001746      0.003560     -0.009891      0.000000
    159 O2    c       0.000829     -0.000584      0.001071      0.000000
    160 O3    c       0.000225      0.000784      0.001493      0.000000
    161 O2    c       0.000411     -0.000801      0.000895      0.000000
    162 O2    c      -0.000659      0.000099      0.000241      0.000000
    163 O3    c       0.000908      0.000045      0.002290      0.000000
    164 O2    c      -0.000310      0.000580     -0.000264      0.000000
    165 O2    c      -0.000140     -0.000490      0.000962      0.000000
    166 O2    c      -0.000535      0.000508      0.000462      0.000000
    167 O2    c       0.000416     -0.000856     -0.000351      0.000000
    168 O2    c       0.000167     -0.000235      0.001185      0.000000
    169 O2    c      -0.000292      0.000538     -0.000377      0.000000
    170 O3    c       0.002336      0.001887     -0.000599      0.000000
    171 O2    c      -0.000413     -0.000252     -0.001687      0.000000
    172 O2    c       0.000862     -0.001132     -0.001086      0.000000
    173 O2    c      -0.000690      0.000616     -0.000065      0.000000
    174 O2    c       0.000360      0.000131     -0.001290      0.000000
    175 O2    c      -0.000111      0.000865      0.000275      0.000000
    176 O2    c      -0.000555      0.000115     -0.000707      0.000000
    177 O2    c       0.000333     -0.000747     -0.002232      0.000000
    178 O2    c       0.000156     -0.001031      0.000484      0.000000
    179 O3    c       0.001966      0.000278     -0.001420      0.000000
    180 O2    c      -0.000670      0.000817     -0.000091      0.000000
    181 F     c       0.000036     -0.000036     -0.000008      0.000000
    182 F     c      -0.000087     -0.000070      0.000249      0.000000
    183 F     c       0.000058      0.000125      0.000220      0.000000
    184 F     c      -0.000051     -0.000104     -0.000007      0.000000
    185 F     c      -0.000544     -0.000225     -0.000355      0.000000
    186 F     c      -0.000070      0.000066      0.000042      0.000000
    187 O2    s       0.000113      0.000685     -0.000766      0.000000
    188 O2    s       0.000259     -0.000315      0.000152      0.000000
    189 O2    s       0.000383     -0.000101      0.000135      0.000000
    190 O2    s       0.000394     -0.000578     -0.000201      0.000000
    191 O2    s      -0.000308      0.000312      0.000355      0.000000
    192 O2    s       0.000098     -0.000068      0.000282      0.000000
    193 O2    s       0.000448      0.000127     -0.000013      0.000000
    194 O2    s      -0.000293     -0.000163     -0.000415      0.000000
    195 O3    s       0.000710     -0.000731     -0.001365      0.000000
    196 O2    s      -0.000393     -0.000268     -0.000204      0.000000
    197 O2    s      -0.000153     -0.000123     -0.000887      0.000000
    198 O2    s       0.000411      0.000108      0.001002      0.000000
    199 O3    s       0.001307      0.002105      0.001334      0.000000
    200 O2    s       0.000306     -0.000138     -0.000254      0.000000
    201 O2    s      -0.000599     -0.000209     -0.000861      0.000000
    202 O2    s      -0.000285     -0.000086      0.000666      0.000000
    203 O2    s       0.000481      0.000107      0.001222      0.000000
    204 O2    s       0.000256     -0.000030      0.000347      0.000000
    205 O2    s       0.000330     -0.000149     -0.001474      0.000000
    206 O2    s      -0.000322      0.000292     -0.001389      0.000000
    207 O2    s       0.000163      0.000216     -0.000198      0.000000
    208 O2    s      -0.000002     -0.000727     -0.000748      0.000000
    209 O2    s       0.000317     -0.000425     -0.001203      0.000000
    210 O2    s      -0.000296     -0.000368     -0.000054      0.000000
    211 O2    s       0.000668      0.000159      0.000711      0.000000
    212 O2    s       0.000181      0.000620      0.001146      0.000000
    213 O2    s       0.000130      0.000193     -0.000353      0.000000
    214 O2    s      -0.000038     -0.000224      0.000989      0.000000
    215 O2    s      -0.000328      0.000425      0.001139      0.000000
    216 O2    s      -0.000410      0.000084     -0.000500      0.000000
    217 O2    s       0.000199     -0.000049      0.000707      0.000000
    218 O2    s       0.000307     -0.000091     -0.001158      0.000000
    219 O2    s       0.000462     -0.000422     -0.001282      0.000000
    220 O2    s      -0.000047     -0.000240      0.000562      0.000000
    221 O2    s      -0.000261      0.001100      0.001284      0.000000
    222 O2    s       0.000268      0.000012     -0.000796      0.000000
    223 O2    s       0.000220      0.000333     -0.001961      0.000000
    224 O2    s      -0.000524     -0.000134      0.001524      0.000000
    225 O2    s      -0.000095     -0.000244     -0.000061      0.000000
    226 O2    s      -0.000057      0.000002      0.000759      0.000000
    227 O2    s       0.000160      0.000444      0.002110      0.000000
    228 O2    s      -0.000569      0.000681      0.000067      0.000000
    229 O2    s      -0.000086     -0.000048     -0.001438      0.000000
    230 O3    s      -0.001217      0.000780     -0.004165      0.000000
    231 O2    s      -0.000524     -0.000027      0.000162      0.000000
    232 O2    s       0.000009     -0.000330     -0.001606      0.000000
    233 O2    s       0.000278      0.000250     -0.001050      0.000000
    234 O2    s      -0.000199      0.000624      0.002184      0.000000
    235 O2    s      -0.000240     -0.000887     -0.000027      0.000000
    236 O2    s       0.000820      0.000011     -0.000627      0.000000
    237 O2    s      -0.001114      0.001291     -0.000927      0.000000
    238 O2    s      -0.000180      0.000838     -0.000132      0.000000
    239 O3    s      -0.001337     -0.000221     -0.006835      0.000000
    240 O2    s       0.000982     -0.001278      0.000562      0.000000
    241 O2    s      -0.000382      0.000244     -0.000000      0.000000
    242 O2    s      -0.000257      0.000391      0.000528      0.000000
    243 O2    s       0.000697     -0.000223     -0.000017      0.000000
    244 O2    s      -0.000382      0.000391      0.000082      0.000000
    245 O2    s       0.000028     -0.000455      0.001185      0.000000
    246 O2    s      -0.000228     -0.000565     -0.001383      0.000000
    247 O2    s      -0.000392      0.000084      0.000095      0.000000
    248 O3    s       0.000804      0.000061     -0.002254      0.000000
    249 O2    s      -0.000198      0.000224     -0.000395      0.000000
    250 O2    s       0.000061     -0.000209      0.000336      0.000000
    251 O2    s      -0.000303      0.000092     -0.000483      0.000000
    252 O2    s       0.000202     -0.000040     -0.000653      0.000000
    253 O3    s      -0.000127     -0.000049     -0.003034      0.000000
    254 O2    s       0.000337     -0.000287     -0.000190      0.000000
    255 O2    s       0.000254     -0.000415     -0.000431      0.000000
    256 O2    s       0.000365     -0.000166     -0.000194      0.000000
    257 O2    s      -0.000117     -0.000054      0.001251      0.000000
    258 O2    s      -0.000567      0.000654     -0.001163      0.000000
    259 O2    s       0.000191     -0.000447      0.000633      0.000000
    260 O3    s       0.000359      0.000184     -0.000486      0.000000
    261 O2    s      -0.000533     -0.000118      0.000469      0.000000
    262 O2    s      -0.000103      0.000175      0.000616      0.000000
    263 O2    s       0.000389     -0.000260     -0.000288      0.000000
    264 O2    s      -0.000926     -0.000302      0.001808      0.000000
    265 O3    s       0.001159     -0.000143      0.002117      0.000000
    266 O2    s       0.000471     -0.000688     -0.000009      0.000000
    267 O2    s       0.000289     -0.000070     -0.000946      0.000000
    268 O2    s       0.000009      0.000340      0.000095      0.000000
    269 O2    s      -0.000092      0.000219      0.000379      0.000000
    270 O2    s      -0.000010      0.000089     -0.001055      0.000000
    271 O2    s      -0.000354     -0.000219     -0.000060      0.000000
    272 O2    s      -0.000038      0.000504     -0.000544      0.000000
    273 O2    s       0.000485      0.000017      0.000543      0.000000
    274 O2    s       0.000331     -0.000127      0.000285      0.000000
    275 O2    s       0.000854     -0.000464      0.000306      0.000000
    276 O2    s      -0.000538     -0.000279     -0.000774      0.000000
    277 O2    s      -0.000271     -0.000625     -0.000212      0.000000
    278 O2    s       0.000748     -0.000497     -0.000570      0.000000
    279 O2    s      -0.000463      0.000834     -0.000779      0.000000
    280 O2    s       0.000397      0.000583     -0.000570      0.000000
    281 O2    s      -0.001131      0.000838     -0.001410      0.000000
    282 O2    s       0.000210     -0.001019      0.001864      0.000000
    283 O2    s      -0.000498     -0.000477      0.000615      0.000000
    284 O2    s      -0.000854      0.001639      0.000731      0.000000
    285 O2    s       0.000837     -0.000854     -0.000103      0.000000
    286 O3    s       0.000135     -0.000563      0.000842      0.000000
    287 O2    s       0.000488     -0.000973      0.000398      0.000000
    288 O2    s      -0.001211      0.000878     -0.000341      0.000000
    289 O3    s      -0.000016     -0.000064     -0.004479      0.000000
    290 O2    s      -0.000153      0.000024      0.000332      0.000000
    291 O2    s      -0.000330     -0.000306     -0.000033      0.000000
    292 O2    s      -0.000164     -0.000273      0.000028      0.000000
    293 O2    s      -0.000223     -0.000124      0.000386      0.000000
    294 O2    s       0.001951     -0.000929      0.003747      0.000000
    295 O2    s      -0.000011      0.000317      0.000934      0.000000
    296 O3    s       0.000794      0.000001     -0.001959      0.000000
    297 O2    s      -0.000079     -0.000334     -0.000544      0.000000
    298 O2    s      -0.000300      0.000079      0.001025      0.000000
    299 O2    s       0.000531      0.000126     -0.000194      0.000000
    300 O2    s      -0.000252      0.000390     -0.001059      0.000000
    301 O2    s      -0.000189      0.001054     -0.000830      0.000000
    302 O2    s      -0.000650     -0.000356      0.000446      0.000000
    303 O2    s       0.001322     -0.001260      0.000045      0.000000
    304 O2    s       0.000073     -0.001143     -0.000679      0.000000
    305 O3    s      -0.000545     -0.000140     -0.002103      0.000000
    306 O2    s      -0.000626      0.000977     -0.000484      0.000000
    307 F     s      -0.000005      0.000213     -0.000725      0.000000
    308 F     s      -0.000198      0.000026      0.000371      0.000000
    309 F     s      -0.000003      0.000139     -0.000861      0.000000
    310 F     s      -0.000007     -0.000116     -0.000704      0.000000
    311 F     s       0.000705     -0.000931      0.000307      0.000000
    312 F     s      -0.000060      0.000032     -0.000003      0.000000
--------------------------------------------------------------------------------
  Maximum abs         0.003840      0.003560      0.009891      0.000000
--------------------------------------------------------------------------------


  Time to end of optimisation =     162.4444 seconds


  Peak dynamic memory used =      19.13 MB 


  Timing analysis for GULP :

--------------------------------------------------------------------------------
  Task / Subroutine                                          Time (Seconds)
--------------------------------------------------------------------------------
  Calculation of reciprocal space energy and derivatives          3.7492
  Calculation of real space energy and derivatives              142.4627
  Calculation of three-body energy and derivatives               14.5390
  Calculation of matrix inversion                                 1.4874
  Global summation overhead                                       0.0002
--------------------------------------------------------------------------------
  Total CPU time                                                162.4444
--------------------------------------------------------------------------------


  Dump file written as out.res                                                 
  CIF file written as out.cif                                                 


  Job Finished at 00:28.32  2nd November   2016                               

