********************************************************************************
*                       GENERAL UTILITY LATTICE PROGRAM                        *
*                                 Julian Gale                                  *
*                      Nanochemistry Research Institute                        *
*                           Department of Chemistry                            *
*                    Curtin University, Western Australia                      *
********************************************************************************
* Version = 4.2.0 * Last modified =  20th January 2014                         *
********************************************************************************
*  optimise     - perform optimisation run                                     *
*  conp         - constant pressure calculation                                *
*  qok          - running with non charge neutral cell is OK                   *
********************************************************************************

  Job Started  at 05:20.48  3rd November   2016                               

  Number of CPUs =     1


  Total number of configurations input =   1

********************************************************************************
*  Input for Configuration =   1                                               *
********************************************************************************

  Formula = Ge3Si57O120F6                                               

  Number of irreducible atoms/shells =     312


  Total number atoms/shells =     312

  Dimensionality = 3               :  Bulk   


  Charge on solid   =  -6.000000 =>neutralising background added


  Cartesian lattice vectors (Angstroms) :

       11.912992    0.000000    0.000000
       -6.002914   10.418638    0.000000
       -0.240187   -0.285752   29.417341

  Cell parameters (Angstroms/Degrees):

  a =      11.9130    alpha =  90.2487
  b =      12.0243    beta  =  90.4678
  c =      29.4197    gamma = 119.9493

  Initial cell volume =        3651.196594 Angs**3

  Temperature of configuration =  0.000     K 

  Pressure of configuration =         0.000 GPa 

  Fractional coordinates of asymmetric unit :

--------------------------------------------------------------------------------
   No.  Atomic       x           y          z         Charge      Occupancy
        Label      (Frac)      (Frac)     (Frac)        (e)         (Frac)  
--------------------------------------------------------------------------------
      1 Ge    c    0.699600    0.375700    0.033890     4.00000    1.000000    
      2 Si    c    0.621644 *  0.323402 *  0.362544 *   4.00000    1.000000    
      3 Si    c    0.680026 *  0.302923 *  0.696163 *   4.00000    1.000000    
      4 Si    c    0.297140 *  0.620437 *  0.528387 *   4.00000    1.000000    
      5 Si    c    0.360909 *  0.670555 *  0.858434 *   4.00000    1.000000    
      6 Si    c    0.318910 *  0.702909 *  0.194539 *   4.00000    1.000000    
      7 Si    c    0.374679 *  0.696966 *  0.295128 *   4.00000    1.000000    
      8 Si    c    0.313607 *  0.616589 *  0.960752 *   4.00000    1.000000    
      9 Si    c    0.298853 *  0.676470 *  0.629269 *   4.00000    1.000000    
     10 Si    c    0.624813 *  0.320204 *  0.798996 *   4.00000    1.000000    
     11 Si    c    0.677333 *  0.381744 *  0.463153 *   4.00000    1.000000    
     12 Si    c    0.684277 *  0.316615 *  0.132406 *   4.00000    1.000000    
     13 Si    c    0.531363 *  0.412978 *  0.963443 *   4.00000    1.000000    
     14 Si    c    0.581711 *  0.107738 *  0.300414 *   4.00000    1.000000    
     15 Si    c    0.888362 *  0.470873 *  0.630191 *   4.00000    1.000000    
     16 Si    c    0.467141 *  0.582586 *  0.461949 *   4.00000    1.000000    
     17 Si    c    0.409883 *  0.887543 *  0.798834 *   4.00000    1.000000    
     18 Si    c    0.105959 *  0.529885 *  0.128032 *   4.00000    1.000000    
     19 Si    c    0.414870 *  0.526112 *  0.359887 *   4.00000    1.000000    
     20 Si    c    0.098780 *  0.577056 *  0.024825 *   4.00000    1.000000    
     21 Si    c    0.470050 *  0.886515 *  0.696117 *   4.00000    1.000000    
     22 Ge    c    0.560745 *  0.481475 *  0.864540 *   4.00000    1.000000    
     23 Si    c    0.888512 *  0.418851 *  0.528348 *   4.00000    1.000000    
     24 Si    c    0.525876 *  0.109360 *  0.199094 *   4.00000    1.000000    
     25 Si    c    0.284029 *  0.390954 *  0.840353 *   4.00000    1.000000    
     26 Si    c    0.598553 *  0.903750 *  0.181035 *   4.00000    1.000000    
     27 Si    c    0.095134 *  0.697862 *  0.513269 *   4.00000    1.000000    
     28 Si    c    0.697144 *  0.598584 *  0.346312 *   4.00000    1.000000    
     29 Si    c    0.398247 *  0.098816 *  0.680858 *   4.00000    1.000000    
     30 Si    c    0.886665 *  0.290144 *  0.009939 *   4.00000    1.000000    
     31 Si    c    0.397645 *  0.303900 *  0.476299 *   4.00000    1.000000    
     32 Si    c    0.890222 *  0.600633 *  0.141454 *   4.00000    1.000000    
     33 Ge    c    0.682583 *  0.106713 *  0.804750 *   4.00000    1.000000    
     34 Si    c    0.598221 *  0.699304 *  0.974689 *   4.00000    1.000000    
     35 Si    c    0.098998 *  0.399142 *  0.644120 *   4.00000    1.000000    
     36 Si    c    0.299805 *  0.898350 *  0.311985 *   4.00000    1.000000    
     37 Si    c    0.247589 *  0.334782 *  0.943414 *   4.00000    1.000000    
     38 Si    c    0.656788 *  0.906610 *  0.282023 *   4.00000    1.000000    
     39 Si    c    0.088716 *  0.748087 *  0.614164 *   4.00000    1.000000    
     40 Si    c    0.747277 *  0.659946 *  0.447261 *   4.00000    1.000000    
     41 Si    c    0.338795 *  0.096531 *  0.782709 *   4.00000    1.000000    
     42 Si    c    0.901058 *  0.248893 *  0.113328 *   4.00000    1.000000    
     43 Si    c    0.338636 *  0.249239 *  0.375401 *   4.00000    1.000000    
     44 Si    c    0.895980 *  0.659698 *  0.038802 *   4.00000    1.000000    
     45 Si    c    0.754447 *  0.090377 *  0.709407 *   4.00000    1.000000    
     46 Si    c    0.654662 *  0.758960 *  0.872418 *   4.00000    1.000000    
     47 Si    c    0.089737 *  0.340396 *  0.543084 *   4.00000    1.000000    
     48 Si    c    0.245906 *  0.909228 *  0.211465 *   4.00000    1.000000    
     49 Si    c    0.968509 *  0.119493 *  0.958981 *   4.00000    1.000000    
     50 Si    c    0.875157 *  0.844397 *  0.295544 *   4.00000    1.000000    
     51 Si    c    0.150988 *  0.027119 *  0.627087 *   4.00000    1.000000    
     52 Si    c    0.027702 *  0.877913 *  0.461966 *   4.00000    1.000000    
     53 Si    c    0.106849 *  0.143720 *  0.792786 *   4.00000    1.000000    
     54 Si    c    0.844876 *  0.973082 *  0.128427 *   4.00000    1.000000    
     55 Si    c    0.120807 *  0.968249 *  0.361153 *   4.00000    1.000000    
     56 Si    c    0.846893 *  0.883711 *  0.026334 *   4.00000    1.000000    
     57 Si    c    0.027934 *  0.148827 *  0.690813 *   4.00000    1.000000    
     58 Si    c    0.868843 *  0.041588 *  0.857293 *   4.00000    1.000000    
     59 Si    c    0.151156 *  0.122436 *  0.526628 *   4.00000    1.000000    
     60 Si    c    0.965673 *  0.849989 *  0.193722 *   4.00000    1.000000    
     61 O2    c    0.926495 *  0.001715 *  0.993240 *   0.87073    1.000000    
     62 O2    c    0.000516 *  0.925681 *  0.327027 *   0.87073    1.000000    
     63 O2    c    0.069571 *  0.072208 *  0.656705 *   0.87073    1.000000    
     64 O2    c    0.070761 *  0.002531 *  0.493073 *   0.87073    1.000000    
     65 O2    c    0.986581 *  0.061488 *  0.824707 *   0.87073    1.000000    
     66 O2    c    0.927668 *  0.932338 *  0.160676 *   0.87073    1.000000    
     67 O2    c    0.337201 *  0.573469 *  0.326785 *   0.87073    1.000000    
     68 O2    c    0.420953 *  0.762404 *  0.662883 *   0.87073    1.000000    
     69 O2    c    0.226174 *  0.650740 *  0.993498 *   0.87073    1.000000    
     70 O3    c    0.651309 *  0.442201 *  0.826018 *   1.33043    1.000000    
     71 O2    c    0.576354 *  0.239397 *  0.170448 *   0.87073    1.000000    
     72 O2    c    0.761115 *  0.342404 *  0.496029 *   0.87073    1.000000    
     73 O3    c    0.562997 *  0.337687 *  0.000686 *   1.33043    1.000000    
     74 O2    c    0.763369 *  0.422819 *  0.662506 *   0.87073    1.000000    
     75 O2    c    0.660111 *  0.234135 *  0.332341 *   0.87073    1.000000    
     76 O2    c    0.418561 *  0.658496 *  0.494773 *   0.87073    1.000000    
     77 O2    c    0.232642 *  0.581772 *  0.160461 *   0.87073    1.000000    
     78 O2    c    0.320452 *  0.756736 *  0.827676 *   0.87073    1.000000    
     79 O2    c    0.123165 *  0.211608 *  0.965031 *   0.87073    1.000000    
     80 O2    c    0.783120 *  0.905900 *  0.302431 *   0.87073    1.000000    
     81 O2    c    0.088439 *  0.874382 *  0.633745 *   0.87073    1.000000    
     82 O2    c    0.873159 *  0.787444 *  0.467446 *   0.87073    1.000000    
     83 O2    c    0.210877 *  0.095814 *  0.801047 *   0.87073    1.000000    
     84 O2    c    0.905487 *  0.126544 *  0.134323 *   0.87073    1.000000    
     85 O2    c    0.212064 *  0.121599 *  0.355513 *   0.87073    1.000000    
     86 O2    c    0.915235 *  0.797495 *  0.022912 *   0.87073    1.000000    
     87 O2    c    0.874786 *  0.091597 *  0.682781 *   0.87073    1.000000    
     88 O2    c    0.766052 *  0.890232 *  0.852109 *   0.87073    1.000000    
     89 O2    c    0.087091 *  0.212935 *  0.523049 *   0.87073    1.000000    
     90 O2    c    0.120643 *  0.911984 *  0.190867 *   0.87073    1.000000    
     91 O2    c    0.921536 *  0.858176 *  0.244066 *   0.87073    1.000000    
     92 O2    c    0.142252 *  0.064343 *  0.575822 *   0.87073    1.000000    
     93 O2    c    0.929364 *  0.067893 *  0.908422 *   0.87073    1.000000    
     94 O2    c    0.062226 *  0.122391 *  0.740549 *   0.87073    1.000000    
     95 O2    c    0.855637 *  0.936738 *  0.077155 *   0.87073    1.000000    
     96 O2    c    0.065533 *  0.928465 *  0.411196 *   0.87073    1.000000    
     97 O2    c    0.898392 *  0.199447 *  0.972262 *   0.87073    1.000000    
     98 O2    c    0.795356 *  0.693755 *  0.307873 *   0.87073    1.000000    
     99 O2    c    0.302417 *  0.097229 *  0.641301 *   0.87073    1.000000    
    100 O2    c    0.097136 *  0.796116 *  0.474943 *   0.87073    1.000000    
    101 O2    c    0.173686 *  0.295364 *  0.804067 *   0.87073    1.000000    
    102 O2    c    0.693798 *  0.902714 *  0.142020 *   0.87073    1.000000    
    103 O2    c    0.202933 *  0.897718 *  0.350574 *   0.87073    1.000000    
    104 O2    c    0.694605 *  0.797726 *  0.013728 *   0.87073    1.000000    
    105 O2    c    0.101957 *  0.302180 *  0.681793 *   0.87073    1.000000    
    106 O3    c    0.800870 *  0.120031 *  0.846655 *   1.33043    1.000000    
    107 O2    c    0.302605 *  0.206792 *  0.514603 *   0.87073    1.000000    
    108 O2    c    0.895975 *  0.700053 *  0.179998 *   0.87073    1.000000    
    109 O2    c    0.318390 *  0.642243 *  0.244066 *   0.87073    1.000000    
    110 O2    c    0.356599 *  0.676979 *  0.578955 *   0.87073    1.000000    
    111 O2    c    0.311752 *  0.667680 *  0.910175 *   0.87073    1.000000    
    112 O2    c    0.676631 *  0.357251 *  0.745877 *   0.87073    1.000000    
    113 O3    c    0.612943 *  0.302415 *  0.085233 *   1.33043    1.000000    
    114 O2    c    0.679523 *  0.325471 *  0.412947 *   0.87073    1.000000    
    115 O2    c    0.371684 *  0.328447 *  0.960916 *   0.87073    1.000000    
    116 O2    c    0.668553 *  0.037959 *  0.301954 *   0.87073    1.000000    
    117 O2    c    0.957615 *  0.626621 *  0.633043 *   0.87073    1.000000    
    118 O2    c    0.624108 *  0.670264 *  0.464716 *   0.87073    1.000000    
    119 O2    c    0.327352 *  0.962481 *  0.798841 *   0.87073    1.000000    
    120 O2    c    0.034622 *  0.374826 *  0.129764 *   0.87073    1.000000    
    121 O2    c    0.327745 *  0.370327 *  0.356546 *   0.87073    1.000000    
    122 O2    c    0.028925 *  0.662369 *  0.022925 *   0.87073    1.000000    
    123 O2    c    0.626134 *  0.957327 *  0.692864 *   0.87073    1.000000    
    124 O3    c    0.675119 *  0.646856 *  0.854439 *   1.33043    1.000000    
    125 O2    c    0.956515 *  0.330904 *  0.524715 *   0.87073    1.000000    
    126 O2    c    0.369180 *  0.040670 *  0.194091 *   0.87073    1.000000    
    127 O3    c    0.752418 *  0.282967 *  0.001616 *   1.33043    1.000000    
    128 O2    c    0.696347 *  0.464251 *  0.339046 *   0.87073    1.000000    
    129 O2    c    0.534387 *  0.229067 *  0.674480 *   0.87073    1.000000    
    130 O2    c    0.228958 *  0.696065 *  0.506205 *   0.87073    1.000000    
    131 O2    c    0.285295 *  0.527134 *  0.837131 *   0.87073    1.000000    
    132 O2    c    0.462139 *  0.771946 *  0.172168 *   0.87073    1.000000    
    133 O2    c    0.298704 *  0.763915 *  0.317815 *   0.87073    1.000000    
    134 O2    c    0.459608 *  0.692882 *  0.981156 *   0.87073    1.000000    
    135 O2    c    0.232227 *  0.534397 *  0.651577 *   0.87073    1.000000    
    136 O3    c    0.700840 *  0.255359 *  0.821524 *   1.33043    1.000000    
    137 O2    c    0.533214 *  0.306498 *  0.484595 *   0.87073    1.000000    
    138 O2    c    0.758694 *  0.466685 *  0.150121 *   0.87073    1.000000    
    139 O3    c    0.769639 *  0.545431 *  0.018019 *   1.33043    1.000000    
    140 O2    c    0.464815 *  0.248219 *  0.356347 *   0.87073    1.000000    
    141 O2    c    0.747553 *  0.215549 *  0.692240 *   0.87073    1.000000    
    142 O2    c    0.215846 *  0.464873 *  0.523408 *   0.87073    1.000000    
    143 O2    c    0.515605 *  0.738568 *  0.854702 *   0.87073    1.000000    
    144 O2    c    0.241779 *  0.782183 *  0.190930 *   0.87073    1.000000    
    145 O2    c    0.531164 *  0.779869 *  0.300373 *   0.87073    1.000000    
    146 O2    c    0.252050 *  0.463535 *  0.962464 *   0.87073    1.000000    
    147 O2    c    0.217358 *  0.751315 *  0.633488 *   0.87073    1.000000    
    148 O2    c    0.467386 *  0.217945 *  0.801910 *   0.87073    1.000000    
    149 O2    c    0.749689 *  0.537119 *  0.467886 *   0.87073    1.000000    
    150 O2    c    0.779505 *  0.254802 *  0.133732 *   0.87073    1.000000    
    151 O2    c    0.226220 *  0.321741 *  0.889194 *   0.87073    1.000000    
    152 O2    c    0.673413 *  0.906066 *  0.227509 *   0.87073    1.000000    
    153 O2    c    0.089118 *  0.766604 *  0.559787 *   0.87073    1.000000    
    154 O2    c    0.767681 *  0.674475 *  0.392870 *   0.87073    1.000000    
    155 O2    c    0.330359 *  0.098571 *  0.727777 *   0.87073    1.000000    
    156 O2    c    0.894692 *  0.230819 *  0.059059 *   0.87073    1.000000    
    157 O2    c    0.322188 *  0.232404 *  0.429752 *   0.87073    1.000000    
    158 O2    c    0.891193 *  0.667697 *  0.094324 *   0.87073    1.000000    
    159 O3    c    0.784810 *  0.095207 *  0.761828 *   1.33043    1.000000    
    160 O2    c    0.665211 *  0.769136 *  0.928002 *   0.87073    1.000000    
    161 O2    c    0.094002 *  0.324994 *  0.597371 *   0.87073    1.000000    
    162 O2    c    0.228428 *  0.906140 *  0.265910 *   0.87073    1.000000    
    163 O2    c    0.579879 *  0.559678 *  0.982093 *   0.87073    1.000000    
    164 O2    c    0.440332 *  0.020987 *  0.322761 *   0.87073    1.000000    
    165 O2    c    0.973471 *  0.413848 *  0.652897 *   0.87073    1.000000    
    166 O2    c    0.410820 *  0.442436 *  0.484718 *   0.87073    1.000000    
    167 O3    c    0.545084 *  0.963460 *  0.824843 *   1.33043    1.000000    
    168 O2    c    0.013680 *  0.580754 *  0.147605 *   0.87073    1.000000    
    169 O2    c    0.556658 *  0.584009 *  0.337037 *   0.87073    1.000000    
    170 O2    c    0.010003 *  0.434793 *  0.004155 *   0.87073    1.000000    
    171 O2    c    0.416560 *  0.975996 *  0.675400 *   0.87073    1.000000    
    172 O3    c    0.416950 *  0.401021 *  0.828532 *   1.33043    1.000000    
    173 O2    c    0.970049 *  0.558191 *  0.504411 *   0.87073    1.000000    
    174 O2    c    0.585781 *  0.030054 *  0.173938 *   0.87073    1.000000    
    175 O2    c    0.578802 *  0.160128 *  0.250109 *   0.87073    1.000000    
    176 O2    c    0.834969 *  0.418584 *  0.579007 *   0.87073    1.000000    
    177 O3    c    0.587967 *  0.411995 *  0.914577 *   1.33043    1.000000    
    178 O2    c    0.418082 *  0.839666 *  0.747049 *   0.87073    1.000000    
    179 O2    c    0.148570 *  0.576272 *  0.076412 *   0.87073    1.000000    
    180 O2    c    0.413597 *  0.580252 *  0.410611 *   0.87073    1.000000    
    181 F     c    0.447104 *  0.900296 *  0.245908 *   0.56000    1.000000    
    182 F     c    0.096799 *  0.548354 *  0.578460 *   0.56000    1.000000    
    183 F     c    0.465063 *  0.530459 *  0.900632 *   0.56000    1.000000    
    184 F     c    0.573835 *  0.097533 *  0.756092 *   0.56000    1.000000    
    185 F     c    0.851233 *  0.434987 *  0.069323 *   0.56000    1.000000    
    186 F     c    0.547246 *  0.451391 *  0.410781 *   0.56000    1.000000    
    187 O2    s    0.922024 *  0.001187 *  0.993266 *  -2.87073    1.000000    
    188 O2    s    0.999830 *  0.921263 *  0.327295 *  -2.87073    1.000000    
    189 O2    s    0.074342 *  0.075613 *  0.657107 *  -2.87073    1.000000    
    190 O2    s    0.074902 *  0.001937 *  0.493328 *  -2.87073    1.000000    
    191 O2    s    0.988265 *  0.068906 *  0.824404 *  -2.87073    1.000000    
    192 O2    s    0.922768 *  0.927734 *  0.160778 *  -2.87073    1.000000    
    193 O2    s    0.348953 *  0.581404 *  0.326865 *  -2.87073    1.000000    
    194 O2    s    0.413375 *  0.766303 *  0.662823 *  -2.87073    1.000000    
    195 O2    s    0.222047 *  0.639511 *  0.993333 *  -2.87073    1.000000    
    196 O3    s    0.642171 *  0.430777 *  0.825497 *  -3.33043    1.000000    
    197 O2    s    0.582344 *  0.233685 *  0.169490 *  -2.87073    1.000000    
    198 O2    s    0.765513 *  0.354431 *  0.495918 *  -2.87073    1.000000    
    199 O3    s    0.570163 *  0.348400 *  0.999346 *  -3.33043    1.000000    
    200 O2    s    0.767861 *  0.415598 *  0.662581 *  -2.87073    1.000000    
    201 O2    s    0.648026 *  0.230070 *  0.332100 *  -2.87073    1.000000    
    202 O2    s    0.411245 *  0.646781 *  0.494806 *  -2.87073    1.000000    
    203 O2    s    0.227908 *  0.588445 *  0.160464 *  -2.87073    1.000000    
    204 O2    s    0.333295 *  0.760577 *  0.828041 *  -2.87073    1.000000    
    205 O2    s    0.119696 *  0.214645 *  0.962165 *  -2.87073    1.000000    
    206 O2    s    0.779733 *  0.899391 *  0.299585 *  -2.87073    1.000000    
    207 O2    s    0.095130 *  0.877583 *  0.631038 *  -2.87073    1.000000    
    208 O2    s    0.876574 *  0.783874 *  0.464800 *  -2.87073    1.000000    
    209 O2    s    0.213658 *  0.100863 *  0.798278 *  -2.87073    1.000000    
    210 O2    s    0.898696 *  0.123135 *  0.131562 *  -2.87073    1.000000    
    211 O2    s    0.215465 *  0.118562 *  0.358130 *  -2.87073    1.000000    
    212 O2    s    0.905924 *  0.792710 *  0.024885 *  -2.87073    1.000000    
    213 O2    s    0.879129 *  0.097613 *  0.686240 *  -2.87073    1.000000    
    214 O2    s    0.764318 *  0.891424 *  0.854947 *  -2.87073    1.000000    
    215 O2    s    0.094176 *  0.216412 *  0.525460 *  -2.87073    1.000000    
    216 O2    s    0.117049 *  0.905046 *  0.193292 *  -2.87073    1.000000    
    217 O2    s    0.921326 *  0.855693 *  0.244146 *  -2.87073    1.000000    
    218 O2    s    0.144260 *  0.066762 *  0.576031 *  -2.87073    1.000000    
    219 O2    s    0.927710 *  0.071221 *  0.909075 *  -2.87073    1.000000    
    220 O2    s    0.063297 *  0.127793 *  0.740687 *  -2.87073    1.000000    
    221 O2    s    0.853456 *  0.935071 *  0.077431 *  -2.87073    1.000000    
    222 O2    s    0.067571 *  0.927305 *  0.411207 *  -2.87073    1.000000    
    223 O2    s    0.904773 *  0.200558 *  0.974915 *  -2.87073    1.000000    
    224 O2    s    0.793869 *  0.700043 *  0.310447 *  -2.87073    1.000000    
    225 O2    s    0.296443 *  0.089959 *  0.643951 *  -2.87073    1.000000    
    226 O2    s    0.089587 *  0.794819 *  0.477445 *  -2.87073    1.000000    
    227 O2    s    0.177784 *  0.289147 *  0.806547 *  -2.87073    1.000000    
    228 O2    s    0.699997 *  0.910234 *  0.144579 *  -2.87073    1.000000    
    229 O2    s    0.204203 *  0.905245 *  0.347718 *  -2.87073    1.000000    
    230 O2    s    0.700837 *  0.796801 *  0.011102 *  -2.87073    1.000000    
    231 O2    s    0.094059 *  0.296308 *  0.678873 *  -2.87073    1.000000    
    232 O3    s    0.801192 *  0.110193 *  0.845258 *  -3.33043    1.000000    
    233 O2    s    0.296236 *  0.207843 *  0.511917 *  -2.87073    1.000000    
    234 O2    s    0.902826 *  0.705750 *  0.177451 *  -2.87073    1.000000    
    235 O2    s    0.324101 *  0.653933 *  0.244150 *  -2.87073    1.000000    
    236 O2    s    0.344798 *  0.671209 *  0.578896 *  -2.87073    1.000000    
    237 O2    s    0.316884 *  0.662567 *  0.910283 *  -2.87073    1.000000    
    238 O2    s    0.672249 *  0.347945 *  0.745315 *  -2.87073    1.000000    
    239 O3    s    0.626155 *  0.308737 *  0.086737 *  -3.33043    1.000000    
    240 O2    s    0.673274 *  0.331102 *  0.412879 *  -2.87073    1.000000    
    241 O2    s    0.372921 *  0.337215 *  0.959162 *  -2.87073    1.000000    
    242 O2    s    0.658360 *  0.031396 *  0.299701 *  -2.87073    1.000000    
    243 O2    s    0.964326 *  0.623456 *  0.630755 *  -2.87073    1.000000    
    244 O2    s    0.620863 *  0.660143 *  0.462581 *  -2.87073    1.000000    
    245 O2    s    0.336848 *  0.968864 *  0.797154 *  -2.87073    1.000000    
    246 O2    s    0.028293 *  0.378017 *  0.127888 *  -2.87073    1.000000    
    247 O2    s    0.337767 *  0.373678 *  0.358850 *  -2.87073    1.000000    
    248 O2    s    0.023328 *  0.652966 *  0.024696 *  -2.87073    1.000000    
    249 O2    s    0.622489 *  0.963171 *  0.694879 *  -2.87073    1.000000    
    250 O3    s    0.665126 *  0.647664 *  0.857110 *  -3.33043    1.000000    
    251 O2    s    0.963473 *  0.340984 *  0.527023 *  -2.87073    1.000000    
    252 O2    s    0.372251 *  0.033774 *  0.196457 *  -2.87073    1.000000    
    253 O3    s    0.763288 *  0.289856 *  0.004710 *  -3.33043    1.000000    
    254 O2    s    0.688803 *  0.463842 *  0.342222 *  -2.87073    1.000000    
    255 O2    s    0.534551 *  0.222564 *  0.677383 *  -2.87073    1.000000    
    256 O2    s    0.221871 *  0.688496 *  0.509257 *  -2.87073    1.000000    
    257 O2    s    0.293157 *  0.528652 *  0.839737 *  -2.87073    1.000000    
    258 O2    s    0.461509 *  0.778495 *  0.175425 *  -2.87073    1.000000    
    259 O2    s    0.306603 *  0.771171 *  0.314832 *  -2.87073    1.000000    
    260 O2    s    0.458342 *  0.685534 *  0.978352 *  -2.87073    1.000000    
    261 O2    s    0.225090 *  0.534812 *  0.648462 *  -2.87073    1.000000    
    262 O3    s    0.691992 *  0.250628 *  0.818027 *  -3.33043    1.000000    
    263 O2    s    0.533720 *  0.314035 *  0.481452 *  -2.87073    1.000000    
    264 O2    s    0.765488 *  0.466409 *  0.147442 *  -2.87073    1.000000    
    265 O3    s    0.779662 *  0.548024 *  0.021234 *  -3.33043    1.000000    
    266 O2    s    0.467428 *  0.256173 *  0.358995 *  -2.87073    1.000000    
    267 O2    s    0.740946 *  0.212017 *  0.694409 *  -2.87073    1.000000    
    268 O2    s    0.210617 *  0.467617 *  0.526013 *  -2.87073    1.000000    
    269 O2    s    0.512682 *  0.732943 *  0.856903 *  -2.87073    1.000000    
    270 O2    s    0.250296 *  0.787480 *  0.193471 *  -2.87073    1.000000    
    271 O2    s    0.528361 *  0.785032 *  0.297845 *  -2.87073    1.000000    
    272 O2    s    0.258307 *  0.466755 *  0.960304 *  -2.87073    1.000000    
    273 O2    s    0.211813 *  0.743123 *  0.630972 *  -2.87073    1.000000    
    274 O2    s    0.467601 *  0.213559 *  0.799474 *  -2.87073    1.000000    
    275 O2    s    0.741781 *  0.534249 *  0.465183 *  -2.87073    1.000000    
    276 O2    s    0.783472 *  0.260407 *  0.131355 *  -2.87073    1.000000    
    277 O2    s    0.234210 *  0.329937 *  0.890273 *  -2.87073    1.000000    
    278 O2    s    0.663783 *  0.905868 *  0.228367 *  -2.87073    1.000000    
    279 O2    s    0.089695 *  0.757361 *  0.560621 *  -2.87073    1.000000    
    280 O2    s    0.758118 *  0.664964 *  0.393708 *  -2.87073    1.000000    
    281 O2    s    0.338603 *  0.098385 *  0.728364 *  -2.87073    1.000000    
    282 O2    s    0.894556 *  0.238625 *  0.060122 *  -2.87073    1.000000    
    283 O2    s    0.331848 *  0.241705 *  0.428837 *  -2.87073    1.000000    
    284 O2    s    0.891488 *  0.659494 *  0.094039 *  -2.87073    1.000000    
    285 O3    s    0.775080 *  0.095365 *  0.758958 *  -3.33043    1.000000    
    286 O2    s    0.656947 *  0.760609 *  0.927580 *  -2.87073    1.000000    
    287 O2    s    0.094074 *  0.334391 *  0.596423 *  -2.87073    1.000000    
    288 O2    s    0.237685 *  0.905661 *  0.264904 *  -2.87073    1.000000    
    289 O2    s    0.577047 *  0.561283 *  0.979432 *  -2.87073    1.000000    
    290 O2    s    0.440058 *  0.016716 *  0.319254 *  -2.87073    1.000000    
    291 O2    s    0.978216 *  0.418402 *  0.649579 *  -2.87073    1.000000    
    292 O2    s    0.415472 *  0.442147 *  0.481405 *  -2.87073    1.000000    
    293 O3    s    0.540528 *  0.965598 *  0.820784 *  -3.33043    1.000000    
    294 O2    s    0.010309 *  0.577288 *  0.144836 *  -2.87073    1.000000    
    295 O2    s    0.556987 *  0.579375 *  0.340410 *  -2.87073    1.000000    
    296 O2    s    0.007111 *  0.435709 *  0.006990 *  -2.87073    1.000000    
    297 O2    s    0.420268 *  0.980177 *  0.678177 *  -2.87073    1.000000    
    298 O3    s    0.411560 *  0.405196 *  0.832133 *  -3.33043    1.000000    
    299 O2    s    0.975280 *  0.558854 *  0.507834 *  -2.87073    1.000000    
    300 O2    s    0.580832 *  0.024533 *  0.177274 *  -2.87073    1.000000    
    301 O2    s    0.573413 *  0.149055 *  0.250028 *  -2.87073    1.000000    
    302 O2    s    0.846101 *  0.424059 *  0.579051 *  -2.87073    1.000000    
    303 O3    s    0.580467 *  0.416708 *  0.916140 *  -3.33043    1.000000    
    304 O2    s    0.422831 *  0.849271 *  0.746673 *  -2.87073    1.000000    
    305 O2    s    0.138973 *  0.571437 *  0.076597 *  -2.87073    1.000000    
    306 O2    s    0.419209 *  0.574917 *  0.410665 *  -2.87073    1.000000    
    307 F     s    0.446765 *  0.899883 *  0.245802 *  -1.56000    1.000000    
    308 F     s    0.097200 *  0.548570 *  0.578413 *  -1.56000    1.000000    
    309 F     s    0.471569 *  0.526751 *  0.897998 *  -1.56000    1.000000    
    310 F     s    0.581038 *  0.097718 *  0.759155 *  -1.56000    1.000000    
    311 F     s    0.840755 *  0.430974 *  0.067027 *  -1.56000    1.000000    
    312 F     s    0.547480 *  0.451143 *  0.410697 *  -1.56000    1.000000    
--------------------------------------------------------------------------------



********************************************************************************
*  General input information                                                   *
********************************************************************************

  Species output for all configurations : 

--------------------------------------------------------------------------------
  Species    Type    Atomic    Atomic    Charge       Radii (Angs)     Library
                     Number     Mass       (e)     Cova   Ionic  VDW   Symbol
--------------------------------------------------------------------------------
    Si       Core       14      28.09   4.000000   1.200  0.000  2.100          
    O1       Core        8      16.00   1.733957   0.730  0.000  1.360          
    O1       Shell       8       0.00  -3.733957   0.730  0.000  1.360          
    O2       Core        8      16.00   0.870733   0.730  0.000  1.360          
    O2       Shell       8       0.00  -2.870733   0.730  0.000  1.360          
    O3       Core        8      16.00   1.330431   0.730  0.000  1.360          
    O3       Shell       8       0.00  -3.330431   0.730  0.000  1.360          
    F        Core        9      19.00   0.560000   0.710  0.000  1.300          
    F        Shell       9       0.00  -1.560000   0.710  0.000  1.300          
    Ge       Core       32      72.61   4.000000   1.170  0.000  1.750          
--------------------------------------------------------------------------------


  Lattice summation method               =    Ewald          (3-D)
                                         =    Parry          (2-D)
                                         =    Saunders et al (1-D)
  Accuracy factor for lattice sums       =   12.000


  Time limit = Infinity

  Maximum range for interatomic potentials =        16.000000 Angstroms

  Taper potentials to zero over   1.0000 Angstroms using polynomial

  General interatomic potentials :

--------------------------------------------------------------------------------
Atom  Types   Potential         A         B         C         D     Cutoffs(Ang)
  1     2                                                            Min    Max 
--------------------------------------------------------------------------------
Si   c O1   s Buckingham    0.132E+04 0.318      10.1      0.00     0.000 16.000
Si   c O2   s Buckingham    0.132E+04 0.318      10.1      0.00     0.000 16.000
Si   c O3   s Buckingham    0.132E+04 0.318      10.1      0.00     0.000 16.000
Ge   c O1   s Buckingham    0.150E+04 0.326      16.8      0.00     0.000 16.000
Ge   c O2   s Buckingham    0.150E+04 0.326      16.8      0.00     0.000 16.000
Ge   c O3   s Buckingham    0.150E+04 0.326      16.8      0.00     0.000 16.000
O1   s O1   s Buckingham    0.228E+05 0.149      10.9      0.00     0.000 16.000
O1   s O2   s Buckingham    0.228E+05 0.149      10.9      0.00     0.000 16.000
O1   s O3   s Buckingham    0.228E+05 0.149      10.9      0.00     0.000 16.000
O2   s O2   s Buckingham    0.228E+05 0.149      10.9      0.00     0.000 16.000
O2   s O3   s Buckingham    0.228E+05 0.149      10.9      0.00     0.000 16.000
O3   s O3   s Buckingham    0.228E+05 0.149      10.9      0.00     0.000 16.000
Si   c F    s Buckingham     977.     0.282      0.00      0.00     0.000 16.000
Ge   c F    s Buckingham     681.     0.320      0.00      0.00     0.000 16.000
F    s F    s Buckingham     540.     0.262      0.00      0.00     0.000 16.000
O1   s F    s Buckingham    0.168E+04 0.268      0.00      0.00     0.000 16.000
O2   s F    s Buckingham    0.168E+04 0.268      0.00      0.00     0.000 16.000
O3   s F    s Buckingham    0.168E+04 0.268      0.00      0.00     0.000 16.000
O2   c O2   s Spring (c-s)   76.0      0.00      0.00      0.00     0.000  0.800
O3   c O3   s Spring (c-s)   128.      0.00      0.00      0.00     0.000  0.800
O1   c O1   s Spring (c-s)   180.      0.00      0.00      0.00     0.000  0.800
F    c F    s Spring (c-s)   33.5      0.00      0.00      0.00     0.000  0.800
--------------------------------------------------------------------------------

  General Three-body potentials :

  Harmonic form:

--------------------------------------------------------------------------------
Atom    Atom    Atom           Force Constants            Theta     Cutoffs  
  1       2       3     (eVrad**-2/eVrad**-3/eVrad**-4)   (deg)  1-2  1-3  2-3
--------------------------------------------------------------------------------
Si    c O1    s O1    s  1.261        0.0000    0.0000   109.470 0.00 0.00 0.00
                                                                 1.90 1.90 3.50
Si    c O1    s O2    s  1.261        0.0000    0.0000   109.470 0.00 0.00 0.00
                                                                 1.90 1.90 3.50
Si    c O2    s O2    s  1.261        0.0000    0.0000   109.470 0.00 0.00 0.00
                                                                 1.90 1.90 3.50
--------------------------------------------------------------------------------

********************************************************************************
*  Output for configuration   1                                                *
********************************************************************************


  Components of energy : 

--------------------------------------------------------------------------------
  Interatomic potentials     =        2067.52514370 eV
  Three-body potentials      =           0.47752012 eV
  Monopole - monopole (real) =       -6616.00612373 eV
  Monopole - monopole (recip)=       -3172.96652641 eV
  Monopole - monopole (total)=       -9788.97265015 eV
  Neutralising energy        =          -6.46333807 eV
--------------------------------------------------------------------------------
  Total lattice energy       =       -7727.43332439 eV
--------------------------------------------------------------------------------
  Total lattice energy       =         -745579.1912 kJ/(mole unit cells)
--------------------------------------------------------------------------------


  Number of variables =      939

  Maximum number of calculations  =          5000
  Maximum Hessian update interval =            10
  Maximum step size               =   0.100000000
  Maximum parameter tolerance     =   0.000010000
  Maximum function  tolerance     =   0.000010000
  Maximum gradient  tolerance     =   0.001000000
  Maximum gradient  component     =   0.010000000

  Symmetry not applied to optimisation

  Cell parameters to be optimised using strains

  Newton-Raphson optimiser to be used

  BFGS hessian update to be used

  Dumpfile to be written after every cycle

  Start of bulk optimisation :

  Cycle:      0 Energy:     -7727.433324  Gnorm:      0.006938  CPU:    2.012
  ** Hessian calculated **
  Cycle:      1 Energy:     -7727.433409  Gnorm:      0.002867  CPU:    5.247
  Cycle:      2 Energy:     -7727.433431  Gnorm:      0.001781  CPU:    8.108
  Cycle:      3 Energy:     -7727.433447  Gnorm:      0.001141  CPU:   10.969
  Cycle:      4 Energy:     -7727.433464  Gnorm:      0.000741  CPU:   13.830
  Cycle:      5 Energy:     -7727.433486  Gnorm:      0.000697  CPU:   16.692
  Cycle:      6 Energy:     -7727.433518  Gnorm:      0.001078  CPU:   19.557
  Cycle:      7 Energy:     -7727.433563  Gnorm:      0.001738  CPU:   22.411
  Cycle:      8 Energy:     -7727.433744  Gnorm:      0.004458  CPU:   27.338
  Cycle:      9 Energy:     -7727.433974  Gnorm:      0.007716  CPU:   31.576
  Cycle:     10 Energy:     -7727.434259  Gnorm:      0.011803  CPU:   35.814
  ** Hessian calculated **
  Cycle:     11 Energy:     -7727.434495  Gnorm:      0.005243  CPU:   40.370
  Cycle:     12 Energy:     -7727.434548  Gnorm:      0.003267  CPU:   43.229
  Cycle:     13 Energy:     -7727.434580  Gnorm:      0.002077  CPU:   46.090
  Cycle:     14 Energy:     -7727.434605  Gnorm:      0.001219  CPU:   48.952
  Cycle:     15 Energy:     -7727.434632  Gnorm:      0.000795  CPU:   51.811
  Cycle:     16 Energy:     -7727.434665  Gnorm:      0.001012  CPU:   54.676
  Cycle:     17 Energy:     -7727.434765  Gnorm:      0.003563  CPU:   59.600
  Cycle:     18 Energy:     -7727.434828  Gnorm:      0.004591  CPU:   62.455
  Cycle:     19 Energy:     -7727.434883  Gnorm:      0.005249  CPU:   65.320
  Cycle:     20 Energy:     -7727.435046  Gnorm:      0.006649  CPU:   70.246
  ** Hessian calculated **
  Cycle:     21 Energy:     -7727.435141  Gnorm:      0.003278  CPU:   74.803
  Cycle:     22 Energy:     -7727.435181  Gnorm:      0.001990  CPU:   77.659
  Cycle:     23 Energy:     -7727.435258  Gnorm:      0.001063  CPU:   82.583
  Cycle:     24 Energy:     -7727.435306  Gnorm:      0.001625  CPU:   86.135
  Cycle:     25 Energy:     -7727.435361  Gnorm:      0.002437  CPU:   90.372
  Cycle:     26 Energy:     -7727.435408  Gnorm:      0.002539  CPU:   93.923
  Cycle:     27 Energy:     -7727.435474  Gnorm:      0.002300  CPU:   98.157
  Cycle:     28 Energy:     -7727.435532  Gnorm:      0.002099  CPU:  101.020
  Cycle:     29 Energy:     -7727.435678  Gnorm:      0.001895  CPU:  105.948
  Cycle:     30 Energy:     -7727.435879  Gnorm:      0.002418  CPU:  110.186
  ** Hessian calculated **
  Cycle:     31 Energy:     -7727.436217  Gnorm:      0.002411  CPU:  116.116
  Cycle:     32 Energy:     -7727.436791  Gnorm:      0.002397  CPU:  121.041
  Cycle:     33 Energy:     -7727.437678  Gnorm:      0.002377  CPU:  125.968
  Cycle:     34 Energy:     -7727.439011  Gnorm:      0.002345  CPU:  130.891
  Cycle:     35 Energy:     -7727.440658  Gnorm:      0.002306  CPU:  135.128
  Cycle:     36 Energy:     -7727.443399  Gnorm:      0.002240  CPU:  140.050
  Cycle:     37 Energy:     -7727.447511  Gnorm:      0.002136  CPU:  144.972
  Cycle:     38 Energy:     -7727.452427  Gnorm:      0.002007  CPU:  149.206
  Cycle:     39 Energy:     -7727.460096  Gnorm:      0.001789  CPU:  154.128
  Cycle:     40 Energy:     -7727.468650  Gnorm:      0.001518  CPU:  158.356
  ** Hessian calculated **
  Cycle:     41 Energy:     -7727.478730  Gnorm:      0.001105  CPU:  164.287
  Cycle:     42 Energy:     -7727.485525  Gnorm:      0.000810  CPU:  168.522
  Cycle:     43 Energy:     -7727.487198  Gnorm:      0.000536  CPU:  172.751
  Cycle:     44 Energy:     -7727.487614  Gnorm:      0.000303  CPU:  176.988
  Cycle:     45 Energy:     -7727.487718  Gnorm:      0.000161  CPU:  181.222
  Cycle:     46 Energy:     -7727.487736  Gnorm:      0.000114  CPU:  184.083
  Cycle:     47 Energy:     -7727.487744  Gnorm:      0.000080  CPU:  186.938
  Cycle:     48 Energy:     -7727.487748  Gnorm:      0.000056  CPU:  189.799
  Cycle:     49 Energy:     -7727.487751  Gnorm:      0.000040  CPU:  192.655
  Cycle:     50 Energy:     -7727.487752  Gnorm:      0.000028  CPU:  195.517
  ** Hessian calculated **


  **** Optimisation achieved ****


  Final energy =   -7727.48775161 eV
  Final Gnorm  =       0.00001513

  Components of energy : 

--------------------------------------------------------------------------------
  Interatomic potentials     =        2067.74616947 eV
  Three-body potentials      =           0.47854179 eV
  Monopole - monopole (real) =       -6617.09498769 eV
  Monopole - monopole (recip)=       -3172.15578599 eV
  Monopole - monopole (total)=       -9789.25077367 eV
  Neutralising energy        =          -6.46168919 eV
--------------------------------------------------------------------------------
  Total lattice energy       =       -7727.48775161 eV
--------------------------------------------------------------------------------
  Total lattice energy       =         -745584.4426 kJ/(mole unit cells)
--------------------------------------------------------------------------------

  Final fractional coordinates of atoms :

--------------------------------------------------------------------------------
   No.  Atomic        x           y          z          Radius
        Label       (Frac)      (Frac)     (Frac)       (Angs) 
--------------------------------------------------------------------------------
     1  Ge    c     0.699600    0.375700    0.033890    0.000000
     2  Si    c     0.602387    0.311057    0.362728    0.000000
     3  Si    c     0.664015    0.291500    0.696229    0.000000
     4  Si    c     0.279679    0.609015    0.529007    0.000000
     5  Si    c     0.346811    0.659899    0.859177    0.000000
     6  Si    c     0.302922    0.692047    0.195600    0.000000
     7  Si    c     0.357317    0.686117    0.296252    0.000000
     8  Si    c     0.303263    0.605921    0.961719    0.000000
     9  Si    c     0.282781    0.665855    0.629892    0.000000
    10  Si    c     0.609856    0.309525    0.799109    0.000000
    11  Si    c     0.659183    0.369269    0.463371    0.000000
    12  Si    c     0.670048    0.306390    0.132031    0.000000
    13  Si    c     0.523193    0.403825    0.963510    0.000000
    14  Si    c     0.563517    0.096597    0.300228    0.000000
    15  Si    c     0.872221    0.459970    0.630414    0.000000
    16  Si    c     0.448822    0.569786    0.462744    0.000000
    17  Si    c     0.395277    0.877024    0.799583    0.000000
    18  Si    c     0.091712    0.518041    0.129486    0.000000
    19  Si    c     0.395757    0.513504    0.360716    0.000000
    20  Si    c     0.090888    0.569609    0.026350    0.000000
    21  Si    c     0.454668    0.875682    0.696735    0.000000
    22  Ge    c     0.547682    0.472091    0.864417    0.000000
    23  Si    c     0.871357    0.407509    0.528519    0.000000
    24  Si    c     0.508739    0.098181    0.198609    0.000000
    25  Si    c     0.270756    0.381026    0.840747    0.000000
    26  Si    c     0.581667    0.892340    0.181391    0.000000
    27  Si    c     0.077863    0.686408    0.513758    0.000000
    28  Si    c     0.677688    0.586218    0.346681    0.000000
    29  Si    c     0.382464    0.087660    0.681197    0.000000
    30  Si    c     0.879876    0.283198    0.010197    0.000000
    31  Si    c     0.379662    0.291262    0.476731    0.000000
    32  Si    c     0.876711    0.589668    0.142572    0.000000
    33  Ge    c     0.667758    0.096225    0.805269    0.000000
    34  Si    c     0.588358    0.689498    0.974665    0.000000
    35  Si    c     0.083013    0.388540    0.644515    0.000000
    36  Si    c     0.282048    0.887391    0.312365    0.000000
    37  Si    c     0.238533    0.324918    0.944021    0.000000
    38  Si    c     0.638874    0.895456    0.282565    0.000000
    39  Si    c     0.072255    0.737041    0.614658    0.000000
    40  Si    c     0.728939    0.647535    0.447672    0.000000
    41  Si    c     0.324144    0.085948    0.783185    0.000000
    42  Si    c     0.887131    0.238100    0.113847    0.000000
    43  Si    c     0.319555    0.236818    0.375853    0.000000
    44  Si    c     0.891692    0.657016    0.040131    0.000000
    45  Si    c     0.738909    0.079485    0.709837    0.000000
    46  Si    c     0.641036    0.749172    0.872262    0.000000
    47  Si    c     0.072794    0.329079    0.543472    0.000000
    48  Si    c     0.229131    0.897800    0.211633    0.000000
    49  Si    c     0.958957    0.110893    0.959063    0.000000
    50  Si    c     0.856410    0.832134    0.296037    0.000000
    51  Si    c     0.134654    0.015830    0.627625    0.000000
    52  Si    c     0.009239    0.865894    0.462520    0.000000
    53  Si    c     0.092740    0.133867    0.793319    0.000000
    54  Si    c     0.828271    0.961693    0.129021    0.000000
    55  Si    c     0.102243    0.956203    0.361631    0.000000
    56  Si    c     0.836247    0.876073    0.026925    0.000000
    57  Si    c     0.012614    0.138437    0.691337    0.000000
    58  Si    c     0.854894    0.031906    0.857710    0.000000
    59  Si    c     0.133180    0.110282    0.527043    0.000000
    60  Si    c     0.948525    0.837642    0.194438    0.000000
    61  O2    c     0.915250    0.993959    0.993827    0.000000
    62  O2    c     0.981545    0.912491    0.327633    0.000000
    63  O2    c     0.054114    0.061598    0.657343    0.000000
    64  O2    c     0.051695    0.990295    0.493643    0.000000
    65  O2    c     0.972298    0.051527    0.825098    0.000000
    66  O2    c     0.909610    0.918830    0.161105    0.000000
    67  O2    c     0.318731    0.562343    0.327890    0.000000
    68  O2    c     0.404918    0.751616    0.663491    0.000000
    69  O2    c     0.218535    0.641715    0.995196    0.000000
    70  O3    c     0.637039    0.432229    0.825591    0.000000
    71  O2    c     0.559789    0.227427    0.169308    0.000000
    72  O2    c     0.743987    0.330823    0.496210    0.000000
    73  O3    c     0.560792    0.333465    0.000511    0.000000
    74  O2    c     0.747064    0.411506    0.662598    0.000000
    75  O2    c     0.641210    0.222785    0.332178    0.000000
    76  O2    c     0.401054    0.646343    0.495481    0.000000
    77  O2    c     0.217409    0.569373    0.162236    0.000000
    78  O2    c     0.306044    0.746473    0.828635    0.000000
    79  O2    c     0.113827    0.200565    0.965068    0.000000
    80  O2    c     0.765237    0.894578    0.302920    0.000000
    81  O2    c     0.072048    0.863174    0.634319    0.000000
    82  O2    c     0.854766    0.774887    0.467805    0.000000
    83  O2    c     0.196484    0.085594    0.801549    0.000000
    84  O2    c     0.889457    0.114972    0.135167    0.000000
    85  O2    c     0.192842    0.109513    0.355979    0.000000
    86  O2    c     0.909984    0.794499    0.024760    0.000000
    87  O2    c     0.859480    0.080898    0.683355    0.000000
    88  O2    c     0.751746    0.880953    0.852124    0.000000
    89  O2    c     0.069955    0.201571    0.523513    0.000000
    90  O2    c     0.103436    0.900315    0.191274    0.000000
    91  O2    c     0.903666    0.846104    0.244638    0.000000
    92  O2    c     0.124735    0.052465    0.576316    0.000000
    93  O2    c     0.916559    0.058026    0.908771    0.000000
    94  O2    c     0.047975    0.112913    0.741082    0.000000
    95  O2    c     0.839954    0.927648    0.077559    0.000000
    96  O2    c     0.047202    0.916470    0.411720    0.000000
    97  O2    c     0.892019    0.193725    0.972333    0.000000
    98  O2    c     0.775545    0.681494    0.308182    0.000000
    99  O2    c     0.286144    0.085551    0.641655    0.000000
   100  O2    c     0.079258    0.784641    0.475475    0.000000
   101  O2    c     0.159422    0.285177    0.804839    0.000000
   102  O2    c     0.677147    0.891534    0.142429    0.000000
   103  O2    c     0.185172    0.886673    0.350931    0.000000
   104  O2    c     0.685287    0.787516    0.013584    0.000000
   105  O2    c     0.086239    0.291598    0.682195    0.000000
   106  O3    c     0.786614    0.110159    0.847216    0.000000
   107  O2    c     0.284512    0.193684    0.514926    0.000000
   108  O2    c     0.880204    0.687586    0.181223    0.000000
   109  O2    c     0.301868    0.631525    0.245200    0.000000
   110  O2    c     0.339819    0.665971    0.579479    0.000000
   111  O2    c     0.298946    0.656513    0.911176    0.000000
   112  O2    c     0.660877    0.345826    0.745896    0.000000
   113  O3    c     0.605838    0.298336    0.084166    0.000000
   114  O2    c     0.660665    0.312872    0.413118    0.000000
   115  O2    c     0.363097    0.319169    0.961499    0.000000
   116  O2    c     0.650580    0.027055    0.302042    0.000000
   117  O2    c     0.941241    0.615515    0.633445    0.000000
   118  O2    c     0.605710    0.657284    0.465302    0.000000
   119  O2    c     0.312739    0.951982    0.799447    0.000000
   120  O2    c     0.020032    0.363128    0.131070    0.000000
   121  O2    c     0.308387    0.357937    0.357111    0.000000
   122  O2    c     0.023972    0.657941    0.024683    0.000000
   123  O2    c     0.610687    0.946408    0.693392    0.000000
   124  O3    c     0.661407    0.637419    0.853998    0.000000
   125  O2    c     0.939649    0.319818    0.525077    0.000000
   126  O2    c     0.351974    0.029055    0.193837    0.000000
   127  O3    c     0.747714    0.279561    0.001596    0.000000
   128  O2    c     0.676816    0.452011    0.339338    0.000000
   129  O2    c     0.518422    0.217682    0.674550    0.000000
   130  O2    c     0.211731    0.684778    0.506615    0.000000
   131  O2    c     0.270700    0.516644    0.837909    0.000000
   132  O2    c     0.445533    0.760550    0.172803    0.000000
   133  O2    c     0.281317    0.753322    0.318616    0.000000
   134  O2    c     0.449616    0.682303    0.981613    0.000000
   135  O2    c     0.216047    0.523644    0.652080    0.000000
   136  O3    c     0.685954    0.244795    0.821802    0.000000
   137  O2    c     0.515308    0.293848    0.484959    0.000000
   138  O2    c     0.744967    0.455845    0.150497    0.000000
   139  O3    c     0.766863    0.543428    0.018087    0.000000
   140  O2    c     0.445587    0.235826    0.356658    0.000000
   141  O2    c     0.731639    0.204219    0.692352    0.000000
   142  O2    c     0.198678    0.453617    0.523844    0.000000
   143  O2    c     0.501332    0.728087    0.854974    0.000000
   144  O2    c     0.225110    0.770709    0.191310    0.000000
   145  O2    c     0.513709    0.769310    0.301439    0.000000
   146  O2    c     0.241918    0.452876    0.963407    0.000000
   147  O2    c     0.200976    0.740349    0.634002    0.000000
   148  O2    c     0.452596    0.207267    0.802327    0.000000
   149  O2    c     0.731397    0.524463    0.468048    0.000000
   150  O2    c     0.764805    0.243893    0.133382    0.000000
   151  O2    c     0.215823    0.311863    0.889842    0.000000
   152  O2    c     0.655798    0.894452    0.228057    0.000000
   153  O2    c     0.072141    0.755333    0.560240    0.000000
   154  O2    c     0.748354    0.661926    0.393222    0.000000
   155  O2    c     0.315326    0.087926    0.728222    0.000000
   156  O2    c     0.884730    0.222391    0.059478    0.000000
   157  O2    c     0.303675    0.219884    0.430244    0.000000
   158  O2    c     0.881036    0.659506    0.095558    0.000000
   159  O3    c     0.769657    0.084664    0.762281    0.000000
   160  O2    c     0.653342    0.759632    0.927814    0.000000
   161  O2    c     0.077667    0.314264    0.597802    0.000000
   162  O2    c     0.211197    0.894893    0.266079    0.000000
   163  O2    c     0.571476    0.550689    0.981828    0.000000
   164  O2    c     0.422442    0.010177    0.322732    0.000000
   165  O2    c     0.957467    0.403139    0.653228    0.000000
   166  O2    c     0.392817    0.429589    0.485472    0.000000
   167  O3    c     0.530526    0.953140    0.825508    0.000000
   168  O2    c     0.999534    0.569033    0.148996    0.000000
   169  O2    c     0.537085    0.571386    0.337572    0.000000
   170  O2    c     0.002370    0.428452    0.005040    0.000000
   171  O2    c     0.400965    0.964982    0.675947    0.000000
   172  O3    c     0.403704    0.392267    0.828390    0.000000
   173  O2    c     0.952913    0.546975    0.504715    0.000000
   174  O2    c     0.568586    0.018338    0.173990    0.000000
   175  O2    c     0.560826    0.148773    0.249745    0.000000
   176  O2    c     0.818570    0.407751    0.579246    0.000000
   177  O3    c     0.576842    0.402769    0.914034    0.000000
   178  O2    c     0.403256    0.829050    0.747779    0.000000
   179  O2    c     0.137316    0.565833    0.078152    0.000000
   180  O2    c     0.394577    0.567145    0.411474    0.000000
   181  F     c     0.429492    0.888627    0.246177    0.000000
   182  F     c     0.080516    0.537774    0.578785    0.000000
   183  F     c     0.452666    0.520570    0.900854    0.000000
   184  F     c     0.558689    0.086690    0.756550    0.000000
   185  F     c     0.846184    0.430423    0.070121    0.000000
   186  F     c     0.527831    0.438256    0.411214    0.000000
   187  O2    s     0.910979    0.993295    0.993812    0.000000
   188  O2    s     0.980952    0.908316    0.327879    0.000000
   189  O2    s     0.058810    0.064938    0.657718    0.000000
   190  O2    s     0.055997    0.989726    0.493878    0.000000
   191  O2    s     0.974037    0.059013    0.824822    0.000000
   192  O2    s     0.904940    0.914599    0.161251    0.000000
   193  O2    s     0.330564    0.570185    0.327944    0.000000
   194  O2    s     0.397406    0.755499    0.663429    0.000000
   195  O2    s     0.214008    0.630449    0.994964    0.000000
   196  O3    s     0.627904    0.420734    0.825154    0.000000
   197  O2    s     0.565896    0.221987    0.168514    0.000000
   198  O2    s     0.748269    0.342754    0.496102    0.000000
   199  O3    s     0.566970    0.344093    0.999008    0.000000
   200  O2    s     0.751611    0.404301    0.662680    0.000000
   201  O2    s     0.629167    0.218638    0.331968    0.000000
   202  O2    s     0.393673    0.634627    0.495508    0.000000
   203  O2    s     0.212640    0.576268    0.162119    0.000000
   204  O2    s     0.318864    0.750240    0.828958    0.000000
   205  O2    s     0.110287    0.203892    0.962285    0.000000
   206  O2    s     0.761771    0.888002    0.300085    0.000000
   207  O2    s     0.078728    0.866377    0.631604    0.000000
   208  O2    s     0.858162    0.771385    0.465189    0.000000
   209  O2    s     0.199254    0.090647    0.798781    0.000000
   210  O2    s     0.882826    0.111658    0.132346    0.000000
   211  O2    s     0.196314    0.106440    0.358591    0.000000
   212  O2    s     0.900269    0.789008    0.026570    0.000000
   213  O2    s     0.863801    0.086919    0.686793    0.000000
   214  O2    s     0.750110    0.882015    0.854986    0.000000
   215  O2    s     0.076960    0.204969    0.525909    0.000000
   216  O2    s     0.099898    0.893345    0.193705    0.000000
   217  O2    s     0.903459    0.843583    0.244722    0.000000
   218  O2    s     0.126827    0.054925    0.576521    0.000000
   219  O2    s     0.915211    0.061540    0.909434    0.000000
   220  O2    s     0.048944    0.118182    0.741220    0.000000
   221  O2    s     0.838222    0.925852    0.077861    0.000000
   222  O2    s     0.049206    0.915309    0.411730    0.000000
   223  O2    s     0.898024    0.194501    0.975051    0.000000
   224  O2    s     0.774209    0.687772    0.310785    0.000000
   225  O2    s     0.280220    0.078383    0.644318    0.000000
   226  O2    s     0.071702    0.783303    0.477977    0.000000
   227  O2    s     0.163639    0.279022    0.807253    0.000000
   228  O2    s     0.683341    0.899008    0.144997    0.000000
   229  O2    s     0.186361    0.894118    0.348090    0.000000
   230  O2    s     0.691492    0.786977    0.011052    0.000000
   231  O2    s     0.078344    0.285743    0.679282    0.000000
   232  O3    s     0.786995    0.100307    0.845816    0.000000
   233  O2    s     0.278164    0.194878    0.512263    0.000000
   234  O2    s     0.887146    0.693434    0.178608    0.000000
   235  O2    s     0.307613    0.643293    0.245287    0.000000
   236  O2    s     0.328028    0.660209    0.579447    0.000000
   237  O2    s     0.304203    0.651529    0.911248    0.000000
   238  O2    s     0.656523    0.336536    0.745341    0.000000
   239  O3    s     0.618754    0.304140    0.086104    0.000000
   240  O2    s     0.654466    0.318523    0.413063    0.000000
   241  O2    s     0.364135    0.327735    0.959714    0.000000
   242  O2    s     0.640389    0.020446    0.299809    0.000000
   243  O2    s     0.947970    0.612380    0.631146    0.000000
   244  O2    s     0.602516    0.647248    0.463169    0.000000
   245  O2    s     0.322218    0.958352    0.797762    0.000000
   246  O2    s     0.013821    0.366421    0.129126    0.000000
   247  O2    s     0.318462    0.361275    0.359426    0.000000
   248  O2    s     0.018029    0.648522    0.026394    0.000000
   249  O2    s     0.607031    0.952229    0.695400    0.000000
   250  O3    s     0.651506    0.638244    0.856710    0.000000
   251  O2    s     0.946555    0.329838    0.527365    0.000000
   252  O2    s     0.355144    0.022306    0.196209    0.000000
   253  O3    s     0.758850    0.286346    0.004730    0.000000
   254  O2    s     0.669310    0.451593    0.342514    0.000000
   255  O2    s     0.518587    0.211194    0.677477    0.000000
   256  O2    s     0.204624    0.677195    0.509692    0.000000
   257  O2    s     0.278740    0.518232    0.840467    0.000000
   258  O2    s     0.445016    0.767223    0.176075    0.000000
   259  O2    s     0.289194    0.760530    0.315623    0.000000
   260  O2    s     0.448304    0.675003    0.978808    0.000000
   261  O2    s     0.208955    0.524102    0.648967    0.000000
   262  O3    s     0.677110    0.240023    0.818296    0.000000
   263  O2    s     0.515798    0.301391    0.481815    0.000000
   264  O2    s     0.751884    0.455831    0.147847    0.000000
   265  O3    s     0.776585    0.545474    0.021459    0.000000
   266  O2    s     0.448217    0.243781    0.359306    0.000000
   267  O2    s     0.725064    0.200705    0.694547    0.000000
   268  O2    s     0.193410    0.456286    0.526464    0.000000
   269  O2    s     0.498508    0.722531    0.857178    0.000000
   270  O2    s     0.233652    0.776113    0.193889    0.000000
   271  O2    s     0.510865    0.774371    0.298866    0.000000
   272  O2    s     0.248238    0.456178    0.961230    0.000000
   273  O2    s     0.195474    0.732177    0.631496    0.000000
   274  O2    s     0.452786    0.202878    0.799871    0.000000
   275  O2    s     0.723503    0.521645    0.465376    0.000000
   276  O2    s     0.768989    0.249546    0.131099    0.000000
   277  O2    s     0.223695    0.320074    0.890892    0.000000
   278  O2    s     0.646208    0.894329    0.228885    0.000000
   279  O2    s     0.072745    0.746101    0.561090    0.000000
   280  O2    s     0.738890    0.652457    0.394077    0.000000
   281  O2    s     0.323526    0.087686    0.728796    0.000000
   282  O2    s     0.884500    0.230074    0.060524    0.000000
   283  O2    s     0.313325    0.229178    0.429307    0.000000
   284  O2    s     0.881576    0.651620    0.095188    0.000000
   285  O3    s     0.759896    0.084786    0.759421    0.000000
   286  O2    s     0.645096    0.751014    0.927426    0.000000
   287  O2    s     0.077704    0.323605    0.596838    0.000000
   288  O2    s     0.220476    0.894427    0.265113    0.000000
   289  O2    s     0.568547    0.552415    0.979225    0.000000
   290  O2    s     0.422138    0.005844    0.319249    0.000000
   291  O2    s     0.962203    0.407678    0.649905    0.000000
   292  O2    s     0.397440    0.429336    0.482133    0.000000
   293  O3    s     0.525957    0.955249    0.821447    0.000000
   294  O2    s     0.996166    0.565650    0.146202    0.000000
   295  O2    s     0.537509    0.566795    0.340957    0.000000
   296  O2    s     0.999590    0.429260    0.007890    0.000000
   297  O2    s     0.404673    0.969155    0.678709    0.000000
   298  O3    s     0.398218    0.396240    0.832030    0.000000
   299  O2    s     0.958095    0.547556    0.508145    0.000000
   300  O2    s     0.563666    0.012941    0.177315    0.000000
   301  O2    s     0.555533    0.137805    0.249661    0.000000
   302  O2    s     0.829656    0.413162    0.579267    0.000000
   303  O3    s     0.569496    0.407511    0.915654    0.000000
   304  O2    s     0.407959    0.838617    0.747388    0.000000
   305  O2    s     0.127712    0.561172    0.078242    0.000000
   306  O2    s     0.400274    0.561876    0.411511    0.000000
   307  F     s     0.429111    0.888130    0.246056    0.000000
   308  F     s     0.080962    0.538038    0.578725    0.000000
   309  F     s     0.459167    0.516890    0.898168    0.000000
   310  F     s     0.565885    0.086889    0.759602    0.000000
   311  F     s     0.835319    0.426549    0.067525    0.000000
   312  F     s     0.528003    0.437962    0.411127    0.000000
--------------------------------------------------------------------------------

  Final Cartesian lattice vectors (Angstroms) :

       11.915882    0.004157   -0.006373
       -6.000735   10.427247    0.011990
       -0.256083   -0.261342   29.402439


  Final cell parameters and derivatives :

--------------------------------------------------------------------------------
       a           11.915885 Angstrom     dE/de1(xx)     0.001300 eV/strain
       b           12.030646 Angstrom     dE/de2(yy)     0.001186 eV/strain
       c           29.404716 Angstrom     dE/de3(zz)     0.001695 eV/strain
       alpha       90.135377 Degrees      dE/de4(yz)    -0.000501 eV/strain
       beta        90.529812 Degrees      dE/de5(xz)    -0.000262 eV/strain
       gamma      119.899851 Degrees      dE/de6(xy)     0.000162 eV/strain
--------------------------------------------------------------------------------

  Primitive cell volume =          3653.992411 Angs**3

  Density of cell =      1.750987 g/cm**3

  Non-primitive cell volume =          3653.992411 Angs**3


  Final internal derivatives :

--------------------------------------------------------------------------------
   No.  Atomic          a             b             c           Radius
        Label          (eV)          (eV)          (eV)        (eV/Angs)
--------------------------------------------------------------------------------
      1 Ge    c       0.000000      0.000000      0.000000      0.000000
      2 Si    c      -0.000020     -0.000027      0.000001      0.000000
      3 Si    c       0.000218      0.000248     -0.000525      0.000000
      4 Si    c       0.000008     -0.000075     -0.000466      0.000000
      5 Si    c      -0.000235      0.000059      0.000248      0.000000
      6 Si    c       0.000061     -0.000062      0.000113      0.000000
      7 Si    c       0.000004     -0.000082     -0.000043      0.000000
      8 Si    c      -0.000043     -0.000342      0.000412      0.000000
      9 Si    c      -0.000097     -0.000114     -0.000413      0.000000
     10 Si    c       0.000010     -0.000318     -0.000270      0.000000
     11 Si    c       0.000019      0.000075     -0.000150      0.000000
     12 Si    c       0.000070     -0.001421      0.006301      0.000000
     13 Si    c      -0.000545      0.000614     -0.002673      0.000000
     14 Si    c      -0.000258     -0.000250     -0.000314      0.000000
     15 Si    c       0.000039      0.000055      0.000063      0.000000
     16 Si    c       0.000035     -0.000100     -0.000050      0.000000
     17 Si    c       0.000092     -0.000106      0.000362      0.000000
     18 Si    c      -0.000383     -0.000192     -0.000167      0.000000
     19 Si    c      -0.000023     -0.000214     -0.000028      0.000000
     20 Si    c      -0.000594     -0.000298     -0.000717      0.000000
     21 Si    c       0.000224      0.000106      0.000292      0.000000
     22 Ge    c      -0.000113      0.000138     -0.002121      0.000000
     23 Si    c       0.000142      0.000063      0.000101      0.000000
     24 Si    c      -0.000427     -0.000278      0.000125      0.000000
     25 Si    c      -0.000352     -0.000068      0.000092      0.000000
     26 Si    c       0.000017     -0.000232     -0.000298      0.000000
     27 Si    c      -0.000039     -0.000055     -0.000187      0.000000
     28 Si    c      -0.000081     -0.000096     -0.000301      0.000000
     29 Si    c       0.000033     -0.000053      0.000406      0.000000
     30 Si    c       0.000219     -0.000202      0.000009      0.000000
     31 Si    c       0.000000     -0.000128      0.000554      0.000000
     32 Si    c       0.000207     -0.000334     -0.000281      0.000000
     33 Ge    c       0.000244     -0.000287      0.000068      0.000000
     34 Si    c      -0.000085     -0.000106     -0.000129      0.000000
     35 Si    c       0.000123      0.000073      0.000275      0.000000
     36 Si    c      -0.000144      0.000008      0.000116      0.000000
     37 Si    c      -0.000150     -0.000137      0.000509      0.000000
     38 Si    c      -0.000099     -0.000242     -0.000166      0.000000
     39 Si    c       0.000015     -0.000112     -0.000201      0.000000
     40 Si    c      -0.000243     -0.000256     -0.000335      0.000000
     41 Si    c       0.000072     -0.000078      0.000215      0.000000
     42 Si    c      -0.000264     -0.000053      0.001026      0.000000
     43 Si    c      -0.000084     -0.000176     -0.000029      0.000000
     44 Si    c       0.000302     -0.000191     -0.002487      0.000000
     45 Si    c       0.000313      0.000183     -0.000515      0.000000
     46 Si    c      -0.000108     -0.000221     -0.000073      0.000000
     47 Si    c       0.000070      0.000070      0.000026      0.000000
     48 Si    c      -0.000183     -0.000178     -0.000129      0.000000
     49 Si    c       0.000128     -0.000268      0.000904      0.000000
     50 Si    c      -0.000511     -0.000395     -0.000375      0.000000
     51 Si    c      -0.000067     -0.000109     -0.000201      0.000000
     52 Si    c      -0.000131     -0.000144     -0.000569      0.000000
     53 Si    c      -0.000150     -0.000284     -0.000079      0.000000
     54 Si    c      -0.000028     -0.000208      0.000308      0.000000
     55 Si    c      -0.000163     -0.000136      0.000135      0.000000
     56 Si    c       0.000156      0.000428     -0.001231      0.000000
     57 Si    c       0.000133      0.000189     -0.000228      0.000000
     58 Si    c      -0.000008     -0.000137     -0.000397      0.000000
     59 Si    c       0.000120      0.000096      0.000085      0.000000
     60 Si    c      -0.000152      0.000024     -0.000287      0.000000
     61 O2    c       0.000085     -0.000289      0.000217      0.000000
     62 O2    c       0.000261      0.000044      0.000415      0.000000
     63 O2    c      -0.000065      0.000064      0.000441      0.000000
     64 O2    c      -0.000065      0.000035      0.000423      0.000000
     65 O2    c       0.000266      0.000231      0.000030      0.000000
     66 O2    c       0.000267      0.000043      0.000069      0.000000
     67 O2    c       0.000129      0.000201      0.000058      0.000000
     68 O2    c      -0.000036     -0.000084      0.000141      0.000000
     69 O2    c       0.000184      0.000282      0.000273      0.000000
     70 O3    c      -0.000073      0.000127      0.000952      0.000000
     71 O2    c      -0.000341      0.000172      0.000251      0.000000
     72 O2    c      -0.000092     -0.000040     -0.000141      0.000000
     73 O3    c      -0.000852     -0.002045      0.002916      0.000000
     74 O2    c      -0.000006     -0.000119     -0.000049      0.000000
     75 O2    c       0.000050      0.000107      0.000076      0.000000
     76 O2    c       0.000093      0.000139      0.000165      0.000000
     77 O2    c       0.000053     -0.000186     -0.000415      0.000000
     78 O2    c       0.000119      0.000181     -0.000129      0.000000
     79 O2    c       0.000331     -0.000118      0.000028      0.000000
     80 O2    c       0.000276      0.000152     -0.000104      0.000000
     81 O2    c       0.000052      0.000022     -0.000160      0.000000
     82 O2    c       0.000077     -0.000039      0.000105      0.000000
     83 O2    c       0.000202      0.000019     -0.000169      0.000000
     84 O2    c       0.000159      0.000171     -0.000021      0.000000
     85 O2    c      -0.000054      0.000046      0.000075      0.000000
     86 O2    c       0.000902     -0.000751      0.000121      0.000000
     87 O2    c      -0.000234     -0.000077      0.000356      0.000000
     88 O2    c      -0.000003      0.000169      0.000005      0.000000
     89 O2    c      -0.000015     -0.000066     -0.000090      0.000000
     90 O2    c       0.000358     -0.000029     -0.000058      0.000000
     91 O2    c       0.000193      0.000215      0.000106      0.000000
     92 O2    c       0.000093     -0.000038      0.000183      0.000000
     93 O2    c       0.000055      0.000038     -0.000711      0.000000
     94 O2    c       0.000058      0.000044      0.000552      0.000000
     95 O2    c       0.000142      0.000058      0.002251      0.000000
     96 O2    c       0.000101      0.000082     -0.000304      0.000000
     97 O2    c      -0.000246      0.000658     -0.000280      0.000000
     98 O2    c       0.000016      0.000262      0.000341      0.000000
     99 O2    c       0.000084     -0.000006     -0.000030      0.000000
    100 O2    c       0.000150      0.000023      0.000177      0.000000
    101 O2    c      -0.000133      0.000166     -0.000397      0.000000
    102 O2    c       0.000184     -0.000002      0.000306      0.000000
    103 O2    c       0.000053      0.000076     -0.000185      0.000000
    104 O2    c      -0.000608     -0.000284      0.000416      0.000000
    105 O2    c      -0.000047     -0.000231     -0.000121      0.000000
    106 O3    c       0.000087      0.000135     -0.000003      0.000000
    107 O2    c      -0.000026     -0.000040     -0.000218      0.000000
    108 O2    c      -0.000049      0.000369      0.000240      0.000000
    109 O2    c       0.000060      0.000152     -0.000196      0.000000
    110 O2    c      -0.000004      0.000031      0.000287      0.000000
    111 O2    c       0.000209      0.000056      0.000166      0.000000
    112 O2    c      -0.000065     -0.000099     -0.000189      0.000000
    113 O3    c      -0.001734     -0.001128     -0.001219      0.000000
    114 O2    c       0.000077     -0.000119      0.000095      0.000000
    115 O2    c      -0.000373     -0.000081      0.000368      0.000000
    116 O2    c       0.000181      0.000277      0.000335      0.000000
    117 O2    c       0.000102     -0.000069     -0.000184      0.000000
    118 O2    c       0.000293      0.000047     -0.000028      0.000000
    119 O2    c      -0.000039      0.000079      0.000106      0.000000
    120 O2    c       0.000237      0.000491     -0.000146      0.000000
    121 O2    c       0.000144      0.000159      0.000425      0.000000
    122 O2    c       0.000267      0.000280     -0.000044      0.000000
    123 O2    c      -0.000120     -0.000137      0.000018      0.000000
    124 O3    c       0.000694     -0.000206     -0.000619      0.000000
    125 O2    c       0.000014     -0.000038      0.000064      0.000000
    126 O2    c       0.000132     -0.000100      0.000176      0.000000
    127 O3    c       0.000444     -0.000011     -0.000345      0.000000
    128 O2    c       0.000004      0.000109      0.000080      0.000000
    129 O2    c      -0.000168     -0.000101      0.000107      0.000000
    130 O2    c       0.000143      0.000024      0.000210      0.000000
    131 O2    c       0.000075      0.000387      0.000177      0.000000
    132 O2    c       0.000087     -0.000033      0.000060      0.000000
    133 O2    c       0.000096      0.000203     -0.000210      0.000000
    134 O2    c       0.000311     -0.000118      0.000198      0.000000
    135 O2    c      -0.000023      0.000096     -0.000238      0.000000
    136 O3    c      -0.000067     -0.000323     -0.000788      0.000000
    137 O2    c       0.000191     -0.000073     -0.000083      0.000000
    138 O2    c      -0.000071      0.000464     -0.000708      0.000000
    139 O3    c      -0.000334     -0.000979     -0.000399      0.000000
    140 O2    c       0.000188      0.000058      0.000192      0.000000
    141 O2    c      -0.000036     -0.000307      0.000150      0.000000
    142 O2    c      -0.000040     -0.000016      0.000276      0.000000
    143 O2    c       0.000134     -0.000018      0.000099      0.000000
    144 O2    c       0.000141      0.000227      0.000224      0.000000
    145 O2    c       0.000233     -0.000011      0.000088      0.000000
    146 O2    c       0.000092      0.000418      0.000078      0.000000
    147 O2    c       0.000033     -0.000052     -0.000090      0.000000
    148 O2    c       0.000092      0.000038     -0.000163      0.000000
    149 O2    c       0.000095      0.000101      0.000152      0.000000
    150 O2    c       0.000358      0.000226     -0.000870      0.000000
    151 O2    c       0.000121      0.000038      0.000373      0.000000
    152 O2    c       0.000346     -0.000022     -0.000070      0.000000
    153 O2    c       0.000099     -0.000005      0.000327      0.000000
    154 O2    c       0.000092      0.000203      0.000286      0.000000
    155 O2    c       0.000000      0.000001      0.000030      0.000000
    156 O2    c      -0.000103      0.000378     -0.000842      0.000000
    157 O2    c       0.000093      0.000119     -0.000303      0.000000
    158 O2    c       0.000028      0.000486      0.002134      0.000000
    159 O3    c      -0.000040     -0.000121     -0.000227      0.000000
    160 O2    c       0.000186      0.000090      0.000471      0.000000
    161 O2    c      -0.000070     -0.000061     -0.000143      0.000000
    162 O2    c       0.000273      0.000010     -0.000318      0.000000
    163 O2    c       0.000105      0.000107      0.000816      0.000000
    164 O2    c       0.000231      0.000100     -0.000165      0.000000
    165 O2    c      -0.000153     -0.000022     -0.000194      0.000000
    166 O2    c       0.000027      0.000158     -0.000261      0.000000
    167 O3    c       0.000226      0.000070      0.000005      0.000000
    168 O2    c       0.000533     -0.000046     -0.000129      0.000000
    169 O2    c       0.000422      0.000055      0.000285      0.000000
    170 O2    c       0.000008      0.000216     -0.000025      0.000000
    171 O2    c      -0.000015     -0.000159     -0.000074      0.000000
    172 O3    c       0.000509     -0.000526     -0.000474      0.000000
    173 O2    c       0.000022     -0.000120      0.000220      0.000000
    174 O2    c       0.000183      0.000131     -0.000256      0.000000
    175 O2    c       0.000111      0.000183      0.000294      0.000000
    176 O2    c      -0.000001     -0.000075     -0.000300      0.000000
    177 O3    c       0.000709     -0.000885     -0.000807      0.000000
    178 O2    c      -0.000000     -0.000156     -0.000246      0.000000
    179 O2    c       0.000501      0.000283      0.000553      0.000000
    180 O2    c       0.000200      0.000060      0.000016      0.000000
    181 F     c      -0.000161      0.000006     -0.000028      0.000000
    182 F     c       0.000023      0.000004     -0.000058      0.000000
    183 F     c      -0.000455      0.000244      0.000242      0.000000
    184 F     c      -0.000035      0.000111      0.000095      0.000000
    185 F     c      -0.000154      0.000460     -0.000550      0.000000
    186 F     c      -0.000077      0.000000     -0.000069      0.000000
    187 O2    s       0.000108      0.000490     -0.000900      0.000000
    188 O2    s       0.000740      0.000255      0.001234      0.000000
    189 O2    s      -0.000243      0.000212      0.000598      0.000000
    190 O2    s       0.000150      0.000311      0.000443      0.000000
    191 O2    s       0.000182     -0.000017     -0.000423      0.000000
    192 O2    s       0.000178      0.000083      0.000475      0.000000
    193 O2    s       0.000051      0.000163     -0.000051      0.000000
    194 O2    s      -0.000053     -0.000020      0.000062      0.000000
    195 O2    s       0.000423      0.000151     -0.000802      0.000000
    196 O3    s      -0.000169      0.000612     -0.000044      0.000000
    197 O2    s       0.000614      0.000179      0.000666      0.000000
    198 O2    s       0.000041      0.000071     -0.000217      0.000000
    199 O3    s       0.002189      0.000574      0.001497      0.000000
    200 O2    s      -0.000073     -0.000193      0.000183      0.000000
    201 O2    s       0.000103      0.000249      0.000337      0.000000
    202 O2    s      -0.000012      0.000052      0.000162      0.000000
    203 O2    s       0.000499      0.000278      0.001028      0.000000
    204 O2    s      -0.000062      0.000127     -0.000185      0.000000
    205 O2    s       0.000382      0.000000      0.000007      0.000000
    206 O2    s       0.000118     -0.000034     -0.000076      0.000000
    207 O2    s       0.000031     -0.000052     -0.000256      0.000000
    208 O2    s       0.000364      0.000146      0.000080      0.000000
    209 O2    s      -0.000087     -0.000074     -0.000200      0.000000
    210 O2    s      -0.000007      0.000329      0.000292      0.000000
    211 O2    s       0.000361      0.000431      0.000189      0.000000
    212 O2    s       0.001146     -0.000394     -0.001720      0.000000
    213 O2    s      -0.000320     -0.000001      0.000138      0.000000
    214 O2    s       0.000487      0.000527     -0.000042      0.000000
    215 O2    s       0.000073      0.000035     -0.000172      0.000000
    216 O2    s       0.000605      0.000066      0.000394      0.000000
    217 O2    s       0.000095      0.000076     -0.000066      0.000000
    218 O2    s       0.000149     -0.000178      0.000398      0.000000
    219 O2    s       0.000088     -0.000185     -0.000322      0.000000
    220 O2    s       0.000249     -0.000109      0.000473      0.000000
    221 O2    s      -0.000342      0.000768      0.000822      0.000000
    222 O2    s       0.000121     -0.000003     -0.000402      0.000000
    223 O2    s      -0.000389      0.000562      0.000959      0.000000
    224 O2    s       0.000300      0.000440     -0.000338      0.000000
    225 O2    s       0.000003     -0.000123     -0.000156      0.000000
    226 O2    s       0.000128     -0.000074     -0.000157      0.000000
    227 O2    s       0.000112      0.000464     -0.000267      0.000000
    228 O2    s       0.000107      0.000172      0.000177      0.000000
    229 O2    s       0.000055      0.000049     -0.000071      0.000000
    230 O2    s      -0.000635      0.000448     -0.000651      0.000000
    231 O2    s      -0.000008     -0.000263     -0.000026      0.000000
    232 O3    s      -0.000261      0.000086     -0.000222      0.000000
    233 O2    s       0.000072     -0.000013     -0.000102      0.000000
    234 O2    s       0.000256      0.000318      0.001322      0.000000
    235 O2    s       0.000050      0.000229      0.000281      0.000000
    236 O2    s      -0.000102      0.000019      0.000246      0.000000
    237 O2    s       0.000311     -0.000053     -0.000572      0.000000
    238 O2    s       0.000150     -0.000222     -0.000314      0.000000
    239 O3    s       0.001839      0.001915     -0.001454      0.000000
    240 O2    s       0.000166     -0.000046      0.000136      0.000000
    241 O2    s      -0.000856      0.000341     -0.000870      0.000000
    242 O2    s       0.000033      0.000170      0.000311      0.000000
    243 O2    s      -0.000026     -0.000211     -0.000121      0.000000
    244 O2    s       0.000231     -0.000019     -0.000015      0.000000
    245 O2    s       0.000037      0.000046     -0.000015      0.000000
    246 O2    s       0.000492      0.000402      0.000839      0.000000
    247 O2    s       0.000294      0.000337      0.000330      0.000000
    248 O2    s       0.000274      0.000297     -0.001345      0.000000
    249 O2    s      -0.000287     -0.000165     -0.000253      0.000000
    250 O3    s       0.000531     -0.000346     -0.000535      0.000000
    251 O2    s       0.000070      0.000050     -0.000046      0.000000
    252 O2    s       0.000723      0.000304      0.000326      0.000000
    253 O3    s       0.000571      0.000269      0.000840      0.000000
    254 O2    s       0.000143      0.000353     -0.000149      0.000000
    255 O2    s      -0.000025     -0.000140      0.000098      0.000000
    256 O2    s       0.000068     -0.000084      0.000102      0.000000
    257 O2    s       0.000073      0.000280      0.000295      0.000000
    258 O2    s       0.000338      0.000302      0.000325      0.000000
    259 O2    s       0.000056      0.000116     -0.000218      0.000000
    260 O2    s       0.000687     -0.000221     -0.000133      0.000000
    261 O2    s      -0.000241     -0.000148     -0.000239      0.000000
    262 O3    s       0.000080     -0.000013      0.000005      0.000000
    263 O2    s       0.000096     -0.000089      0.000060      0.000000
    264 O2    s       0.000533      0.000389      0.000890      0.000000
    265 O3    s       0.000326     -0.000299      0.001591      0.000000
    266 O2    s       0.000265      0.000116      0.000078      0.000000
    267 O2    s       0.000124     -0.000208      0.000148      0.000000
    268 O2    s       0.000034      0.000052      0.000176      0.000000
    269 O2    s       0.000621      0.000114      0.000310      0.000000
    270 O2    s       0.000156      0.000300      0.000859      0.000000
    271 O2    s       0.000268      0.000173      0.000015      0.000000
    272 O2    s       0.000223      0.000200     -0.000179      0.000000
    273 O2    s      -0.000029     -0.000154     -0.000140      0.000000
    274 O2    s       0.000131     -0.000223     -0.000362      0.000000
    275 O2    s       0.000038      0.000003     -0.000023      0.000000
    276 O2    s       0.000040     -0.000181      0.001289      0.000000
    277 O2    s       0.000198      0.000038     -0.000438      0.000000
    278 O2    s       0.000275     -0.000017      0.000055      0.000000
    279 O2    s       0.000067     -0.000043      0.000155      0.000000
    280 O2    s       0.000156      0.000088      0.000358      0.000000
    281 O2    s       0.000091     -0.000104     -0.000091      0.000000
    282 O2    s       0.000216     -0.000145     -0.001331      0.000000
    283 O2    s       0.000144      0.000060     -0.000128      0.000000
    284 O2    s       0.000018      0.000258      0.000250      0.000000
    285 O3    s      -0.000085     -0.000021      0.000318      0.000000
    286 O2    s      -0.000028      0.000025      0.000084      0.000000
    287 O2    s       0.000015     -0.000075     -0.000160      0.000000
    288 O2    s       0.000320     -0.000073     -0.000102      0.000000
    289 O2    s      -0.000307      0.000227     -0.000214      0.000000
    290 O2    s       0.000262      0.000150     -0.000261      0.000000
    291 O2    s      -0.000123      0.000009      0.000024      0.000000
    292 O2    s       0.000073      0.000096     -0.000196      0.000000
    293 O3    s      -0.000154     -0.000080      0.000209      0.000000
    294 O2    s       0.000365     -0.000224      0.000856      0.000000
    295 O2    s       0.000504     -0.000040      0.000107      0.000000
    296 O2    s       0.000633      0.000183     -0.000151      0.000000
    297 O2    s       0.000051     -0.000006      0.000149      0.000000
    298 O3    s       0.001316      0.000059      0.000203      0.000000
    299 O2    s       0.000138      0.000014      0.000214      0.000000
    300 O2    s       0.000129      0.000189     -0.000036      0.000000
    301 O2    s       0.000105      0.000207     -0.000073      0.000000
    302 O2    s       0.000026     -0.000042     -0.000212      0.000000
    303 O3    s       0.000481     -0.000072     -0.001180      0.000000
    304 O2    s      -0.000035     -0.000001     -0.000132      0.000000
    305 O2    s       0.000322     -0.000206      0.000955      0.000000
    306 O2    s       0.000207      0.000004      0.000197      0.000000
    307 F     s      -0.000084      0.000066      0.000047      0.000000
    308 F     s       0.000000      0.000012      0.000021      0.000000
    309 F     s      -0.000398      0.000365      0.000697      0.000000
    310 F     s      -0.000106      0.000174      0.000037      0.000000
    311 F     s      -0.000885     -0.000233     -0.000937      0.000000
    312 F     s      -0.000019      0.000005     -0.000098      0.000000
--------------------------------------------------------------------------------
  Maximum abs         0.002189      0.002045      0.006301      0.000000
--------------------------------------------------------------------------------


  Time to end of optimisation =     200.0722 seconds


  Peak dynamic memory used =      19.13 MB 


  Timing analysis for GULP :

--------------------------------------------------------------------------------
  Task / Subroutine                                          Time (Seconds)
--------------------------------------------------------------------------------
  Calculation of reciprocal space energy and derivatives          4.8584
  Calculation of real space energy and derivatives              175.0814
  Calculation of three-body energy and derivatives               17.6102
  Calculation of matrix inversion                                 2.2325
  Global summation overhead                                       0.0005
--------------------------------------------------------------------------------
  Total CPU time                                                200.0722
--------------------------------------------------------------------------------


  Dump file written as out.res                                                 
  CIF file written as out.cif                                                 


  Job Finished at 05:24.08  3rd November   2016                               

