********************************************************************************
*                       GENERAL UTILITY LATTICE PROGRAM                        *
*                                 Julian Gale                                  *
*                      Nanochemistry Research Institute                        *
*                           Department of Chemistry                            *
*                    Curtin University, Western Australia                      *
********************************************************************************
* Version = 4.2.0 * Last modified =  20th January 2014                         *
********************************************************************************
*  optimise     - perform optimisation run                                     *
*  conp         - constant pressure calculation                                *
*  qok          - running with non charge neutral cell is OK                   *
********************************************************************************

  Job Started  at 09:02.00  3rd November   2016                               

  Number of CPUs =     1


  Total number of configurations input =   1

********************************************************************************
*  Input for Configuration =   1                                               *
********************************************************************************

  Formula = Ge3Si57O120F6                                               

  Number of irreducible atoms/shells =     312


  Total number atoms/shells =     312

  Dimensionality = 3               :  Bulk   


  Charge on solid   =  -6.000000 =>neutralising background added


  Cartesian lattice vectors (Angstroms) :

       11.921595    0.000000    0.000000
       -5.970516   10.398054    0.000000
        0.018649   -0.106042   29.484243

  Cell parameters (Angstroms/Degrees):

  a =      11.9216    alpha =  90.1967
  b =      11.9903    beta  =  89.9638
  c =      29.4844    gamma = 119.8642

  Initial cell volume =        3654.907594 Angs**3

  Temperature of configuration =  0.000     K 

  Pressure of configuration =         0.000 GPa 

  Fractional coordinates of asymmetric unit :

--------------------------------------------------------------------------------
   No.  Atomic       x           y          z         Charge      Occupancy
        Label      (Frac)      (Frac)     (Frac)        (e)         (Frac)  
--------------------------------------------------------------------------------
      1 Ge    c    0.699600    0.375700    0.033890     4.00000    1.000000    
      2 Si    c    0.621994 *  0.324983 *  0.364959 *   4.00000    1.000000    
      3 Si    c    0.673466 *  0.299298 *  0.696442 *   4.00000    1.000000    
      4 Si    c    0.295471 *  0.620913 *  0.530236 *   4.00000    1.000000    
      5 Si    c    0.377142 *  0.678467 *  0.859326 *   4.00000    1.000000    
      6 Si    c    0.325942 *  0.708505 *  0.197086 *   4.00000    1.000000    
      7 Si    c    0.378299 *  0.700542 *  0.297342 *   4.00000    1.000000    
      8 Si    c    0.323217 *  0.620059 *  0.961319 *   4.00000    1.000000    
      9 Si    c    0.296382 *  0.676539 *  0.630824 *   4.00000    1.000000    
     10 Si    c    0.621979 *  0.307410 *  0.798010 *   4.00000    1.000000    
     11 Si    c    0.676433 *  0.381114 *  0.465272 *   4.00000    1.000000    
     12 Si    c    0.689433 *  0.320983 *  0.133687 *   4.00000    1.000000    
     13 Si    c    0.530777 *  0.407359 *  0.963814 *   4.00000    1.000000    
     14 Si    c    0.583269 *  0.111702 *  0.301884 *   4.00000    1.000000    
     15 Si    c    0.884722 *  0.470941 *  0.631719 *   4.00000    1.000000    
     16 Si    c    0.467062 *  0.583389 *  0.464268 *   4.00000    1.000000    
     17 Si    c    0.416876 *  0.893504 *  0.796806 *   4.00000    1.000000    
     18 Si    c    0.118518 *  0.535051 *  0.129744 *   4.00000    1.000000    
     19 Si    c    0.416582 *  0.528848 *  0.362483 *   4.00000    1.000000    
     20 Si    c    0.109698 *  0.581322 *  0.026428 *   4.00000    1.000000    
     21 Si    c    0.466520 *  0.888662 *  0.695700 *   4.00000    1.000000    
     22 Ge    c    0.567240 *  0.472754 *  0.864904 *   4.00000    1.000000    
     23 Si    c    0.886876 *  0.419138 *  0.530145 *   4.00000    1.000000    
     24 Si    c    0.529488 *  0.115309 *  0.200672 *   4.00000    1.000000    
     25 Si    c    0.294139 *  0.395841 *  0.841211 *   4.00000    1.000000    
     26 Si    c    0.604432 *  0.909850 *  0.183253 *   4.00000    1.000000    
     27 Si    c    0.094218 *  0.698667 *  0.515395 *   4.00000    1.000000    
     28 Si    c    0.698552 *  0.601062 *  0.349100 *   4.00000    1.000000    
     29 Si    c    0.395369 *  0.097369 *  0.681790 *   4.00000    1.000000    
     30 Si    c    0.893974 *  0.296005 *  0.010613 *   4.00000    1.000000    
     31 Si    c    0.396716 *  0.303441 *  0.478753 *   4.00000    1.000000    
     32 Si    c    0.899709 *  0.602327 *  0.143927 *   4.00000    1.000000    
     33 Si    c    0.697233 *  0.102451 *  0.810971 *   4.00000    1.000000    
     34 Si    c    0.605552 *  0.695361 *  0.976091 *   4.00000    1.000000    
     35 Si    c    0.095097 *  0.399106 *  0.645652 *   4.00000    1.000000    
     36 Si    c    0.301589 *  0.901426 *  0.314178 *   4.00000    1.000000    
     37 Si    c    0.250705 *  0.335757 *  0.943903 *   4.00000    1.000000    
     38 Si    c    0.660432 *  0.910934 *  0.283871 *   4.00000    1.000000    
     39 Si    c    0.086300 *  0.748766 *  0.616083 *   4.00000    1.000000    
     40 Si    c    0.747277 *  0.660839 *  0.449701 *   4.00000    1.000000    
     41 Si    c    0.339933 *  0.094637 *  0.782491 *   4.00000    1.000000    
     42 Ge    c    0.907090 *  0.252137 *  0.113975 *   4.00000    1.000000    
     43 Si    c    0.339373 *  0.250939 *  0.378087 *   4.00000    1.000000    
     44 Si    c    0.905561 *  0.661202 *  0.041729 *   4.00000    1.000000    
     45 Si    c    0.744929 *  0.090072 *  0.710553 *   4.00000    1.000000    
     46 Si    c    0.665266 *  0.751637 *  0.874068 *   4.00000    1.000000    
     47 Si    c    0.087944 *  0.340863 *  0.545007 *   4.00000    1.000000    
     48 Si    c    0.250288 *  0.913074 *  0.213941 *   4.00000    1.000000    
     49 Si    c    0.971488 *  0.121290 *  0.961336 *   4.00000    1.000000    
     50 Si    c    0.877868 *  0.847444 *  0.298006 *   4.00000    1.000000    
     51 Si    c    0.147862 *  0.028131 *  0.629793 *   4.00000    1.000000    
     52 Si    c    0.026903 *  0.878802 *  0.464336 *   4.00000    1.000000    
     53 Si    c    0.114613 *  0.149286 *  0.794254 *   4.00000    1.000000    
     54 Si    c    0.850586 *  0.972246 *  0.130568 *   4.00000    1.000000    
     55 Si    c    0.121238 *  0.970475 *  0.363560 *   4.00000    1.000000    
     56 Si    c    0.850670 *  0.882143 *  0.028391 *   4.00000    1.000000    
     57 Si    c    0.023670 *  0.148823 *  0.693907 *   4.00000    1.000000    
     58 Si    c    0.876756 *  0.033983 *  0.860646 *   4.00000    1.000000    
     59 Si    c    0.149101 *  0.122247 *  0.529175 *   4.00000    1.000000    
     60 Si    c    0.969800 *  0.848696 *  0.196534 *   4.00000    1.000000    
     61 O2    c    0.928795 *  0.003851 *  0.996029 *   0.87073    1.000000    
     62 O2    c    0.002347 *  0.928939 *  0.329289 *   0.87073    1.000000    
     63 O2    c    0.063570 *  0.070647 *  0.659714 *   0.87073    1.000000    
     64 O2    c    0.069450 *  0.002568 *  0.495716 *   0.87073    1.000000    
     65 O2    c    0.995276 *  0.069446 *  0.827382 *   0.87073    1.000000    
     66 O2    c    0.926625 *  0.922815 *  0.162057 *   0.87073    1.000000    
     67 O2    c    0.340267 *  0.576974 *  0.329269 *   0.87073    1.000000    
     68 O2    c    0.418912 *  0.762464 *  0.663555 *   0.87073    1.000000    
     69 O2    c    0.236516 *  0.655407 *  0.994301 *   0.87073    1.000000    
     70 O3    c    0.657482 *  0.425739 *  0.829247 *   1.33043    1.000000    
     71 O2    c    0.577097 *  0.244181 *  0.171174 *   0.87073    1.000000    
     72 O2    c    0.760475 *  0.342338 *  0.497919 *   0.87073    1.000000    
     73 O3    c    0.562726 *  0.333225 *  0.001563 *   1.33043    1.000000    
     74 O2    c    0.758687 *  0.422089 *  0.663749 *   0.87073    1.000000    
     75 O2    c    0.660958 *  0.237055 *  0.333953 *   0.87073    1.000000    
     76 O2    c    0.417959 *  0.659536 *  0.496799 *   0.87073    1.000000    
     77 O2    c    0.244302 *  0.589997 *  0.161992 *   0.87073    1.000000    
     78 O2    c    0.340084 *  0.767491 *  0.829253 *   0.87073    1.000000    
     79 O2    c    0.126181 *  0.212342 *  0.965666 *   0.87073    1.000000    
     80 O2    c    0.786476 *  0.910351 *  0.304132 *   0.87073    1.000000    
     81 O2    c    0.085815 *  0.874769 *  0.636039 *   0.87073    1.000000    
     82 O2    c    0.872437 *  0.787800 *  0.469931 *   0.87073    1.000000    
     83 O2    c    0.213247 *  0.095739 *  0.802321 *   0.87073    1.000000    
     84 O3    c    0.918456 *  0.123590 *  0.136440 *   1.33043    1.000000    
     85 O2    c    0.212878 *  0.124186 *  0.358153 *   0.87073    1.000000    
     86 O2    c    0.920777 *  0.797049 *  0.024604 *   0.87073    1.000000    
     87 O2    c    0.869701 *  0.088736 *  0.689105 *   0.87073    1.000000    
     88 O2    c    0.783089 *  0.882625 *  0.854607 *   0.87073    1.000000    
     89 O2    c    0.085893 *  0.213519 *  0.524942 *   0.87073    1.000000    
     90 O2    c    0.125020 *  0.915032 *  0.193413 *   0.87073    1.000000    
     91 O2    c    0.924730 *  0.858939 *  0.246539 *   0.87073    1.000000    
     92 O2    c    0.137604 *  0.065102 *  0.578626 *   0.87073    1.000000    
     93 O2    c    0.931431 *  0.065031 *  0.911342 *   0.87073    1.000000    
     94 O2    c    0.062628 *  0.126941 *  0.743409 *   0.87073    1.000000    
     95 O2    c    0.855662 *  0.931930 *  0.079093 *   0.87073    1.000000    
     96 O2    c    0.064500 *  0.929851 *  0.413479 *   0.87073    1.000000    
     97 O2    c    0.904230 *  0.205587 *  0.971688 *   0.87073    1.000000    
     98 O2    c    0.797494 *  0.696850 *  0.310683 *   0.87073    1.000000    
     99 O2    c    0.298611 *  0.099473 *  0.643355 *   0.87073    1.000000    
    100 O2    c    0.096588 *  0.797059 *  0.476944 *   0.87073    1.000000    
    101 O2    c    0.183881 *  0.301547 *  0.805155 *   0.87073    1.000000    
    102 O2    c    0.699181 *  0.909784 *  0.143855 *   0.87073    1.000000    
    103 O2    c    0.203748 *  0.900031 *  0.352751 *   0.87073    1.000000    
    104 O2    c    0.699784 *  0.793729 *  0.014952 *   0.87073    1.000000    
    105 O2    c    0.095529 *  0.301463 *  0.683683 *   0.87073    1.000000    
    106 O2    c    0.797453 *  0.107111 *  0.849673 *   0.87073    1.000000    
    107 O2    c    0.300844 *  0.205675 *  0.517000 *   0.87073    1.000000    
    108 O2    c    0.904874 *  0.698380 *  0.183516 *   0.87073    1.000000    
    109 O2    c    0.322491 *  0.645668 *  0.246475 *   0.87073    1.000000    
    110 O2    c    0.354119 *  0.677334 *  0.580437 *   0.87073    1.000000    
    111 O2    c    0.325656 *  0.674148 *  0.910967 *   0.87073    1.000000    
    112 O2    c    0.673325 *  0.356005 *  0.746260 *   0.87073    1.000000    
    113 O3    c    0.620112 *  0.307313 *  0.086033 *   1.33043    1.000000    
    114 O2    c    0.678902 *  0.325040 *  0.415067 *   0.87073    1.000000    
    115 O2    c    0.372122 *  0.325566 *  0.961770 *   0.87073    1.000000    
    116 O2    c    0.670074 *  0.041716 *  0.303559 *   0.87073    1.000000    
    117 O2    c    0.953817 *  0.626898 *  0.634383 *   0.87073    1.000000    
    118 O2    c    0.623667 *  0.670880 *  0.467044 *   0.87073    1.000000    
    119 O2    c    0.327878 *  0.960771 *  0.800434 *   0.87073    1.000000    
    120 O3    c    0.052744 *  0.382587 *  0.130937 *   1.33043    1.000000    
    121 O2    c    0.329342 *  0.372877 *  0.359270 *   0.87073    1.000000    
    122 O2    c    0.037185 *  0.664578 *  0.024050 *   0.87073    1.000000    
    123 O2    c    0.623076 *  0.957460 *  0.692086 *   0.87073    1.000000    
    124 O3    c    0.683155 *  0.638901 *  0.854940 *   1.33043    1.000000    
    125 O2    c    0.955391 *  0.331348 *  0.526490 *   0.87073    1.000000    
    126 O2    c    0.372862 *  0.045412 *  0.196481 *   0.87073    1.000000    
    127 O3    c    0.761212 *  0.291973 *  0.001521 *   1.33043    1.000000    
    128 O2    c    0.697777 *  0.466559 *  0.341568 *   0.87073    1.000000    
    129 O2    c    0.530171 *  0.229632 *  0.673622 *   0.87073    1.000000    
    130 O2    c    0.227807 *  0.696701 *  0.507842 *   0.87073    1.000000    
    131 O2    c    0.300459 *  0.534782 *  0.838157 *   0.87073    1.000000    
    132 O2    c    0.469456 *  0.777239 *  0.174862 *   0.87073    1.000000    
    133 O2    c    0.302032 *  0.767458 *  0.320170 *   0.87073    1.000000    
    134 O2    c    0.468261 *  0.692028 *  0.981773 *   0.87073    1.000000    
    135 O2    c    0.228952 *  0.533414 *  0.652964 *   0.87073    1.000000    
    136 O2    c    0.697134 *  0.235239 *  0.818071 *   0.87073    1.000000    
    137 O2    c    0.531928 *  0.305497 *  0.486704 *   0.87073    1.000000    
    138 O2    c    0.765030 *  0.470542 *  0.151235 *   0.87073    1.000000    
    139 O3    c    0.777373 *  0.545624 *  0.022209 *   1.33043    1.000000    
    140 O2    c    0.465492 *  0.249527 *  0.358854 *   0.87073    1.000000    
    141 O2    c    0.747371 *  0.216978 *  0.691365 *   0.87073    1.000000    
    142 O2    c    0.214942 *  0.465087 *  0.525255 *   0.87073    1.000000    
    143 O2    c    0.531811 *  0.743238 *  0.856612 *   0.87073    1.000000    
    144 O2    c    0.247252 *  0.786466 *  0.193212 *   0.87073    1.000000    
    145 O2    c    0.534603 *  0.783237 *  0.301962 *   0.87073    1.000000    
    146 O2    c    0.258013 *  0.466064 *  0.962748 *   0.87073    1.000000    
    147 O2    c    0.212851 *  0.749284 *  0.635424 *   0.87073    1.000000    
    148 O2    c    0.464977 *  0.217850 *  0.802735 *   0.87073    1.000000    
    149 O2    c    0.748497 *  0.536702 *  0.469878 *   0.87073    1.000000    
    150 O3    c    0.777312 *  0.253055 *  0.138342 *   1.33043    1.000000    
    151 O2    c    0.232700 *  0.325033 *  0.889767 *   0.87073    1.000000    
    152 O2    c    0.679245 *  0.912866 *  0.229466 *   0.87073    1.000000    
    153 O2    c    0.088622 *  0.768075 *  0.561763 *   0.87073    1.000000    
    154 O2    c    0.768480 *  0.676555 *  0.395393 *   0.87073    1.000000    
    155 O2    c    0.321942 *  0.095782 *  0.728122 *   0.87073    1.000000    
    156 O3    c    0.898211 *  0.224735 *  0.056646 *   1.33043    1.000000    
    157 O2    c    0.322174 *  0.232957 *  0.432310 *   0.87073    1.000000    
    158 O2    c    0.905396 *  0.672184 *  0.096823 *   0.87073    1.000000    
    159 O2    c    0.766747 *  0.093564 *  0.764787 *   0.87073    1.000000    
    160 O2    c    0.675978 *  0.762798 *  0.929325 *   0.87073    1.000000    
    161 O2    c    0.090382 *  0.324178 *  0.599214 *   0.87073    1.000000    
    162 O2    c    0.230669 *  0.908537 *  0.268223 *   0.87073    1.000000    
    163 O2    c    0.584126 *  0.554034 *  0.983616 *   0.87073    1.000000    
    164 O2    c    0.441411 *  0.024915 *  0.324167 *   0.87073    1.000000    
    165 O2    c    0.970150 *  0.414655 *  0.654473 *   0.87073    1.000000    
    166 O2    c    0.410511 *  0.442613 *  0.486994 *   0.87073    1.000000    
    167 O2    c    0.558285 *  0.975701 *  0.820420 *   0.87073    1.000000    
    168 O2    c    0.020383 *  0.578831 *  0.149912 *   0.87073    1.000000    
    169 O2    c    0.558840 *  0.587330 *  0.339700 *   0.87073    1.000000    
    170 O2    c    0.022373 *  0.438300 *  0.006354 *   0.87073    1.000000    
    171 O2    c    0.406567 *  0.970379 *  0.672515 *   0.87073    1.000000    
    172 O3    c    0.425275 *  0.401450 *  0.829137 *   1.33043    1.000000    
    173 O2    c    0.968810 *  0.559449 *  0.506491 *   0.87073    1.000000    
    174 O2    c    0.589950 *  0.035483 *  0.175871 *   0.87073    1.000000    
    175 O2    c    0.581865 *  0.165028 *  0.251579 *   0.87073    1.000000    
    176 O2    c    0.832677 *  0.418433 *  0.580735 *   0.87073    1.000000    
    177 O3    c    0.589370 *  0.403205 *  0.915764 *   1.33043    1.000000    
    178 O2    c    0.414009 *  0.835334 *  0.746553 *   0.87073    1.000000    
    179 O2    c    0.159808 *  0.583123 *  0.077746 *   0.87073    1.000000    
    180 O2    c    0.414634 *  0.582258 *  0.413115 *   0.87073    1.000000    
    181 F     c    0.449814 *  0.903160 *  0.247802 *   0.56000    1.000000    
    182 F     c    0.094699 *  0.547828 *  0.579690 *   0.56000    1.000000    
    183 F     c    0.474370 *  0.528088 *  0.901505 *   0.56000    1.000000    
    184 F     c    0.542891 *  0.091367 *  0.745772 *   0.56000    1.000000    
    185 F     c    0.860983 *  0.428816 *  0.071965 *   0.56000    1.000000    
    186 F     c    0.547794 *  0.452198 *  0.412843 *   0.56000    1.000000    
    187 O2    s    0.924737 *  0.003123 *  0.995845 *  -2.87073    1.000000    
    188 O2    s    0.001536 *  0.924384 *  0.329583 *  -2.87073    1.000000    
    189 O2    s    0.068597 *  0.074628 *  0.660155 *  -2.87073    1.000000    
    190 O2    s    0.073519 *  0.001952 *  0.495898 *  -2.87073    1.000000    
    191 O2    s    0.995348 *  0.074516 *  0.827412 *  -2.87073    1.000000    
    192 O2    s    0.923091 *  0.919879 *  0.162463 *  -2.87073    1.000000    
    193 O2    s    0.351936 *  0.584859 *  0.329320 *  -2.87073    1.000000    
    194 O2    s    0.411005 *  0.766347 *  0.663415 *  -2.87073    1.000000    
    195 O2    s    0.232491 *  0.644127 *  0.994160 *  -2.87073    1.000000    
    196 O3    s    0.647374 *  0.415742 *  0.828222 *  -3.33043    1.000000    
    197 O2    s    0.583471 *  0.238417 *  0.170467 *  -2.87073    1.000000    
    198 O2    s    0.764641 *  0.354290 *  0.497792 *  -2.87073    1.000000    
    199 O3    s    0.570228 *  0.344108 *  0.000300 *  -3.33043    1.000000    
    200 O2    s    0.763204 *  0.414748 *  0.663725 *  -2.87073    1.000000    
    201 O2    s    0.648871 *  0.232879 *  0.333747 *  -2.87073    1.000000    
    202 O2    s    0.410616 *  0.647683 *  0.496817 *  -2.87073    1.000000    
    203 O2    s    0.239161 *  0.596121 *  0.162125 *  -2.87073    1.000000    
    204 O2    s    0.351649 *  0.770497 *  0.829253 *  -2.87073    1.000000    
    205 O2    s    0.122666 *  0.215516 *  0.962954 *  -2.87073    1.000000    
    206 O2    s    0.783057 *  0.903701 *  0.301370 *  -2.87073    1.000000    
    207 O2    s    0.092428 *  0.877935 *  0.633327 *  -2.87073    1.000000    
    208 O2    s    0.875849 *  0.784299 *  0.467267 *  -2.87073    1.000000    
    209 O2    s    0.215760 *  0.101330 *  0.799441 *  -2.87073    1.000000    
    210 O3    s    0.910559 *  0.117729 *  0.134143 *  -3.33043    1.000000    
    211 O2    s    0.216175 *  0.120957 *  0.360739 *  -2.87073    1.000000    
    212 O2    s    0.911777 *  0.792366 *  0.026720 *  -2.87073    1.000000    
    213 O2    s    0.873448 *  0.095382 *  0.691799 *  -2.87073    1.000000    
    214 O2    s    0.780674 *  0.885317 *  0.857393 *  -2.87073    1.000000    
    215 O2    s    0.092844 *  0.216902 *  0.527422 *  -2.87073    1.000000    
    216 O2    s    0.121364 *  0.907737 *  0.195854 *  -2.87073    1.000000    
    217 O2    s    0.924611 *  0.856483 *  0.246610 *  -2.87073    1.000000    
    218 O2    s    0.140071 *  0.067499 *  0.578710 *  -2.87073    1.000000    
    219 O2    s    0.929924 *  0.068020 *  0.911421 *  -2.87073    1.000000    
    220 O2    s    0.064141 *  0.131987 *  0.743600 *  -2.87073    1.000000    
    221 O2    s    0.854558 *  0.930827 *  0.079104 *  -2.87073    1.000000    
    222 O2    s    0.066759 *  0.928780 *  0.413474 *  -2.87073    1.000000    
    223 O2    s    0.910613 *  0.205621 *  0.974550 *  -2.87073    1.000000    
    224 O2    s    0.796058 *  0.703205 *  0.313204 *  -2.87073    1.000000    
    225 O2    s    0.292199 *  0.091569 *  0.645791 *  -2.87073    1.000000    
    226 O2    s    0.088936 *  0.795821 *  0.479480 *  -2.87073    1.000000    
    227 O2    s    0.187712 *  0.295167 *  0.807639 *  -2.87073    1.000000    
    228 O2    s    0.705043 *  0.916249 *  0.146550 *  -2.87073    1.000000    
    229 O2    s    0.205108 *  0.907602 *  0.349916 *  -2.87073    1.000000    
    230 O2    s    0.705930 *  0.792925 *  0.012384 *  -2.87073    1.000000    
    231 O2    s    0.087973 *  0.295436 *  0.680886 *  -2.87073    1.000000    
    232 O2    s    0.795992 *  0.098823 *  0.847009 *  -2.87073    1.000000    
    233 O2    s    0.294646 *  0.206964 *  0.514323 *  -2.87073    1.000000    
    234 O2    s    0.911256 *  0.704295 *  0.180735 *  -2.87073    1.000000    
    235 O2    s    0.328390 *  0.657488 *  0.246544 *  -2.87073    1.000000    
    236 O2    s    0.342305 *  0.671485 *  0.580399 *  -2.87073    1.000000    
    237 O2    s    0.330523 *  0.668858 *  0.911108 *  -2.87073    1.000000    
    238 O2    s    0.668270 *  0.345185 *  0.746056 *  -2.87073    1.000000    
    239 O3    s    0.632747 *  0.313455 *  0.087138 *  -3.33043    1.000000    
    240 O2    s    0.672749 *  0.330821 *  0.415013 *  -2.87073    1.000000    
    241 O2    s    0.374117 *  0.334713 *  0.959939 *  -2.87073    1.000000    
    242 O2    s    0.660114 *  0.035171 *  0.301309 *  -2.87073    1.000000    
    243 O2    s    0.960617 *  0.623674 *  0.632173 *  -2.87073    1.000000    
    244 O2    s    0.620525 *  0.660789 *  0.464913 *  -2.87073    1.000000    
    245 O2    s    0.338289 *  0.967476 *  0.798212 *  -2.87073    1.000000    
    246 O3    s    0.047913 *  0.387780 *  0.129465 *  -3.33043    1.000000    
    247 O2    s    0.339303 *  0.376189 *  0.361557 *  -2.87073    1.000000    
    248 O2    s    0.031691 *  0.655373 *  0.026078 *  -2.87073    1.000000    
    249 O2    s    0.619660 *  0.964256 *  0.694400 *  -2.87073    1.000000    
    250 O3    s    0.673419 *  0.639971 *  0.857726 *  -3.33043    1.000000    
    251 O2    s    0.962215 *  0.341414 *  0.528805 *  -2.87073    1.000000    
    252 O2    s    0.375915 *  0.038479 *  0.198777 *  -2.87073    1.000000    
    253 O3    s    0.770878 *  0.298161 *  0.004805 *  -3.33043    1.000000    
    254 O2    s    0.690121 *  0.466150 *  0.344766 *  -2.87073    1.000000    
    255 O2    s    0.530650 *  0.222820 *  0.676844 *  -2.87073    1.000000    
    256 O2    s    0.220662 *  0.689125 *  0.510956 *  -2.87073    1.000000    
    257 O2    s    0.307860 *  0.535869 *  0.840701 *  -2.87073    1.000000    
    258 O2    s    0.468667 *  0.783989 *  0.178097 *  -2.87073    1.000000    
    259 O2    s    0.309802 *  0.774708 *  0.317149 *  -2.87073    1.000000    
    260 O2    s    0.466985 *  0.684806 *  0.979026 *  -2.87073    1.000000    
    261 O2    s    0.221780 *  0.533920 *  0.649900 *  -2.87073    1.000000    
    262 O2    s    0.689699 *  0.227799 *  0.815263 *  -2.87073    1.000000    
    263 O2    s    0.532547 *  0.313128 *  0.483608 *  -2.87073    1.000000    
    264 O2    s    0.771975 *  0.469898 *  0.148663 *  -2.87073    1.000000    
    265 O3    s    0.786231 *  0.546850 *  0.025099 *  -3.33043    1.000000    
    266 O2    s    0.468052 *  0.257544 *  0.361517 *  -2.87073    1.000000    
    267 O2    s    0.739311 *  0.211721 *  0.693935 *  -2.87073    1.000000    
    268 O2    s    0.209527 *  0.467868 *  0.527862 *  -2.87073    1.000000    
    269 O2    s    0.528591 *  0.736843 *  0.858713 *  -2.87073    1.000000    
    270 O2    s    0.255775 *  0.791852 *  0.195795 *  -2.87073    1.000000    
    271 O2    s    0.531880 *  0.788546 *  0.299519 *  -2.87073    1.000000    
    272 O2    s    0.264332 *  0.469032 *  0.960620 *  -2.87073    1.000000    
    273 O2    s    0.207656 *  0.741494 *  0.632846 *  -2.87073    1.000000    
    274 O2    s    0.466694 *  0.212829 *  0.800036 *  -2.87073    1.000000    
    275 O2    s    0.740731 *  0.533969 *  0.467222 *  -2.87073    1.000000    
    276 O3    s    0.780269 *  0.259496 *  0.135803 *  -3.33043    1.000000    
    277 O2    s    0.240653 *  0.333094 *  0.890925 *  -2.87073    1.000000    
    278 O2    s    0.669435 *  0.912346 *  0.230341 *  -2.87073    1.000000    
    279 O2    s    0.088948 *  0.758702 *  0.562584 *  -2.87073    1.000000    
    280 O2    s    0.758895 *  0.666960 *  0.396224 *  -2.87073    1.000000    
    281 O2    s    0.331555 *  0.095813 *  0.728957 *  -2.87073    1.000000    
    282 O3    s    0.898444 *  0.233672 *  0.057146 *  -3.33043    1.000000    
    283 O2    s    0.331791 *  0.242249 *  0.431370 *  -2.87073    1.000000    
    284 O2    s    0.904746 *  0.663474 *  0.096359 *  -2.87073    1.000000    
    285 O2    s    0.757304 *  0.094081 *  0.763836 *  -2.87073    1.000000    
    286 O2    s    0.667348 *  0.754432 *  0.928858 *  -2.87073    1.000000    
    287 O2    s    0.090613 *  0.333776 *  0.598291 *  -2.87073    1.000000    
    288 O2    s    0.240104 *  0.908285 *  0.267206 *  -2.87073    1.000000    
    289 O2    s    0.581214 *  0.555803 *  0.980855 *  -2.87073    1.000000    
    290 O2    s    0.441241 *  0.020524 *  0.320731 *  -2.87073    1.000000    
    291 O2    s    0.974900 *  0.419047 *  0.651134 *  -2.87073    1.000000    
    292 O2    s    0.415131 *  0.442312 *  0.483695 *  -2.87073    1.000000    
    293 O2    s    0.558203 *  0.980597 *  0.816977 *  -2.87073    1.000000    
    294 O2    s    0.017567 *  0.576587 *  0.147103 *  -2.87073    1.000000    
    295 O2    s    0.559026 *  0.582540 *  0.343073 *  -2.87073    1.000000    
    296 O2    s    0.018772 *  0.439507 *  0.008966 *  -2.87073    1.000000    
    297 O2    s    0.411744 *  0.975620 *  0.675909 *  -2.87073    1.000000    
    298 O3    s    0.420397 *  0.405754 *  0.832820 *  -3.33043    1.000000    
    299 O2    s    0.973975 *  0.559895 *  0.509884 *  -2.87073    1.000000    
    300 O2    s    0.585169 *  0.030086 *  0.179194 *  -2.87073    1.000000    
    301 O2    s    0.576430 *  0.154079 *  0.251492 *  -2.87073    1.000000    
    302 O2    s    0.843747 *  0.423957 *  0.580722 *  -2.87073    1.000000    
    303 O3    s    0.581898 *  0.408305 *  0.917276 *  -3.33043    1.000000    
    304 O2    s    0.419702 *  0.846806 *  0.746516 *  -2.87073    1.000000    
    305 O2    s    0.150412 *  0.578049 *  0.077758 *  -2.87073    1.000000    
    306 O2    s    0.420184 *  0.576837 *  0.413114 *  -2.87073    1.000000    
    307 F     s    0.449341 *  0.902539 *  0.247667 *  -1.56000    1.000000    
    308 F     s    0.095118 *  0.547946 *  0.579580 *  -1.56000    1.000000    
    309 F     s    0.480370 *  0.524267 *  0.899062 *  -1.56000    1.000000    
    310 F     s    0.542695 *  0.090777 *  0.745676 *  -1.56000    1.000000    
    311 F     s    0.853892 *  0.425413 *  0.070556 *  -1.56000    1.000000    
    312 F     s    0.548076 *  0.451931 *  0.412702 *  -1.56000    1.000000    
--------------------------------------------------------------------------------



********************************************************************************
*  General input information                                                   *
********************************************************************************

  Species output for all configurations : 

--------------------------------------------------------------------------------
  Species    Type    Atomic    Atomic    Charge       Radii (Angs)     Library
                     Number     Mass       (e)     Cova   Ionic  VDW   Symbol
--------------------------------------------------------------------------------
    Si       Core       14      28.09   4.000000   1.200  0.000  2.100          
    O1       Core        8      16.00   1.733957   0.730  0.000  1.360          
    O1       Shell       8       0.00  -3.733957   0.730  0.000  1.360          
    O2       Core        8      16.00   0.870733   0.730  0.000  1.360          
    O2       Shell       8       0.00  -2.870733   0.730  0.000  1.360          
    O3       Core        8      16.00   1.330431   0.730  0.000  1.360          
    O3       Shell       8       0.00  -3.330431   0.730  0.000  1.360          
    F        Core        9      19.00   0.560000   0.710  0.000  1.300          
    F        Shell       9       0.00  -1.560000   0.710  0.000  1.300          
    Ge       Core       32      72.61   4.000000   1.170  0.000  1.750          
--------------------------------------------------------------------------------


  Lattice summation method               =    Ewald          (3-D)
                                         =    Parry          (2-D)
                                         =    Saunders et al (1-D)
  Accuracy factor for lattice sums       =   12.000


  Time limit = Infinity

  Maximum range for interatomic potentials =        16.000000 Angstroms

  Taper potentials to zero over   1.0000 Angstroms using polynomial

  General interatomic potentials :

--------------------------------------------------------------------------------
Atom  Types   Potential         A         B         C         D     Cutoffs(Ang)
  1     2                                                            Min    Max 
--------------------------------------------------------------------------------
Si   c O1   s Buckingham    0.132E+04 0.318      10.1      0.00     0.000 16.000
Si   c O2   s Buckingham    0.132E+04 0.318      10.1      0.00     0.000 16.000
Si   c O3   s Buckingham    0.132E+04 0.318      10.1      0.00     0.000 16.000
Ge   c O1   s Buckingham    0.150E+04 0.326      16.8      0.00     0.000 16.000
Ge   c O2   s Buckingham    0.150E+04 0.326      16.8      0.00     0.000 16.000
Ge   c O3   s Buckingham    0.150E+04 0.326      16.8      0.00     0.000 16.000
O1   s O1   s Buckingham    0.228E+05 0.149      10.9      0.00     0.000 16.000
O1   s O2   s Buckingham    0.228E+05 0.149      10.9      0.00     0.000 16.000
O1   s O3   s Buckingham    0.228E+05 0.149      10.9      0.00     0.000 16.000
O2   s O2   s Buckingham    0.228E+05 0.149      10.9      0.00     0.000 16.000
O2   s O3   s Buckingham    0.228E+05 0.149      10.9      0.00     0.000 16.000
O3   s O3   s Buckingham    0.228E+05 0.149      10.9      0.00     0.000 16.000
Si   c F    s Buckingham     977.     0.282      0.00      0.00     0.000 16.000
Ge   c F    s Buckingham     681.     0.320      0.00      0.00     0.000 16.000
F    s F    s Buckingham     540.     0.262      0.00      0.00     0.000 16.000
O1   s F    s Buckingham    0.168E+04 0.268      0.00      0.00     0.000 16.000
O2   s F    s Buckingham    0.168E+04 0.268      0.00      0.00     0.000 16.000
O3   s F    s Buckingham    0.168E+04 0.268      0.00      0.00     0.000 16.000
O2   c O2   s Spring (c-s)   76.0      0.00      0.00      0.00     0.000  0.800
O3   c O3   s Spring (c-s)   128.      0.00      0.00      0.00     0.000  0.800
O1   c O1   s Spring (c-s)   180.      0.00      0.00      0.00     0.000  0.800
F    c F    s Spring (c-s)   33.5      0.00      0.00      0.00     0.000  0.800
--------------------------------------------------------------------------------

  General Three-body potentials :

  Harmonic form:

--------------------------------------------------------------------------------
Atom    Atom    Atom           Force Constants            Theta     Cutoffs  
  1       2       3     (eVrad**-2/eVrad**-3/eVrad**-4)   (deg)  1-2  1-3  2-3
--------------------------------------------------------------------------------
Si    c O1    s O1    s  1.261        0.0000    0.0000   109.470 0.00 0.00 0.00
                                                                 1.90 1.90 3.50
Si    c O1    s O2    s  1.261        0.0000    0.0000   109.470 0.00 0.00 0.00
                                                                 1.90 1.90 3.50
Si    c O2    s O2    s  1.261        0.0000    0.0000   109.470 0.00 0.00 0.00
                                                                 1.90 1.90 3.50
--------------------------------------------------------------------------------

********************************************************************************
*  Output for configuration   1                                                *
********************************************************************************


  Components of energy : 

--------------------------------------------------------------------------------
  Interatomic potentials     =        2064.02488109 eV
  Three-body potentials      =           0.44443830 eV
  Monopole - monopole (real) =       -6612.85693546 eV
  Monopole - monopole (recip)=       -3171.89182319 eV
  Monopole - monopole (total)=       -9784.74875865 eV
  Neutralising energy        =          -6.46114982 eV
--------------------------------------------------------------------------------
  Total lattice energy       =       -7726.74058907 eV
--------------------------------------------------------------------------------
  Total lattice energy       =         -745512.3528 kJ/(mole unit cells)
--------------------------------------------------------------------------------


  Number of variables =      939

  Maximum number of calculations  =          5000
  Maximum Hessian update interval =            10
  Maximum step size               =   0.100000000
  Maximum parameter tolerance     =   0.000010000
  Maximum function  tolerance     =   0.000010000
  Maximum gradient  tolerance     =   0.001000000
  Maximum gradient  component     =   0.010000000

  Symmetry not applied to optimisation

  Cell parameters to be optimised using strains

  Newton-Raphson optimiser to be used

  BFGS hessian update to be used

  Dumpfile to be written after every cycle

  Start of bulk optimisation :

  Cycle:      0 Energy:     -7726.740589  Gnorm:      0.016797  CPU:    2.030
  ** Hessian calculated **
  Cycle:      1 Energy:     -7726.741143  Gnorm:      0.005745  CPU:    5.227
  Cycle:      2 Energy:     -7726.741262  Gnorm:      0.003506  CPU:    8.047
  Cycle:      3 Energy:     -7726.741449  Gnorm:      0.001948  CPU:   12.901
  Cycle:      4 Energy:     -7726.741652  Gnorm:      0.003964  CPU:   17.077
  Cycle:      5 Energy:     -7726.741920  Gnorm:      0.006329  CPU:   21.253
  Cycle:      6 Energy:     -7726.742368  Gnorm:      0.009344  CPU:   26.108
  Cycle:      7 Energy:     -7726.742931  Gnorm:      0.011798  CPU:   30.283
  Cycle:      8 Energy:     -7726.743691  Gnorm:      0.014241  CPU:   34.459
  Cycle:      9 Energy:     -7726.744730  Gnorm:      0.016219  CPU:   38.635
  Cycle:     10 Energy:     -7726.746100  Gnorm:      0.017059  CPU:   42.815
  ** Hessian calculated **
  Cycle:     11 Energy:     -7726.746965  Gnorm:      0.005843  CPU:   48.005
  Cycle:     12 Energy:     -7726.747316  Gnorm:      0.004085  CPU:   51.505
  Cycle:     13 Energy:     -7726.747730  Gnorm:      0.003961  CPU:   55.684
  Cycle:     14 Energy:     -7726.748178  Gnorm:      0.005174  CPU:   59.862
  Cycle:     15 Energy:     -7726.748506  Gnorm:      0.005083  CPU:   63.364
  Cycle:     16 Energy:     -7726.748763  Gnorm:      0.004084  CPU:   66.864
  Cycle:     17 Energy:     -7726.749004  Gnorm:      0.003148  CPU:   70.363
  Cycle:     18 Energy:     -7726.749284  Gnorm:      0.002838  CPU:   74.543
  Cycle:     19 Energy:     -7726.749625  Gnorm:      0.003632  CPU:   78.720
  Cycle:     20 Energy:     -7726.750088  Gnorm:      0.005101  CPU:   82.899
  ** Hessian calculated **
  Cycle:     21 Energy:     -7726.750748  Gnorm:      0.005092  CPU:   88.767
  Cycle:     22 Energy:     -7726.751866  Gnorm:      0.005076  CPU:   93.628
  Cycle:     23 Energy:     -7726.753600  Gnorm:      0.005051  CPU:   98.484
  Cycle:     24 Energy:     -7726.756209  Gnorm:      0.005014  CPU:  103.342
  Cycle:     25 Energy:     -7726.759442  Gnorm:      0.004965  CPU:  107.521
  Cycle:     26 Energy:     -7726.764844  Gnorm:      0.004881  CPU:  112.379
  Cycle:     27 Energy:     -7726.773016  Gnorm:      0.004746  CPU:  117.234
  Cycle:     28 Energy:     -7726.782894  Gnorm:      0.004569  CPU:  121.414
  Cycle:     29 Energy:     -7726.798659  Gnorm:      0.004257  CPU:  126.275
  Cycle:     30 Energy:     -7726.817037  Gnorm:      0.003842  CPU:  130.453
  ** Hessian calculated **
  Cycle:     31 Energy:     -7726.840977  Gnorm:      0.003189  CPU:  136.321
  Cycle:     32 Energy:     -7726.866320  Gnorm:      0.002370  CPU:  140.501
  Cycle:     33 Energy:     -7726.883624  Gnorm:      0.001585  CPU:  144.681
  Cycle:     34 Energy:     -7726.887529  Gnorm:      0.000963  CPU:  148.863
  Cycle:     35 Energy:     -7726.888476  Gnorm:      0.000530  CPU:  153.044
  Cycle:     36 Energy:     -7726.888712  Gnorm:      0.000271  CPU:  157.225
  Cycle:     37 Energy:     -7726.888771  Gnorm:      0.000143  CPU:  161.403
  Cycle:     38 Energy:     -7726.888781  Gnorm:      0.000098  CPU:  164.228
  Cycle:     39 Energy:     -7726.888786  Gnorm:      0.000070  CPU:  167.052
  Cycle:     40 Energy:     -7726.888789  Gnorm:      0.000047  CPU:  169.873
  ** Hessian calculated **
  Cycle:     41 Energy:     -7726.888789  Gnorm:      0.000028  CPU:  174.383


  **** Optimisation achieved ****


  Final energy =   -7726.88878883 eV
  Final Gnorm  =       0.00002147

  Components of energy : 

--------------------------------------------------------------------------------
  Interatomic potentials     =        2064.33183958 eV
  Three-body potentials      =           0.45391794 eV
  Monopole - monopole (real) =       -6614.76692828 eV
  Monopole - monopole (recip)=       -3170.44940010 eV
  Monopole - monopole (total)=       -9785.21632837 eV
  Neutralising energy        =          -6.45821799 eV
--------------------------------------------------------------------------------
  Total lattice energy       =       -7726.88878883 eV
--------------------------------------------------------------------------------
  Total lattice energy       =         -745526.6518 kJ/(mole unit cells)
--------------------------------------------------------------------------------

  Final fractional coordinates of atoms :

--------------------------------------------------------------------------------
   No.  Atomic        x           y          z          Radius
        Label       (Frac)      (Frac)     (Frac)       (Angs) 
--------------------------------------------------------------------------------
     1  Ge    c     0.699600    0.375700    0.033890    0.000000
     2  Si    c     0.596373    0.308901    0.362558    0.000000
     3  Si    c     0.649019    0.283786    0.694092    0.000000
     4  Si    c     0.267252    0.604826    0.526761    0.000000
     5  Si    c     0.358956    0.662574    0.856249    0.000000
     6  Si    c     0.304857    0.697116    0.194280    0.000000
     7  Si    c     0.353874    0.685041    0.294582    0.000000
     8  Si    c     0.307032    0.606514    0.958589    0.000000
     9  Si    c     0.271936    0.662477    0.627425    0.000000
    10  Si    c     0.598098    0.290337    0.795934    0.000000
    11  Si    c     0.649162    0.366469    0.462911    0.000000
    12  Si    c     0.670000    0.308667    0.132399    0.000000
    13  Si    c     0.521608    0.398462    0.963649    0.000000
    14  Si    c     0.559450    0.095641    0.300234    0.000000
    15  Si    c     0.859713    0.457001    0.629535    0.000000
    16  Si    c     0.438361    0.566695    0.460658    0.000000
    17  Si    c     0.394660    0.876071    0.793505    0.000000
    18  Si    c     0.099836    0.521628    0.127126    0.000000
    19  Si    c     0.389864    0.510847    0.358909    0.000000
    20  Si    c     0.094536    0.571365    0.023914    0.000000
    21  Si    c     0.443928    0.874070    0.692172    0.000000
    22  Ge    c     0.551485    0.459871    0.863872    0.000000
    23  Si    c     0.859689    0.404559    0.527930    0.000000
    24  Si    c     0.508029    0.101995    0.198928    0.000000
    25  Si    c     0.278696    0.380854    0.838885    0.000000
    26  Si    c     0.583290    0.897702    0.180839    0.000000
    27  Si    c     0.065967    0.682947    0.512660    0.000000
    28  Si    c     0.672023    0.583753    0.345804    0.000000
    29  Si    c     0.371597    0.081671    0.678630    0.000000
    30  Si    c     0.880440    0.284589    0.007593    0.000000
    31  Si    c     0.368608    0.287583    0.475510    0.000000
    32  Si    c     0.881368    0.589711    0.141988    0.000000
    33  Si    c     0.674371    0.085621    0.808255    0.000000
    34  Si    c     0.590043    0.685080    0.973552    0.000000
    35  Si    c     0.070973    0.385653    0.642746    0.000000
    36  Si    c     0.277588    0.885801    0.311984    0.000000
    37  Si    c     0.239829    0.323952    0.942020    0.000000
    38  Si    c     0.636215    0.895239    0.281657    0.000000
    39  Si    c     0.060635    0.734129    0.613400    0.000000
    40  Si    c     0.719335    0.645257    0.446459    0.000000
    41  Si    c     0.317125    0.076644    0.779489    0.000000
    42  Ge    c     0.889487    0.239389    0.112059    0.000000
    43  Si    c     0.313152    0.234066    0.374737    0.000000
    44  Si    c     0.895141    0.658257    0.039868    0.000000
    45  Si    c     0.721770    0.075483    0.707655    0.000000
    46  Si    c     0.647891    0.737951    0.871237    0.000000
    47  Si    c     0.060621    0.325572    0.542102    0.000000
    48  Si    c     0.228817    0.900589    0.211539    0.000000
    49  Si    c     0.958937    0.111271    0.957990    0.000000
    50  Si    c     0.852453    0.829997    0.295285    0.000000
    51  Si    c     0.123517    0.013527    0.626875    0.000000
    52  Si    c     0.998782    0.863412    0.461526    0.000000
    53  Si    c     0.095042    0.135604    0.791352    0.000000
    54  Si    c     0.829682    0.959641    0.128302    0.000000
    55  Si    c     0.096046    0.953800    0.360860    0.000000
    56  Si    c     0.835121    0.874806    0.025882    0.000000
    57  Si    c     0.001655    0.136278    0.691098    0.000000
    58  Si    c     0.857198    0.020459    0.857858    0.000000
    59  Si    c     0.121091    0.106536    0.526223    0.000000
    60  Si    c     0.948036    0.834620    0.194198    0.000000
    61  O2    c     0.913708    0.995003    0.993204    0.000000
    62  O2    c     0.977149    0.910206    0.326478    0.000000
    63  O2    c     0.040815    0.057673    0.656878    0.000000
    64  O2    c     0.040446    0.986766    0.492934    0.000000
    65  O2    c     0.974352    0.057209    0.823956    0.000000
    66  O2    c     0.903396    0.906063    0.158991    0.000000
    67  O2    c     0.314249    0.559882    0.325633    0.000000
    68  O2    c     0.395675    0.748621    0.659645    0.000000
    69  O2    c     0.220460    0.642509    0.991435    0.000000
    70  O3    c     0.636698    0.407883    0.827684    0.000000
    71  O2    c     0.558079    0.232051    0.169889    0.000000
    72  O2    c     0.732506    0.327938    0.496037    0.000000
    73  O3    c     0.559004    0.330955    0.001610    0.000000
    74  O2    c     0.734153    0.407536    0.661823    0.000000
    75  O2    c     0.636402    0.220372    0.332428    0.000000
    76  O2    c     0.388735    0.642785    0.492860    0.000000
    77  O2    c     0.225302    0.578259    0.159429    0.000000
    78  O2    c     0.319845    0.749761    0.825856    0.000000
    79  O2    c     0.113655    0.199655    0.962877    0.000000
    80  O2    c     0.761401    0.893023    0.302008    0.000000
    81  O2    c     0.060919    0.860383    0.633273    0.000000
    82  O2    c     0.844031    0.772819    0.466420    0.000000
    83  O2    c     0.190199    0.077763    0.799180    0.000000
    84  O3    c     0.898501    0.110564    0.135117    0.000000
    85  O2    c     0.187323    0.106993    0.354809    0.000000
    86  O2    c     0.910394    0.794204    0.023703    0.000000
    87  O2    c     0.847560    0.075607    0.686429    0.000000
    88  O2    c     0.765760    0.869121    0.852089    0.000000
    89  O2    c     0.057670    0.197720    0.522315    0.000000
    90  O2    c     0.103528    0.903712    0.191429    0.000000
    91  O2    c     0.899565    0.843594    0.243753    0.000000
    92  O2    c     0.111846    0.049730    0.575646    0.000000
    93  O2    c     0.915642    0.054523    0.908194    0.000000
    94  O2    c     0.043352    0.116618    0.740483    0.000000
    95  O2    c     0.836047    0.924714    0.076259    0.000000
    96  O2    c     0.038832    0.915024    0.410793    0.000000
    97  O2    c     0.893550    0.197240    0.968557    0.000000
    98  O2    c     0.771551    0.679324    0.307432    0.000000
    99  O2    c     0.274493    0.083932    0.640199    0.000000
   100  O2    c     0.067749    0.781273    0.474326    0.000000
   101  O2    c     0.167547    0.286959    0.803069    0.000000
   102  O2    c     0.678359    0.898204    0.141421    0.000000
   103  O2    c     0.179305    0.883780    0.350516    0.000000
   104  O2    c     0.685344    0.784923    0.011888    0.000000
   105  O2    c     0.072600    0.288433    0.680672    0.000000
   106  O2    c     0.774556    0.090336    0.847146    0.000000
   107  O2    c     0.272419    0.189894    0.513614    0.000000
   108  O2    c     0.886963    0.684769    0.181880    0.000000
   109  O2    c     0.300271    0.632958    0.243429    0.000000
   110  O2    c     0.327512    0.661956    0.576748    0.000000
   111  O2    c     0.307672    0.658453    0.907962    0.000000
   112  O2    c     0.647947    0.339050    0.744024    0.000000
   113  O3    c     0.607224    0.297854    0.084116    0.000000
   114  O2    c     0.652959    0.310477    0.412872    0.000000
   115  O2    c     0.361822    0.315524    0.960574    0.000000
   116  O2    c     0.646442    0.025803    0.301558    0.000000
   117  O2    c     0.928653    0.612668    0.632086    0.000000
   118  O2    c     0.594945    0.654569    0.463368    0.000000
   119  O2    c     0.304868    0.942619    0.797227    0.000000
   120  O3    c     0.036353    0.369797    0.127894    0.000000
   121  O2    c     0.302701    0.355269    0.355420    0.000000
   122  O2    c     0.024707    0.657419    0.021959    0.000000
   123  O2    c     0.600658    0.943434    0.688533    0.000000
   124  O3    c     0.666854    0.625548    0.852705    0.000000
   125  O2    c     0.927722    0.316401    0.523955    0.000000
   126  O2    c     0.351516    0.032631    0.194005    0.000000
   127  O3    c     0.750029    0.284791    0.999435    0.000000
   128  O2    c     0.671819    0.449600    0.338699    0.000000
   129  O2    c     0.506163    0.214092    0.670810    0.000000
   130  O2    c     0.199256    0.680575    0.504536    0.000000
   131  O2    c     0.283294    0.518886    0.835502    0.000000
   132  O2    c     0.448150    0.766431    0.171901    0.000000
   133  O2    c     0.277197    0.751517    0.317339    0.000000
   134  O2    c     0.452179    0.681044    0.978990    0.000000
   135  O2    c     0.204892    0.519741    0.649623    0.000000
   136  O2    c     0.673428    0.217515    0.815383    0.000000
   137  O2    c     0.504203    0.290599    0.483891    0.000000
   138  O2    c     0.745486    0.459468    0.148806    0.000000
   139  O3    c     0.767897    0.543320    0.019932    0.000000
   140  O2    c     0.439896    0.232786    0.355994    0.000000
   141  O2    c     0.723991    0.202528    0.688837    0.000000
   142  O2    c     0.186971    0.449284    0.521917    0.000000
   143  O2    c     0.513889    0.728350    0.853447    0.000000
   144  O2    c     0.225117    0.774233    0.190381    0.000000
   145  O2    c     0.509988    0.768112    0.299604    0.000000
   146  O2    c     0.243926    0.453018    0.960600    0.000000
   147  O2    c     0.187761    0.734494    0.632213    0.000000
   148  O2    c     0.441333    0.199355    0.800222    0.000000
   149  O2    c     0.720305    0.521691    0.467162    0.000000
   150  O3    c     0.762657    0.245343    0.136541    0.000000
   151  O2    c     0.220520    0.311464    0.887916    0.000000
   152  O2    c     0.656289    0.898280    0.227261    0.000000
   153  O2    c     0.061196    0.752549    0.559043    0.000000
   154  O2    c     0.740964    0.659614    0.392123    0.000000
   155  O2    c     0.298373    0.078894    0.725154    0.000000
   156  O3    c     0.881142    0.214461    0.054557    0.000000
   157  O2    c     0.295037    0.216896    0.428977    0.000000
   158  O2    c     0.890787    0.662750    0.095162    0.000000
   159  O2    c     0.743440    0.077339    0.761892    0.000000
   160  O2    c     0.658892    0.750979    0.926450    0.000000
   161  O2    c     0.064862    0.310266    0.596340    0.000000
   162  O2    c     0.208601    0.895177    0.265820    0.000000
   163  O2    c     0.569932    0.545367    0.981943    0.000000
   164  O2    c     0.417720    0.007833    0.322391    0.000000
   165  O2    c     0.946363    0.401563    0.651968    0.000000
   166  O2    c     0.381957    0.426353    0.483494    0.000000
   167  O2    c     0.535722    0.958638    0.817286    0.000000
   168  O2    c     0.999397    0.561985    0.147604    0.000000
   169  O2    c     0.532102    0.569452    0.336011    0.000000
   170  O2    c     0.006273    0.428624    0.004328    0.000000
   171  O2    c     0.383199    0.955250    0.669034    0.000000
   172  O3    c     0.410330    0.387691    0.827207    0.000000
   173  O2    c     0.940290    0.544237    0.503886    0.000000
   174  O2    c     0.570268    0.024247    0.173868    0.000000
   175  O2    c     0.558291    0.150110    0.250068    0.000000
   176  O2    c     0.806546    0.404382    0.578644    0.000000
   177  O3    c     0.578088    0.394920    0.914874    0.000000
   178  O2    c     0.391919    0.819389    0.742989    0.000000
   179  O2    c     0.142431    0.571875    0.075456    0.000000
   180  O2    c     0.386291    0.564313    0.409326    0.000000
   181  F     c     0.427342    0.889979    0.244897    0.000000
   182  F     c     0.067931    0.532990    0.576446    0.000000
   183  F     c     0.458403    0.515506    0.899331    0.000000
   184  F     c     0.518850    0.074153    0.742443    0.000000
   185  F     c     0.847623    0.424057    0.069799    0.000000
   186  F     c     0.519939    0.435566    0.409313    0.000000
   187  O2    s     0.909809    0.994253    0.993013    0.000000
   188  O2    s     0.976317    0.905999    0.326787    0.000000
   189  O2    s     0.045785    0.061494    0.657322    0.000000
   190  O2    s     0.044686    0.986190    0.493095    0.000000
   191  O2    s     0.974715    0.062001    0.824127    0.000000
   192  O2    s     0.900213    0.903949    0.159552    0.000000
   193  O2    s     0.326022    0.567930    0.325759    0.000000
   194  O2    s     0.387693    0.752326    0.659570    0.000000
   195  O2    s     0.216363    0.631414    0.991396    0.000000
   196  O3    s     0.626615    0.398262    0.826584    0.000000
   197  O2    s     0.564300    0.226297    0.169078    0.000000
   198  O2    s     0.736792    0.339864    0.495813    0.000000
   199  O3    s     0.565159    0.341434    0.999874    0.000000
   200  O2    s     0.738685    0.400222    0.661709    0.000000
   201  O2    s     0.624286    0.216273    0.332112    0.000000
   202  O2    s     0.381605    0.630992    0.492943    0.000000
   203  O2    s     0.219904    0.584286    0.159521    0.000000
   204  O2    s     0.331404    0.753059    0.825882    0.000000
   205  O2    s     0.110031    0.202938    0.960240    0.000000
   206  O2    s     0.758006    0.886538    0.299186    0.000000
   207  O2    s     0.067488    0.863471    0.630568    0.000000
   208  O2    s     0.847507    0.769214    0.463862    0.000000
   209  O2    s     0.193066    0.083809    0.796359    0.000000
   210  O3    s     0.890763    0.104981    0.132672    0.000000
   211  O2    s     0.190588    0.103857    0.357462    0.000000
   212  O2    s     0.900900    0.788728    0.025586    0.000000
   213  O2    s     0.851229    0.082169    0.689100    0.000000
   214  O2    s     0.763128    0.871832    0.854820    0.000000
   215  O2    s     0.064720    0.201141    0.524732    0.000000
   216  O2    s     0.099833    0.896011    0.193781    0.000000
   217  O2    s     0.899843    0.841070    0.243868    0.000000
   218  O2    s     0.114210    0.052189    0.575728    0.000000
   219  O2    s     0.914152    0.057271    0.908347    0.000000
   220  O2    s     0.044498    0.121035    0.740665    0.000000
   221  O2    s     0.835249    0.922993    0.076390    0.000000
   222  O2    s     0.040893    0.913694    0.410751    0.000000
   223  O2    s     0.899380    0.197063    0.971514    0.000000
   224  O2    s     0.770145    0.685713    0.309997    0.000000
   225  O2    s     0.268081    0.076132    0.642650    0.000000
   226  O2    s     0.060199    0.780107    0.476831    0.000000
   227  O2    s     0.171116    0.280538    0.805454    0.000000
   228  O2    s     0.684249    0.904529    0.144130    0.000000
   229  O2    s     0.180662    0.891345    0.347638    0.000000
   230  O2    s     0.691518    0.784287    0.009465    0.000000
   231  O2    s     0.065023    0.282454    0.677890    0.000000
   232  O2    s     0.773503    0.082386    0.844460    0.000000
   233  O2    s     0.266299    0.191197    0.510981    0.000000
   234  O2    s     0.892935    0.690770    0.178981    0.000000
   235  O2    s     0.306147    0.644784    0.243570    0.000000
   236  O2    s     0.315771    0.656174    0.576753    0.000000
   237  O2    s     0.312702    0.653393    0.908140    0.000000
   238  O2    s     0.643151    0.328369    0.743788    0.000000
   239  O3    s     0.619979    0.304067    0.085908    0.000000
   240  O2    s     0.646675    0.316097    0.412762    0.000000
   241  O2    s     0.363238    0.324221    0.958785    0.000000
   242  O2    s     0.636410    0.019290    0.299323    0.000000
   243  O2    s     0.935409    0.609456    0.629860    0.000000
   244  O2    s     0.591935    0.644540    0.461290    0.000000
   245  O2    s     0.315331    0.949400    0.795031    0.000000
   246  O3    s     0.031258    0.374978    0.126568    0.000000
   247  O2    s     0.312679    0.358627    0.357777    0.000000
   248  O2    s     0.019191    0.648487    0.023947    0.000000
   249  O2    s     0.597123    0.950039    0.690909    0.000000
   250  O3    s     0.657156    0.626738    0.855479    0.000000
   251  O2    s     0.934640    0.326452    0.526271    0.000000
   252  O2    s     0.354609    0.025756    0.196371    0.000000
   253  O3    s     0.760798    0.290833    0.002666    0.000000
   254  O2    s     0.664152    0.449237    0.341893    0.000000
   255  O2    s     0.506600    0.207267    0.674035    0.000000
   256  O2    s     0.192195    0.673050    0.507703    0.000000
   257  O2    s     0.290798    0.520233    0.838052    0.000000
   258  O2    s     0.447487    0.773078    0.175211    0.000000
   259  O2    s     0.285106    0.758863    0.314399    0.000000
   260  O2    s     0.450939    0.673642    0.976291    0.000000
   261  O2    s     0.197686    0.520241    0.646602    0.000000
   262  O2    s     0.666083    0.210091    0.812632    0.000000
   263  O2    s     0.504826    0.298160    0.480785    0.000000
   264  O2    s     0.752764    0.458876    0.146439    0.000000
   265  O3    s     0.777432    0.544827    0.022997    0.000000
   266  O2    s     0.442365    0.240822    0.358634    0.000000
   267  O2    s     0.715862    0.197151    0.691389    0.000000
   268  O2    s     0.181595    0.452057    0.524557    0.000000
   269  O2    s     0.510729    0.722016    0.855565    0.000000
   270  O2    s     0.233762    0.779674    0.192994    0.000000
   271  O2    s     0.507311    0.773323    0.297139    0.000000
   272  O2    s     0.250324    0.456117    0.958467    0.000000
   273  O2    s     0.182585    0.726797    0.629678    0.000000
   274  O2    s     0.443205    0.194571    0.797503    0.000000
   275  O2    s     0.712670    0.518952    0.464489    0.000000
   276  O3    s     0.765090    0.250805    0.134045    0.000000
   277  O2    s     0.228299    0.319578    0.889028    0.000000
   278  O2    s     0.646526    0.897909    0.228094    0.000000
   279  O2    s     0.061628    0.743242    0.559871    0.000000
   280  O2    s     0.731447    0.650131    0.392966    0.000000
   281  O2    s     0.308063    0.078936    0.725940    0.000000
   282  O3    s     0.881701    0.223016    0.055032    0.000000
   283  O2    s     0.304663    0.226130    0.428035    0.000000
   284  O2    s     0.890213    0.654445    0.094643    0.000000
   285  O2    s     0.734040    0.077965    0.760969    0.000000
   286  O2    s     0.650371    0.742564    0.926028    0.000000
   287  O2    s     0.065045    0.319772    0.595381    0.000000
   288  O2    s     0.217917    0.894783    0.264835    0.000000
   289  O2    s     0.567410    0.547323    0.979207    0.000000
   290  O2    s     0.417499    0.003706    0.318931    0.000000
   291  O2    s     0.950954    0.405827    0.648615    0.000000
   292  O2    s     0.386610    0.426051    0.480218    0.000000
   293  O2    s     0.535662    0.963531    0.813875    0.000000
   294  O2    s     0.997095    0.560617    0.144806    0.000000
   295  O2    s     0.532357    0.564738    0.339437    0.000000
   296  O2    s     0.003203    0.429820    0.006810    0.000000
   297  O2    s     0.388413    0.960481    0.672459    0.000000
   298  O3    s     0.404952    0.391791    0.830839    0.000000
   299  O2    s     0.945634    0.544715    0.507306    0.000000
   300  O2    s     0.565162    0.018612    0.177154    0.000000
   301  O2    s     0.553016    0.139178    0.249906    0.000000
   302  O2    s     0.817639    0.409860    0.578592    0.000000
   303  O3    s     0.570609    0.399717    0.916313    0.000000
   304  O2    s     0.397533    0.830820    0.742980    0.000000
   305  O2    s     0.133102    0.566706    0.075410    0.000000
   306  O2    s     0.392002    0.559015    0.409370    0.000000
   307  F     s     0.426883    0.889428    0.244690    0.000000
   308  F     s     0.068294    0.533092    0.576285    0.000000
   309  F     s     0.464647    0.511602    0.896821    0.000000
   310  F     s     0.518577    0.073470    0.742304    0.000000
   311  F     s     0.837562    0.420114    0.067543    0.000000
   312  F     s     0.520150    0.435277    0.409132    0.000000
--------------------------------------------------------------------------------

  Final Cartesian lattice vectors (Angstroms) :

       11.912816   -0.000456   -0.006975
       -5.966517   10.425094    0.008130
        0.001388   -0.093170   29.470140


  Final cell parameters and derivatives :

--------------------------------------------------------------------------------
       a           11.912818 Angstrom     dE/de1(xx)     0.001001 eV/strain
       b           12.011743 Angstrom     dE/de2(yy)     0.000477 eV/strain
       c           29.470288 Angstrom     dE/de3(zz)     0.001631 eV/strain
       alpha       90.119776 Degrees      dE/de4(yz)     0.000029 eV/strain
       beta        90.030842 Degrees      dE/de5(xz)    -0.000165 eV/strain
       gamma      119.785685 Degrees      dE/de6(xy)     0.000026 eV/strain
--------------------------------------------------------------------------------

  Primitive cell volume =          3659.887496 Angs**3

  Density of cell =      1.748166 g/cm**3

  Non-primitive cell volume =          3659.887496 Angs**3


  Final internal derivatives :

--------------------------------------------------------------------------------
   No.  Atomic          a             b             c           Radius
        Label          (eV)          (eV)          (eV)        (eV/Angs)
--------------------------------------------------------------------------------
      1 Ge    c       0.000000      0.000000      0.000000      0.000000
      2 Si    c       0.000024     -0.000034      0.000210      0.000000
      3 Si    c       0.000011      0.000073      0.000500      0.000000
      4 Si    c       0.000047      0.000203     -0.000288      0.000000
      5 Si    c       0.000004      0.000122      0.000142      0.000000
      6 Si    c       0.000190      0.000453      0.000730      0.000000
      7 Si    c      -0.000052      0.000553      0.000341      0.000000
      8 Si    c       0.000138      0.000251     -0.000338      0.000000
      9 Si    c      -0.000102      0.000028     -0.000206      0.000000
     10 Si    c      -0.000218     -0.000393     -0.001064      0.000000
     11 Si    c      -0.000063     -0.000086     -0.000273      0.000000
     12 Si    c       0.001837      0.000590      0.008108      0.000000
     13 Si    c      -0.000711     -0.001913      0.001466      0.000000
     14 Si    c       0.000113      0.000088      0.000208      0.000000
     15 Si    c       0.000095      0.000010      0.000022      0.000000
     16 Si    c      -0.000045      0.000177      0.000576      0.000000
     17 Si    c       0.000258      0.000026     -0.000012      0.000000
     18 Si    c       0.000010      0.000462     -0.000237      0.000000
     19 Si    c       0.000147      0.000226      0.000523      0.000000
     20 Si    c      -0.000015      0.000159      0.001323      0.000000
     21 Si    c       0.000058     -0.000031      0.000107      0.000000
     22 Ge    c      -0.000562      0.000037      0.001357      0.000000
     23 Si    c       0.000096     -0.000004      0.000289      0.000000
     24 Si    c       0.000086     -0.000255      0.000898      0.000000
     25 Si    c       0.000355      0.000045      0.000077      0.000000
     26 Si    c       0.000028      0.000163      0.000050      0.000000
     27 Si    c       0.000102     -0.000070      0.000218      0.000000
     28 Si    c       0.000245     -0.000115      0.000297      0.000000
     29 Si    c      -0.000166      0.000146     -0.000257      0.000000
     30 Si    c       0.003167      0.000349     -0.000664      0.000000
     31 Si    c       0.000015     -0.000179      0.000589      0.000000
     32 Si    c       0.000722     -0.000232     -0.000314      0.000000
     33 Si    c       0.000139     -0.000479      0.000338      0.000000
     34 Si    c      -0.000012      0.000553      0.000570      0.000000
     35 Si    c       0.000046      0.000077     -0.000159      0.000000
     36 Si    c       0.000013      0.000355      0.000245      0.000000
     37 Si    c       0.000077      0.000168     -0.001512      0.000000
     38 Si    c      -0.000193      0.000424     -0.000138      0.000000
     39 Si    c       0.000214     -0.000096     -0.000012      0.000000
     40 Si    c       0.000312      0.000069     -0.000341      0.000000
     41 Si    c       0.000110      0.000190     -0.000317      0.000000
     42 Ge    c       0.001104      0.000690     -0.000661      0.000000
     43 Si    c       0.000155     -0.000190      0.000607      0.000000
     44 Si    c       0.000736     -0.000097     -0.000632      0.000000
     45 Si    c       0.000122     -0.000192      0.000349      0.000000
     46 Si    c      -0.000195     -0.000002     -0.000856      0.000000
     47 Si    c      -0.000066     -0.000026      0.000254      0.000000
     48 Si    c       0.000340      0.000004      0.000419      0.000000
     49 Si    c      -0.000038     -0.000278      0.000693      0.000000
     50 Si    c       0.000640     -0.000028      0.000762      0.000000
     51 Si    c       0.000325      0.000138      0.000700      0.000000
     52 Si    c       0.000364     -0.000068      0.000882      0.000000
     53 Si    c      -0.000162      0.000014     -0.000457      0.000000
     54 Si    c      -0.000594      0.000317      0.000169      0.000000
     55 Si    c       0.000335     -0.000214     -0.000350      0.000000
     56 Si    c      -0.000379      0.000461     -0.001080      0.000000
     57 Si    c       0.000053     -0.000203     -0.000388      0.000000
     58 Si    c       0.000036      0.000323     -0.001015      0.000000
     59 Si    c      -0.000052     -0.000193     -0.000081      0.000000
     60 Si    c       0.000522      0.000049      0.000411      0.000000
     61 O2    c      -0.000208      0.000147      0.000528      0.000000
     62 O2    c      -0.000138     -0.000020      0.000017      0.000000
     63 O2    c       0.000162     -0.000136     -0.000137      0.000000
     64 O2    c       0.000145     -0.000122      0.000215      0.000000
     65 O2    c       0.000401     -0.000070      0.000777      0.000000
     66 O2    c       0.000431      0.000174      0.000516      0.000000
     67 O2    c       0.000081      0.000017      0.000555      0.000000
     68 O2    c       0.000018      0.000088      0.000918      0.000000
     69 O2    c       0.000646     -0.000113      0.000303      0.000000
     70 O3    c       0.000105      0.000185      0.000275      0.000000
     71 O2    c       0.000032     -0.000171     -0.000003      0.000000
     72 O2    c       0.000087      0.000026     -0.000006      0.000000
     73 O3    c       0.001397     -0.002433      0.005710      0.000000
     74 O2    c       0.000135     -0.000061      0.000012      0.000000
     75 O2    c      -0.000140      0.000152     -0.000400      0.000000
     76 O2    c       0.000127     -0.000087      0.000314      0.000000
     77 O2    c       0.000018     -0.000106      0.000219      0.000000
     78 O2    c       0.000247     -0.000125      0.000402      0.000000
     79 O2    c       0.000402      0.000141      0.000440      0.000000
     80 O2    c      -0.000102      0.000233     -0.000328      0.000000
     81 O2    c       0.000133     -0.000175     -0.000126      0.000000
     82 O2    c       0.000032     -0.000190      0.000066      0.000000
     83 O2    c       0.000829     -0.000451      0.000246      0.000000
     84 O3    c       0.000195      0.000363     -0.000229      0.000000
     85 O2    c       0.000288      0.000024      0.000462      0.000000
     86 O2    c       0.001310     -0.001020      0.000185      0.000000
     87 O2    c       0.000136      0.000001      0.000411      0.000000
     88 O2    c      -0.000079     -0.000022      0.000656      0.000000
     89 O2    c       0.000177      0.000075      0.000210      0.000000
     90 O2    c       0.000578     -0.000126      0.000574      0.000000
     91 O2    c       0.000169     -0.000079      0.000853      0.000000
     92 O2    c       0.000011     -0.000029      0.000519      0.000000
     93 O2    c      -0.000142      0.000095     -0.000311      0.000000
     94 O2    c      -0.000144      0.000038     -0.000257      0.000000
     95 O2    c      -0.000039      0.000346      0.000165      0.000000
     96 O2    c       0.000149     -0.000107      0.000115      0.000000
     97 O2    c      -0.000016      0.000072     -0.000743      0.000000
     98 O2    c       0.000022     -0.000319      0.000571      0.000000
     99 O2    c       0.000137     -0.000111      0.000361      0.000000
    100 O2    c       0.000094     -0.000219      0.000323      0.000000
    101 O2    c       0.000138      0.000802      0.000343      0.000000
    102 O2    c      -0.000161      0.000242      0.000232      0.000000
    103 O2    c       0.000103      0.000051     -0.000184      0.000000
    104 O2    c      -0.000441      0.000095     -0.000361      0.000000
    105 O2    c      -0.000016     -0.000060      0.000490      0.000000
    106 O2    c      -0.000309      0.000450      0.000085      0.000000
    107 O2    c       0.000236      0.000024     -0.000182      0.000000
    108 O2    c       0.000347     -0.001074      0.000273      0.000000
    109 O2    c      -0.000076      0.000044      0.000932      0.000000
    110 O2    c      -0.000092     -0.000032      0.000181      0.000000
    111 O2    c       0.000122      0.000158     -0.000037      0.000000
    112 O2    c       0.000125      0.000121     -0.000057      0.000000
    113 O3    c      -0.004257     -0.000775      0.007288      0.000000
    114 O2    c       0.000082     -0.000105      0.000326      0.000000
    115 O2    c      -0.000201      0.000035     -0.000230      0.000000
    116 O2    c      -0.000036      0.000023     -0.000072      0.000000
    117 O2    c       0.000223     -0.000114     -0.000010      0.000000
    118 O2    c       0.000120     -0.000152      0.000279      0.000000
    119 O2    c      -0.000004     -0.000002      0.000328      0.000000
    120 O3    c       0.000240      0.000099      0.000337      0.000000
    121 O2    c       0.000073      0.000003      0.000100      0.000000
    122 O2    c       0.000385      0.000601      0.000814      0.000000
    123 O2    c       0.000048     -0.000257     -0.000082      0.000000
    124 O3    c       0.000258      0.000133     -0.000051      0.000000
    125 O2    c       0.000198      0.000068      0.000151      0.000000
    126 O2    c      -0.000040      0.000013     -0.000115      0.000000
    127 O3    c       0.001731     -0.001725     -0.003418      0.000000
    128 O2    c       0.000112      0.000056     -0.000101      0.000000
    129 O2    c       0.000061      0.000091     -0.000095      0.000000
    130 O2    c      -0.000013     -0.000079      0.000112      0.000000
    131 O2    c      -0.000062      0.000179      0.000054      0.000000
    132 O2    c       0.000019      0.000110      0.000551      0.000000
    133 O2    c       0.000139      0.000118      0.000074      0.000000
    134 O2    c       0.000390     -0.000095      0.000077      0.000000
    135 O2    c      -0.000053     -0.000031      0.000075      0.000000
    136 O2    c       0.000290     -0.000312      0.000376      0.000000
    137 O2    c       0.000132     -0.000047      0.000162      0.000000
    138 O2    c       0.000332     -0.000103      0.001491      0.000000
    139 O3    c       0.000542      0.001862     -0.000715      0.000000
    140 O2    c      -0.000052      0.000012      0.000244      0.000000
    141 O2    c       0.000115     -0.000071     -0.000205      0.000000
    142 O2    c      -0.000063      0.000013      0.000373      0.000000
    143 O2    c       0.000168      0.000100      0.000562      0.000000
    144 O2    c       0.000132     -0.000064      0.000130      0.000000
    145 O2    c      -0.000013      0.000229     -0.000071      0.000000
    146 O2    c       0.000005      0.000156      0.000551      0.000000
    147 O2    c       0.000044      0.000006     -0.000014      0.000000
    148 O2    c       0.000016      0.000137      0.000308      0.000000
    149 O2    c       0.000098     -0.000086      0.000120      0.000000
    150 O3    c       0.000387     -0.000945      0.000216      0.000000
    151 O2    c      -0.000019     -0.000184      0.000178      0.000000
    152 O2    c      -0.000093      0.000207      0.000621      0.000000
    153 O2    c       0.000184     -0.000122     -0.000055      0.000000
    154 O2    c       0.000157     -0.000110      0.000024      0.000000
    155 O2    c      -0.000058      0.000090      0.000407      0.000000
    156 O3    c       0.000553     -0.000513      0.002730      0.000000
    157 O2    c       0.000265     -0.000088      0.000200      0.000000
    158 O2    c       0.000662      0.000528      0.000168      0.000000
    159 O2    c       0.000060      0.000051      0.000324      0.000000
    160 O2    c      -0.000105      0.000175      0.000242      0.000000
    161 O2    c      -0.000041      0.000122      0.000167      0.000000
    162 O2    c      -0.000124     -0.000082     -0.000434      0.000000
    163 O2    c       0.000024      0.000509     -0.000186      0.000000
    164 O2    c       0.000017      0.000164     -0.000175      0.000000
    165 O2    c       0.000138     -0.000114     -0.000066      0.000000
    166 O2    c       0.000213      0.000041      0.000124      0.000000
    167 O2    c       0.000117     -0.000113      0.000041      0.000000
    168 O2    c       0.000553      0.000320      0.000372      0.000000
    169 O2    c       0.000132      0.000007     -0.000152      0.000000
    170 O2    c       0.000540      0.000471      0.000513      0.000000
    171 O2    c       0.000157     -0.000008     -0.000190      0.000000
    172 O3    c       0.000077     -0.000293     -0.000490      0.000000
    173 O2    c       0.000095     -0.000082     -0.000140      0.000000
    174 O2    c      -0.000073     -0.000116     -0.000012      0.000000
    175 O2    c       0.000056      0.000022      0.000405      0.000000
    176 O2    c       0.000128     -0.000117      0.000011      0.000000
    177 O3    c      -0.000081     -0.000344     -0.001507      0.000000
    178 O2    c       0.000145     -0.000176      0.000572      0.000000
    179 O2    c      -0.000009      0.000113      0.000254      0.000000
    180 O2    c       0.000004      0.000132      0.000853      0.000000
    181 F     c       0.000085     -0.000041      0.000179      0.000000
    182 F     c       0.000070     -0.000113      0.000110      0.000000
    183 F     c       0.000154     -0.000030      0.000595      0.000000
    184 F     c       0.000109     -0.000031      0.000233      0.000000
    185 F     c       0.000808     -0.000140     -0.002019      0.000000
    186 F     c       0.000058     -0.000053      0.000267      0.000000
    187 O2    s       0.000521     -0.000431     -0.000140      0.000000
    188 O2    s      -0.000420      0.000526     -0.000392      0.000000
    189 O2    s       0.000332     -0.000089      0.000559      0.000000
    190 O2    s       0.000085     -0.000136      0.000550      0.000000
    191 O2    s       0.000203     -0.000306      0.000300      0.000000
    192 O2    s       0.000094     -0.000134      0.001691      0.000000
    193 O2    s       0.000380     -0.000090      0.000522      0.000000
    194 O2    s       0.000251      0.000290      0.000673      0.000000
    195 O2    s       0.001043     -0.000211      0.000295      0.000000
    196 O3    s       0.000184      0.000230     -0.001048      0.000000
    197 O2    s       0.000730     -0.000121      0.000757      0.000000
    198 O2    s       0.000096     -0.000007      0.000304      0.000000
    199 O3    s       0.002761      0.000652      0.001345      0.000000
    200 O2    s       0.000283     -0.000222     -0.000035      0.000000
    201 O2    s      -0.000183      0.000053     -0.000183      0.000000
    202 O2    s       0.000255     -0.000170      0.000218      0.000000
    203 O2    s       0.000595     -0.000331     -0.000040      0.000000
    204 O2    s       0.000126      0.000085      0.000499      0.000000
    205 O2    s       0.000520     -0.000340      0.000442      0.000000
    206 O2    s       0.000181      0.000169      0.000264      0.000000
    207 O2    s       0.000286     -0.000125      0.000019      0.000000
    208 O2    s      -0.000151     -0.000125      0.000251      0.000000
    209 O2    s       0.000473     -0.000450      0.000856      0.000000
    210 O3    s       0.000457      0.000137      0.000497      0.000000
    211 O2    s       0.000012      0.000313      0.000752      0.000000
    212 O2    s       0.000326     -0.000576     -0.000416      0.000000
    213 O2    s       0.000052     -0.000047      0.000701      0.000000
    214 O2    s       0.000261     -0.000285      0.000928      0.000000
    215 O2    s       0.000186     -0.000033      0.000473      0.000000
    216 O2    s       0.000423      0.000145      0.000396      0.000000
    217 O2    s      -0.000027      0.000744      0.000656      0.000000
    218 O2    s       0.000187      0.000042      0.000330      0.000000
    219 O2    s       0.000069     -0.000301     -0.000265      0.000000
    220 O2    s      -0.000331      0.000070     -0.000598      0.000000
    221 O2    s       0.000169     -0.000464      0.000438      0.000000
    222 O2    s      -0.000036      0.000248      0.000048      0.000000
    223 O2    s       0.000531      0.000243      0.000002      0.000000
    224 O2    s      -0.000311      0.000259      0.001489      0.000000
    225 O2    s       0.000193     -0.000248      0.000872      0.000000
    226 O2    s       0.000180     -0.000087      0.001157      0.000000
    227 O2    s      -0.000149      0.000498      0.000934      0.000000
    228 O2    s      -0.000065     -0.000096      0.001025      0.000000
    229 O2    s       0.000203     -0.000040     -0.000402      0.000000
    230 O2    s       0.000345     -0.001022     -0.001479      0.000000
    231 O2    s       0.000014     -0.000019      0.000053      0.000000
    232 O2    s      -0.000328      0.000372     -0.000646      0.000000
    233 O2    s       0.000192      0.000193     -0.000648      0.000000
    234 O2    s       0.000114     -0.000207     -0.000356      0.000000
    235 O2    s       0.000511     -0.000114      0.000324      0.000000
    236 O2    s       0.000236     -0.000086     -0.000000      0.000000
    237 O2    s       0.000644     -0.000012      0.000090      0.000000
    238 O2    s       0.000298     -0.000422     -0.000373      0.000000
    239 O3    s       0.000451      0.001751      0.001201      0.000000
    240 O2    s       0.000087     -0.000227      0.000057      0.000000
    241 O2    s       0.000033      0.000090      0.000379      0.000000
    242 O2    s       0.000047      0.000049     -0.000091      0.000000
    243 O2    s       0.000049     -0.000020      0.000215      0.000000
    244 O2    s       0.000239     -0.000052      0.000137      0.000000
    245 O2    s       0.000347     -0.000028     -0.000010      0.000000
    246 O3    s       0.000114     -0.000267     -0.000691      0.000000
    247 O2    s       0.000182     -0.000027      0.000502      0.000000
    248 O2    s      -0.000027      0.000574      0.000679      0.000000
    249 O2    s      -0.000008     -0.000074      0.000342      0.000000
    250 O3    s      -0.000036      0.000388      0.000648      0.000000
    251 O2    s       0.000179     -0.000132      0.000496      0.000000
    252 O2    s      -0.000019      0.000170     -0.000066      0.000000
    253 O3    s       0.001244      0.000837     -0.002051      0.000000
    254 O2    s       0.000089      0.000159     -0.000080      0.000000
    255 O2    s       0.000127     -0.000232      0.000150      0.000000
    256 O2    s       0.000263      0.000003      0.000353      0.000000
    257 O2    s       0.000358     -0.000057      0.000954      0.000000
    258 O2    s       0.000516     -0.000214      0.000710      0.000000
    259 O2    s       0.000092      0.000079      0.000453      0.000000
    260 O2    s       0.000363     -0.000209      0.000658      0.000000
    261 O2    s      -0.000028     -0.000297      0.000029      0.000000
    262 O2    s       0.000214     -0.000201     -0.000392      0.000000
    263 O2    s       0.000074      0.000006      0.000256      0.000000
    264 O2    s       0.000089     -0.000842      0.003709      0.000000
    265 O3    s      -0.001159      0.000924     -0.002352      0.000000
    266 O2    s      -0.000032      0.000168      0.000022      0.000000
    267 O2    s      -0.000018     -0.000056      0.000525      0.000000
    268 O2    s       0.000266     -0.000120      0.000500      0.000000
    269 O2    s       0.000395     -0.000212      0.000270      0.000000
    270 O2    s       0.000387      0.000233      0.000336      0.000000
    271 O2    s       0.000243     -0.000077      0.000013      0.000000
    272 O2    s       0.000348     -0.000222      0.000168      0.000000
    273 O2    s      -0.000016      0.000030      0.000252      0.000000
    274 O2    s       0.000638     -0.000459     -0.000868      0.000000
    275 O2    s       0.000033     -0.000034      0.000376      0.000000
    276 O3    s      -0.000260      0.000332      0.000535      0.000000
    277 O2    s       0.000065      0.000033      0.000570      0.000000
    278 O2    s       0.000362     -0.000154      0.000223      0.000000
    279 O2    s       0.000039      0.000240     -0.000024      0.000000
    280 O2    s      -0.000141      0.000339      0.000552      0.000000
    281 O2    s       0.000302     -0.000240      0.000166      0.000000
    282 O3    s       0.000532      0.001220      0.001767      0.000000
    283 O2    s      -0.000117      0.000120     -0.000217      0.000000
    284 O2    s       0.000236      0.001252     -0.000396      0.000000
    285 O2    s      -0.000070      0.000143      0.000139      0.000000
    286 O2    s       0.000770     -0.000416      0.000470      0.000000
    287 O2    s       0.000101     -0.000075     -0.000468      0.000000
    288 O2    s       0.000051      0.000125     -0.000101      0.000000
    289 O2    s       0.000755      0.000145      0.000816      0.000000
    290 O2    s      -0.000099      0.000132      0.000160      0.000000
    291 O2    s       0.000103     -0.000143      0.000162      0.000000
    292 O2    s       0.000072     -0.000211      0.000374      0.000000
    293 O2    s       0.000060      0.000327     -0.000240      0.000000
    294 O2    s       0.000427      0.000204      0.000043      0.000000
    295 O2    s       0.000192      0.000239      0.000460      0.000000
    296 O2    s       0.000493     -0.000573      0.001293      0.000000
    297 O2    s       0.000130     -0.000138      0.000454      0.000000
    298 O3    s      -0.000331      0.000554      0.000846      0.000000
    299 O2    s       0.000144      0.000150      0.000290      0.000000
    300 O2    s       0.000035      0.000151     -0.000602      0.000000
    301 O2    s       0.000178      0.000206      0.000264      0.000000
    302 O2    s       0.000122     -0.000129     -0.000105      0.000000
    303 O3    s       0.000005      0.000002     -0.000401      0.000000
    304 O2    s      -0.000091      0.000107      0.000117      0.000000
    305 O2    s       0.000607     -0.000060      0.000245      0.000000
    306 O2    s       0.000436      0.000089      0.000555      0.000000
    307 F     s       0.000079     -0.000063      0.000173      0.000000
    308 F     s       0.000167     -0.000112      0.000216      0.000000
    309 F     s       0.000253      0.000070     -0.000443      0.000000
    310 F     s       0.000039     -0.000046      0.000264      0.000000
    311 F     s       0.000136     -0.001069     -0.001821      0.000000
    312 F     s      -0.000056      0.000103      0.000335      0.000000
--------------------------------------------------------------------------------
  Maximum abs         0.004257      0.002433      0.008108      0.000000
--------------------------------------------------------------------------------


  Time to end of optimisation =     177.2070 seconds


  Peak dynamic memory used =      19.13 MB 


  Timing analysis for GULP :

--------------------------------------------------------------------------------
  Task / Subroutine                                          Time (Seconds)
--------------------------------------------------------------------------------
  Calculation of reciprocal space energy and derivatives          4.2542
  Calculation of real space energy and derivatives              155.0346
  Calculation of three-body energy and derivatives               15.8242
  Calculation of matrix inversion                                 1.8600
  Global summation overhead                                       0.0003
--------------------------------------------------------------------------------
  Total CPU time                                                177.2070
--------------------------------------------------------------------------------


  Dump file written as out.res                                                 
  CIF file written as out.cif                                                 


  Job Finished at 09:04.58  3rd November   2016                               

