********************************************************************************
*                       GENERAL UTILITY LATTICE PROGRAM                        *
*                                 Julian Gale                                  *
*                      Nanochemistry Research Institute                        *
*                           Department of Chemistry                            *
*                    Curtin University, Western Australia                      *
********************************************************************************
* Version = 4.2.0 * Last modified =  20th January 2014                         *
********************************************************************************
*  optimise     - perform optimisation run                                     *
*  conp         - constant pressure calculation                                *
*  qok          - running with non charge neutral cell is OK                   *
********************************************************************************

  Job Started  at 14:27.45  3rd November   2016                               

  Number of CPUs =     1


  Total number of configurations input =   1

********************************************************************************
*  Input for Configuration =   1                                               *
********************************************************************************

  Formula = Ge3Si57O120F6                                               

  Number of irreducible atoms/shells =     312


  Total number atoms/shells =     312

  Dimensionality = 3               :  Bulk   


  Charge on solid   =  -6.000000 =>neutralising background added


  Cartesian lattice vectors (Angstroms) :

       11.966162    0.000000    0.000000
       -6.103234   10.367222    0.000000
       -0.342315   -0.227227   29.487654

  Cell parameters (Angstroms/Degrees):

  a =      11.9662    alpha =  90.0430
  b =      12.0303    beta  =  90.6651
  c =      29.4905    gamma = 120.4855

  Initial cell volume =        3658.116270 Angs**3

  Temperature of configuration =  0.000     K 

  Pressure of configuration =         0.000 GPa 

  Fractional coordinates of asymmetric unit :

--------------------------------------------------------------------------------
   No.  Atomic       x           y          z         Charge      Occupancy
        Label      (Frac)      (Frac)     (Frac)        (e)         (Frac)  
--------------------------------------------------------------------------------
      1 Ge    c    0.699600    0.375700    0.033890     4.00000    1.000000    
      2 Si    c    0.622229 *  0.330452 *  0.366746 *   4.00000    1.000000    
      3 Si    c    0.672673 *  0.300592 *  0.700693 *   4.00000    1.000000    
      4 Si    c    0.291633 *  0.625014 *  0.526419 *   4.00000    1.000000    
      5 Si    c    0.372716 *  0.672386 *  0.860917 *   4.00000    1.000000    
      6 Si    c    0.313637 *  0.702903 *  0.193236 *   4.00000    1.000000    
      7 Si    c    0.372562 *  0.702803 *  0.295346 *   4.00000    1.000000    
      8 Si    c    0.314677 *  0.621541 *  0.960919 *   4.00000    1.000000    
      9 Si    c    0.294126 *  0.680796 *  0.628593 *   4.00000    1.000000    
     10 Si    c    0.616128 *  0.294853 *  0.800962 *   4.00000    1.000000    
     11 Si    c    0.680246 *  0.389089 *  0.468179 *   4.00000    1.000000    
     12 Si    c    0.673998 *  0.307736 *  0.132290 *   4.00000    1.000000    
     13 Si    c    0.526690 *  0.418215 *  0.966926 *   4.00000    1.000000    
     14 Si    c    0.589476 *  0.124883 *  0.301422 *   4.00000    1.000000    
     15 Si    c    0.872753 *  0.471049 *  0.633923 *   4.00000    1.000000    
     16 Si    c    0.466490 *  0.589258 *  0.462388 *   4.00000    1.000000    
     17 Si    c    0.410463 *  0.882342 *  0.796268 *   4.00000    1.000000    
     18 Si    c    0.098465 *  0.528035 *  0.127048 *   4.00000    1.000000    
     19 Si    c    0.415576 *  0.533846 *  0.361237 *   4.00000    1.000000    
     20 Si    c    0.097561 *  0.578026 *  0.023768 *   4.00000    1.000000    
     21 Si    c    0.465688 *  0.892359 *  0.694938 *   4.00000    1.000000    
     22 Si    c    0.577849 *  0.468421 *  0.864677 *   4.00000    1.000000    
     23 Ge    c    0.899637 *  0.436050 *  0.534899 *   4.00000    1.000000    
     24 Ge    c    0.520863 *  0.094856 *  0.202454 *   4.00000    1.000000    
     25 Si    c    0.296671 *  0.395620 *  0.847361 *   4.00000    1.000000    
     26 Si    c    0.599781 *  0.904922 *  0.176668 *   4.00000    1.000000    
     27 Si    c    0.089979 *  0.707482 *  0.509757 *   4.00000    1.000000    
     28 Si    c    0.695752 *  0.605358 *  0.349206 *   4.00000    1.000000    
     29 Si    c    0.394093 *  0.099494 *  0.682526 *   4.00000    1.000000    
     30 Si    c    0.883007 *  0.289214 *  0.009221 *   4.00000    1.000000    
     31 Si    c    0.397775 *  0.311191 *  0.477900 *   4.00000    1.000000    
     32 Si    c    0.882485 *  0.596135 *  0.139916 *   4.00000    1.000000    
     33 Si    c    0.693455 *  0.093721 *  0.812104 *   4.00000    1.000000    
     34 Si    c    0.593562 *  0.699687 *  0.977309 *   4.00000    1.000000    
     35 Si    c    0.089035 *  0.399640 *  0.644625 *   4.00000    1.000000    
     36 Si    c    0.299766 *  0.908584 *  0.311896 *   4.00000    1.000000    
     37 Si    c    0.247020 *  0.342602 *  0.947590 *   4.00000    1.000000    
     38 Si    c    0.660150 *  0.919096 *  0.279905 *   4.00000    1.000000    
     39 Si    c    0.078496 *  0.750896 *  0.612990 *   4.00000    1.000000    
     40 Si    c    0.746371 *  0.667543 *  0.449859 *   4.00000    1.000000    
     41 Si    c    0.333755 *  0.084043 *  0.782880 *   4.00000    1.000000    
     42 Si    c    0.893459 *  0.244971 *  0.112491 *   4.00000    1.000000    
     43 Si    c    0.339126 *  0.257223 *  0.377337 *   4.00000    1.000000    
     44 Si    c    0.895117 *  0.659423 *  0.037654 *   4.00000    1.000000    
     45 Si    c    0.746014 *  0.093287 *  0.711524 *   4.00000    1.000000    
     46 Si    c    0.653994 *  0.746797 *  0.876938 *   4.00000    1.000000    
     47 Si    c    0.079242 *  0.336851 *  0.542348 *   4.00000    1.000000    
     48 Si    c    0.239461 *  0.913755 *  0.209846 *   4.00000    1.000000    
     49 Si    c    0.969312 *  0.121420 *  0.960952 *   4.00000    1.000000    
     50 Si    c    0.871922 *  0.848352 *  0.295384 *   4.00000    1.000000    
     51 Si    c    0.147198 *  0.032536 *  0.629292 *   4.00000    1.000000    
     52 Si    c    0.028433 *  0.889980 *  0.461042 *   4.00000    1.000000    
     53 Si    c    0.117086 *  0.146581 *  0.795375 *   4.00000    1.000000    
     54 Si    c    0.843904 *  0.969553 *  0.127748 *   4.00000    1.000000    
     55 Si    c    0.119309 *  0.976669 *  0.360190 *   4.00000    1.000000    
     56 Si    c    0.846183 *  0.882672 *  0.026632 *   4.00000    1.000000    
     57 Si    c    0.025328 *  0.152446 *  0.694231 *   4.00000    1.000000    
     58 Si    c    0.875222 *  0.024628 *  0.860542 *   4.00000    1.000000    
     59 Si    c    0.153390 *  0.127781 *  0.528283 *   4.00000    1.000000    
     60 Si    c    0.953974 *  0.842004 *  0.193590 *   4.00000    1.000000    
     61 O2    c    0.926213 *  0.002676 *  0.994264 *   0.87073    1.000000    
     62 O2    c    0.002411 *  0.935375 *  0.324430 *   0.87073    1.000000    
     63 O2    c    0.062949 *  0.074295 *  0.659271 *   0.87073    1.000000    
     64 O2    c    0.072688 *  0.012795 *  0.492956 *   0.87073    1.000000    
     65 O2    c    0.990893 *  0.064894 *  0.825468 *   0.87073    1.000000    
     66 O2    c    0.925879 *  0.932610 *  0.161435 *   0.87073    1.000000    
     67 O2    c    0.338899 *  0.581914 *  0.327560 *   0.87073    1.000000    
     68 O2    c    0.417158 *  0.768358 *  0.661121 *   0.87073    1.000000    
     69 O2    c    0.225310 *  0.655335 *  0.992826 *   0.87073    1.000000    
     70 O2    c    0.654557 *  0.416421 *  0.834063 *   0.87073    1.000000    
     71 O3    c    0.571617 *  0.234885 *  0.169849 *   1.33043    1.000000    
     72 O3    c    0.758604 *  0.349963 *  0.500258 *   1.33043    1.000000    
     73 O3    c    0.563813 *  0.337881 *  0.998832 *   1.33043    1.000000    
     74 O2    c    0.761151 *  0.430146 *  0.671642 *   0.87073    1.000000    
     75 O2    c    0.662309 *  0.240203 *  0.338554 *   0.87073    1.000000    
     76 O2    c    0.414814 *  0.663797 *  0.494461 *   0.87073    1.000000    
     77 O2    c    0.224707 *  0.580424 *  0.160291 *   0.87073    1.000000    
     78 O2    c    0.333837 *  0.755341 *  0.827294 *   0.87073    1.000000    
     79 O2    c    0.122531 *  0.216146 *  0.968327 *   0.87073    1.000000    
     80 O2    c    0.781624 *  0.911607 *  0.301070 *   0.87073    1.000000    
     81 O2    c    0.084987 *  0.878420 *  0.634250 *   0.87073    1.000000    
     82 O2    c    0.874977 *  0.796229 *  0.468980 *   0.87073    1.000000    
     83 O2    c    0.206223 *  0.082070 *  0.802104 *   0.87073    1.000000    
     84 O2    c    0.897721 *  0.122368 *  0.133605 *   0.87073    1.000000    
     85 O2    c    0.212940 *  0.130557 *  0.355908 *   0.87073    1.000000    
     86 O2    c    0.912531 *  0.796072 *  0.021103 *   0.87073    1.000000    
     87 O2    c    0.870388 *  0.091912 *  0.690592 *   0.87073    1.000000    
     88 O2    c    0.782088 *  0.870432 *  0.856330 *   0.87073    1.000000    
     89 O2    c    0.090050 *  0.216762 *  0.524257 *   0.87073    1.000000    
     90 O2    c    0.106838 *  0.900632 *  0.191236 *   0.87073    1.000000    
     91 O2    c    0.908846 *  0.849550 *  0.243610 *   0.87073    1.000000    
     92 O2    c    0.139177 *  0.069021 *  0.577827 *   0.87073    1.000000    
     93 O2    c    0.936951 *  0.066952 *  0.910135 *   0.87073    1.000000    
     94 O2    c    0.070560 *  0.136771 *  0.743616 *   0.87073    1.000000    
     95 O2    c    0.862888 *  0.936470 *  0.077340 *   0.87073    1.000000    
     96 O2    c    0.058732 *  0.936253 *  0.409530 *   0.87073    1.000000    
     97 O2    c    0.894647 *  0.197700 *  0.971564 *   0.87073    1.000000    
     98 O2    c    0.794911 *  0.700216 *  0.310996 *   0.87073    1.000000    
     99 O2    c    0.297912 *  0.104169 *  0.644123 *   0.87073    1.000000    
    100 O2    c    0.106869 *  0.817365 *  0.473719 *   0.87073    1.000000    
    101 O2    c    0.199369 *  0.297444 *  0.808294 *   0.87073    1.000000    
    102 O2    c    0.691836 *  0.888148 *  0.140405 *   0.87073    1.000000    
    103 O2    c    0.202692 *  0.907302 *  0.350211 *   0.87073    1.000000    
    104 O2    c    0.692613 *  0.800678 *  0.015479 *   0.87073    1.000000    
    105 O2    c    0.094095 *  0.304680 *  0.682631 *   0.87073    1.000000    
    106 O2    c    0.791792 *  0.093431 *  0.850277 *   0.87073    1.000000    
    107 O2    c    0.304938 *  0.213305 *  0.516846 *   0.87073    1.000000    
    108 O2    c    0.882329 *  0.692731 *  0.178454 *   0.87073    1.000000    
    109 O2    c    0.316430 *  0.652305 *  0.244297 *   0.87073    1.000000    
    110 O2    c    0.342954 *  0.676476 *  0.577889 *   0.87073    1.000000    
    111 O2    c    0.312800 *  0.675441 *  0.910215 *   0.87073    1.000000    
    112 O2    c    0.671511 *  0.353973 *  0.751149 *   0.87073    1.000000    
    113 O3    c    0.609514 *  0.297249 *  0.083373 *   1.33043    1.000000    
    114 O2    c    0.680928 *  0.338697 *  0.416801 *   0.87073    1.000000    
    115 O2    c    0.368370 *  0.333519 *  0.965990 *   0.87073    1.000000    
    116 O2    c    0.672463 *  0.049873 *  0.300178 *   0.87073    1.000000    
    117 O2    c    0.948227 *  0.629566 *  0.632606 *   0.87073    1.000000    
    118 O2    c    0.623423 *  0.680172 *  0.465894 *   0.87073    1.000000    
    119 O2    c    0.322659 *  0.950211 *  0.799152 *   0.87073    1.000000    
    120 O2    c    0.027771 *  0.372616 *  0.128903 *   0.87073    1.000000    
    121 O2    c    0.328450 *  0.377499 *  0.357105 *   0.87073    1.000000    
    122 O2    c    0.027411 *  0.662747 *  0.021813 *   0.87073    1.000000    
    123 O2    c    0.622295 *  0.962044 *  0.691563 *   0.87073    1.000000    
    124 O2    c    0.663548 *  0.624235 *  0.859336 *   0.87073    1.000000    
    125 O3    c    0.947276 *  0.319003 *  0.523720 *   1.33043    1.000000    
    126 O3    c    0.353313 *  0.043823 *  0.191201 *   1.33043    1.000000    
    127 O3    c    0.749853 *  0.282313 *  0.000580 *   1.33043    1.000000    
    128 O2    c    0.692646 *  0.470363 *  0.341886 *   0.87073    1.000000    
    129 O2    c    0.530237 *  0.233110 *  0.676123 *   0.87073    1.000000    
    130 O2    c    0.222951 *  0.701338 *  0.506556 *   0.87073    1.000000    
    131 O2    c    0.298307 *  0.529289 *  0.837705 *   0.87073    1.000000    
    132 O2    c    0.458590 *  0.771928 *  0.173137 *   0.87073    1.000000    
    133 O2    c    0.300575 *  0.774559 *  0.316057 *   0.87073    1.000000    
    134 O2    c    0.459328 *  0.701058 *  0.983567 *   0.87073    1.000000    
    135 O2    c    0.223062 *  0.536720 *  0.649278 *   0.87073    1.000000    
    136 O2    c    0.692504 *  0.225912 *  0.821328 *   0.87073    1.000000    
    137 O2    c    0.531308 *  0.313356 *  0.486118 *   0.87073    1.000000    
    138 O2    c    0.751361 *  0.461789 *  0.147345 *   0.87073    1.000000    
    139 O3    c    0.767893 *  0.544236 *  0.016902 *   1.33043    1.000000    
    140 O2    c    0.465003 *  0.253893 *  0.360252 *   0.87073    1.000000    
    141 O2    c    0.749555 *  0.222131 *  0.693924 *   0.87073    1.000000    
    142 O2    c    0.202137 *  0.470114 *  0.523707 *   0.87073    1.000000    
    143 O2    c    0.529877 *  0.750012 *  0.856372 *   0.87073    1.000000    
    144 O2    c    0.246001 *  0.789178 *  0.191425 *   0.87073    1.000000    
    145 O2    c    0.527463 *  0.795516 *  0.296374 *   0.87073    1.000000    
    146 O2    c    0.242254 *  0.466337 *  0.966435 *   0.87073    1.000000    
    147 O2    c    0.202931 *  0.743273 *  0.629778 *   0.87073    1.000000    
    148 O2    c    0.459524 *  0.208005 *  0.804480 *   0.87073    1.000000    
    149 O2    c    0.744188 *  0.545312 *  0.472308 *   0.87073    1.000000    
    150 O2    c    0.773355 *  0.250568 *  0.132809 *   0.87073    1.000000    
    151 O2    c    0.223419 *  0.323061 *  0.893216 *   0.87073    1.000000    
    152 O2    c    0.672535 *  0.918679 *  0.225619 *   0.87073    1.000000    
    153 O2    c    0.077747 *  0.765129 *  0.558730 *   0.87073    1.000000    
    154 O2    c    0.767453 *  0.680694 *  0.395609 *   0.87073    1.000000    
    155 O2    c    0.318715 *  0.091757 *  0.728600 *   0.87073    1.000000    
    156 O2    c    0.889214 *  0.228110 *  0.058201 *   0.87073    1.000000    
    157 O2    c    0.319412 *  0.239696 *  0.431507 *   0.87073    1.000000    
    158 O2    c    0.888688 *  0.666735 *  0.092959 *   0.87073    1.000000    
    159 O2    c    0.764615 *  0.092137 *  0.765771 *   0.87073    1.000000    
    160 O2    c    0.670789 *  0.768127 *  0.931245 *   0.87073    1.000000    
    161 O2    c    0.082786 *  0.329284 *  0.597432 *   0.87073    1.000000    
    162 O2    c    0.232083 *  0.913277 *  0.264993 *   0.87073    1.000000    
    163 O2    c    0.575741 *  0.561200 *  0.988072 *   0.87073    1.000000    
    164 O2    c    0.443256 *  0.028550 *  0.320532 *   0.87073    1.000000    
    165 O2    c    0.968697 *  0.420571 *  0.652833 *   0.87073    1.000000    
    166 O2    c    0.408852 *  0.449471 *  0.486149 *   0.87073    1.000000    
    167 O2    c    0.552910 *  0.967907 *  0.819433 *   0.87073    1.000000    
    168 O2    c    0.008035 *  0.579911 *  0.146796 *   0.87073    1.000000    
    169 O2    c    0.557980 *  0.596156 *  0.338681 *   0.87073    1.000000    
    170 O2    c    0.007340 *  0.434638 *  0.003382 *   0.87073    1.000000    
    171 O2    c    0.404310 *  0.972788 *  0.672082 *   0.87073    1.000000    
    172 O2    c    0.435805 *  0.407229 *  0.840456 *   0.87073    1.000000    
    173 O3    c    0.965284 *  0.575143 *  0.497905 *   1.33043    1.000000    
    174 O3    c    0.592818 *  0.028795 *  0.165332 *   1.33043    1.000000    
    175 O3    c    0.593533 *  0.186330 *  0.253740 *   1.33043    1.000000    
    176 O3    c    0.808666 *  0.413351 *  0.585995 *   1.33043    1.000000    
    177 O2    c    0.580941 *  0.423131 *  0.915830 *   0.87073    1.000000    
    178 O2    c    0.411460 *  0.833531 *  0.744729 *   0.87073    1.000000    
    179 O2    c    0.144261 *  0.576327 *  0.075866 *   0.87073    1.000000    
    180 O2    c    0.411016 *  0.588172 *  0.411426 *   0.87073    1.000000    
    181 F     c    0.465949 *  0.947393 *  0.237372 *   0.56000    1.000000    
    182 F     c    0.048249 *  0.529223 *  0.570255 *   0.56000    1.000000    
    183 F     c    0.443041 *  0.552083 *  0.910760 *   0.56000    1.000000    
    184 F     c    0.543598 *  0.094860 *  0.745608 *   0.56000    1.000000    
    185 F     c    0.850754 *  0.434797 *  0.068247 *   0.56000    1.000000    
    186 F     c    0.540685 *  0.463157 *  0.411794 *   0.56000    1.000000    
    187 O2    s    0.921902 *  0.002473 *  0.994175 *  -2.87073    1.000000    
    188 O2    s    0.000920 *  0.930336 *  0.325177 *  -2.87073    1.000000    
    189 O2    s    0.068058 *  0.078236 *  0.659801 *  -2.87073    1.000000    
    190 O2    s    0.076772 *  0.011761 *  0.493311 *  -2.87073    1.000000    
    191 O2    s    0.992240 *  0.069596 *  0.825972 *  -2.87073    1.000000    
    192 O2    s    0.919858 *  0.926651 *  0.161268 *  -2.87073    1.000000    
    193 O2    s    0.350013 *  0.590117 *  0.327412 *  -2.87073    1.000000    
    194 O2    s    0.408751 *  0.771314 *  0.660987 *  -2.87073    1.000000    
    195 O2    s    0.221050 *  0.643921 *  0.992825 *  -2.87073    1.000000    
    196 O2    s    0.642741 *  0.408856 *  0.833659 *  -2.87073    1.000000    
    197 O3    s    0.579332 *  0.232863 *  0.168026 *  -3.33043    1.000000    
    198 O3    s    0.759626 *  0.360388 *  0.499062 *  -3.33043    1.000000    
    199 O3    s    0.569425 *  0.349421 *  0.997822 *  -3.33043    1.000000    
    200 O2    s    0.763568 *  0.421086 *  0.670752 *  -2.87073    1.000000    
    201 O2    s    0.650741 *  0.237553 *  0.337624 *  -2.87073    1.000000    
    202 O2    s    0.407083 *  0.652231 *  0.494601 *  -2.87073    1.000000    
    203 O2    s    0.220962 *  0.587717 *  0.160305 *  -2.87073    1.000000    
    204 O2    s    0.345781 *  0.760353 *  0.827416 *  -2.87073    1.000000    
    205 O2    s    0.118657 *  0.218894 *  0.965393 *  -2.87073    1.000000    
    206 O2    s    0.778454 *  0.905709 *  0.298275 *  -2.87073    1.000000    
    207 O2    s    0.090870 *  0.881417 *  0.631539 *  -2.87073    1.000000    
    208 O2    s    0.878075 *  0.792994 *  0.466205 *  -2.87073    1.000000    
    209 O2    s    0.210006 *  0.089054 *  0.799429 *  -2.87073    1.000000    
    210 O2    s    0.891647 *  0.118914 *  0.130857 *  -2.87073    1.000000    
    211 O2    s    0.215840 *  0.127034 *  0.358538 *  -2.87073    1.000000    
    212 O2    s    0.903579 *  0.791436 *  0.023381 *  -2.87073    1.000000    
    213 O2    s    0.874145 *  0.098517 *  0.693099 *  -2.87073    1.000000    
    214 O2    s    0.778921 *  0.874280 *  0.858871 *  -2.87073    1.000000    
    215 O2    s    0.096005 *  0.219959 *  0.526677 *  -2.87073    1.000000    
    216 O2    s    0.104068 *  0.895349 *  0.193552 *  -2.87073    1.000000    
    217 O2    s    0.909756 *  0.848581 *  0.243857 *  -2.87073    1.000000    
    218 O2    s    0.141665 *  0.071517 *  0.578061 *  -2.87073    1.000000    
    219 O2    s    0.933525 *  0.068219 *  0.910177 *  -2.87073    1.000000    
    220 O2    s    0.070518 *  0.139633 *  0.743702 *  -2.87073    1.000000    
    221 O2    s    0.858799 *  0.934297 *  0.077523 *  -2.87073    1.000000    
    222 O2    s    0.062192 *  0.935661 *  0.409712 *  -2.87073    1.000000    
    223 O2    s    0.901605 *  0.198888 *  0.974317 *  -2.87073    1.000000    
    224 O2    s    0.793122 *  0.706579 *  0.313223 *  -2.87073    1.000000    
    225 O2    s    0.291480 *  0.095995 *  0.646440 *  -2.87073    1.000000    
    226 O2    s    0.096969 *  0.813991 *  0.476009 *  -2.87073    1.000000    
    227 O2    s    0.200337 *  0.291093 *  0.810854 *  -2.87073    1.000000    
    228 O2    s    0.698361 *  0.898260 *  0.142751 *  -2.87073    1.000000    
    229 O2    s    0.204016 *  0.914569 *  0.347321 *  -2.87073    1.000000    
    230 O2    s    0.698877 *  0.799194 *  0.012819 *  -2.87073    1.000000    
    231 O2    s    0.086454 *  0.298669 *  0.679926 *  -2.87073    1.000000    
    232 O2    s    0.790421 *  0.086172 *  0.847399 *  -2.87073    1.000000    
    233 O2    s    0.297911 *  0.213983 *  0.514129 *  -2.87073    1.000000    
    234 O2    s    0.890099 *  0.699022 *  0.176153 *  -2.87073    1.000000    
    235 O2    s    0.321843 *  0.662512 *  0.244354 *  -2.87073    1.000000    
    236 O2    s    0.332711 *  0.671719 *  0.577938 *  -2.87073    1.000000    
    237 O2    s    0.318990 *  0.669684 *  0.910398 *  -2.87073    1.000000    
    238 O2    s    0.665874 *  0.342239 *  0.751009 *  -2.87073    1.000000    
    239 O3    s    0.622116 *  0.303687 *  0.084759 *  -3.33043    1.000000    
    240 O2    s    0.674465 *  0.342949 *  0.416509 *  -2.87073    1.000000    
    241 O2    s    0.370595 *  0.343063 *  0.963989 *  -2.87073    1.000000    
    242 O2    s    0.663193 *  0.043300 *  0.298153 *  -2.87073    1.000000    
    243 O2    s    0.954778 *  0.627152 *  0.630637 *  -2.87073    1.000000    
    244 O2    s    0.619837 *  0.669565 *  0.463882 *  -2.87073    1.000000    
    245 O2    s    0.332790 *  0.957315 *  0.797134 *  -2.87073    1.000000    
    246 O2    s    0.021639 *  0.376060 *  0.127049 *  -2.87073    1.000000    
    247 O2    s    0.338522 *  0.381293 *  0.359611 *  -2.87073    1.000000    
    248 O2    s    0.021673 *  0.653467 *  0.023601 *  -2.87073    1.000000    
    249 O2    s    0.618850 *  0.968441 *  0.693997 *  -2.87073    1.000000    
    250 O2    s    0.653714 *  0.621030 *  0.861727 *  -2.87073    1.000000    
    251 O3    s    0.958321 *  0.328728 *  0.526494 *  -3.33043    1.000000    
    252 O3    s    0.351956 *  0.032936 *  0.194014 *  -3.33043    1.000000    
    253 O3    s    0.761066 *  0.289004 *  0.003686 *  -3.33043    1.000000    
    254 O2    s    0.685800 *  0.470356 *  0.345194 *  -2.87073    1.000000    
    255 O2    s    0.530396 *  0.225879 *  0.679328 *  -2.87073    1.000000    
    256 O2    s    0.216840 *  0.693948 *  0.508992 *  -2.87073    1.000000    
    257 O2    s    0.305739 *  0.529979 *  0.841110 *  -2.87073    1.000000    
    258 O2    s    0.457316 *  0.777845 *  0.175639 *  -2.87073    1.000000    
    259 O2    s    0.307940 *  0.780968 *  0.313467 *  -2.87073    1.000000    
    260 O2    s    0.458300 *  0.692822 *  0.980582 *  -2.87073    1.000000    
    261 O2    s    0.216496 *  0.537467 *  0.646615 *  -2.87073    1.000000    
    262 O2    s    0.684722 *  0.219092 *  0.818222 *  -2.87073    1.000000    
    263 O2    s    0.531384 *  0.320757 *  0.483350 *  -2.87073    1.000000    
    264 O2    s    0.758801 *  0.462415 *  0.145057 *  -2.87073    1.000000    
    265 O3    s    0.777837 *  0.546652 *  0.020157 *  -3.33043    1.000000    
    266 O2    s    0.467486 *  0.262139 *  0.362714 *  -2.87073    1.000000    
    267 O2    s    0.741263 *  0.216206 *  0.696463 *  -2.87073    1.000000    
    268 O2    s    0.199191 *  0.473313 *  0.525876 *  -2.87073    1.000000    
    269 O2    s    0.526943 *  0.741558 *  0.859021 *  -2.87073    1.000000    
    270 O2    s    0.252807 *  0.792437 *  0.193473 *  -2.87073    1.000000    
    271 O2    s    0.524893 *  0.798847 *  0.294478 *  -2.87073    1.000000    
    272 O2    s    0.250439 *  0.469494 *  0.963868 *  -2.87073    1.000000    
    273 O2    s    0.199270 *  0.737251 *  0.627838 *  -2.87073    1.000000    
    274 O2    s    0.462244 *  0.203492 *  0.801781 *  -2.87073    1.000000    
    275 O2    s    0.737806 *  0.543270 *  0.469425 *  -2.87073    1.000000    
    276 O2    s    0.777575 *  0.255627 *  0.130455 *  -2.87073    1.000000    
    277 O2    s    0.233567 *  0.332759 *  0.894023 *  -2.87073    1.000000    
    278 O2    s    0.664090 *  0.917439 *  0.226697 *  -2.87073    1.000000    
    279 O2    s    0.078967 *  0.757931 *  0.559805 *  -2.87073    1.000000    
    280 O2    s    0.757626 *  0.671325 *  0.396408 *  -2.87073    1.000000    
    281 O2    s    0.328287 *  0.091757 *  0.729455 *  -2.87073    1.000000    
    282 O2    s    0.889051 *  0.235885 *  0.059221 *  -2.87073    1.000000    
    283 O2    s    0.329501 *  0.248897 *  0.430537 *  -2.87073    1.000000    
    284 O2    s    0.888622 *  0.658337 *  0.092607 *  -2.87073    1.000000    
    285 O2    s    0.755274 *  0.092413 *  0.764759 *  -2.87073    1.000000    
    286 O2    s    0.661050 *  0.758825 *  0.930244 *  -2.87073    1.000000    
    287 O2    s    0.083075 *  0.337624 *  0.596923 *  -2.87073    1.000000    
    288 O2    s    0.240113 *  0.912847 *  0.264456 *  -2.87073    1.000000    
    289 O2    s    0.572481 *  0.562094 *  0.984718 *  -2.87073    1.000000    
    290 O2    s    0.441839 *  0.024651 *  0.317674 *  -2.87073    1.000000    
    291 O2    s    0.972692 *  0.423385 *  0.650043 *  -2.87073    1.000000    
    292 O2    s    0.413811 *  0.449466 *  0.482791 *  -2.87073    1.000000    
    293 O2    s    0.553155 *  0.972740 *  0.816180 *  -2.87073    1.000000    
    294 O2    s    0.004583 *  0.575995 *  0.143976 *  -2.87073    1.000000    
    295 O2    s    0.557614 *  0.590545 *  0.342130 *  -2.87073    1.000000    
    296 O2    s    0.004425 *  0.435503 *  0.006178 *  -2.87073    1.000000    
    297 O2    s    0.409698 *  0.977919 *  0.675549 *  -2.87073    1.000000    
    298 O2    s    0.435568 *  0.412455 *  0.843689 *  -2.87073    1.000000    
    299 O3    s    0.974896 *  0.580698 *  0.501544 *  -3.33043    1.000000    
    300 O3    s    0.588731 *  0.019404 *  0.168942 *  -3.33043    1.000000    
    301 O3    s    0.588233 *  0.173618 *  0.255413 *  -3.33043    1.000000    
    302 O3    s    0.821447 *  0.420956 *  0.587702 *  -3.33043    1.000000    
    303 O2    s    0.575224 *  0.427599 *  0.915376 *  -2.87073    1.000000    
    304 O2    s    0.417018 *  0.844661 *  0.744774 *  -2.87073    1.000000    
    305 O2    s    0.134763 *  0.571412 *  0.076045 *  -2.87073    1.000000    
    306 O2    s    0.417099 *  0.582710 *  0.411451 *  -2.87073    1.000000    
    307 F     s    0.469965 *  0.957867 *  0.234864 *  -1.56000    1.000000    
    308 F     s    0.037322 *  0.522518 *  0.567645 *  -1.56000    1.000000    
    309 F     s    0.442475 *  0.552762 *  0.910530 *  -1.56000    1.000000    
    310 F     s    0.543812 *  0.095144 *  0.745369 *  -1.56000    1.000000    
    311 F     s    0.839930 *  0.430777 *  0.065746 *  -1.56000    1.000000    
    312 F     s    0.540210 *  0.463454 *  0.411553 *  -1.56000    1.000000    
--------------------------------------------------------------------------------



********************************************************************************
*  General input information                                                   *
********************************************************************************

  Species output for all configurations : 

--------------------------------------------------------------------------------
  Species    Type    Atomic    Atomic    Charge       Radii (Angs)     Library
                     Number     Mass       (e)     Cova   Ionic  VDW   Symbol
--------------------------------------------------------------------------------
    Si       Core       14      28.09   4.000000   1.200  0.000  2.100          
    O1       Core        8      16.00   1.733957   0.730  0.000  1.360          
    O1       Shell       8       0.00  -3.733957   0.730  0.000  1.360          
    O2       Core        8      16.00   0.870733   0.730  0.000  1.360          
    O2       Shell       8       0.00  -2.870733   0.730  0.000  1.360          
    O3       Core        8      16.00   1.330431   0.730  0.000  1.360          
    O3       Shell       8       0.00  -3.330431   0.730  0.000  1.360          
    F        Core        9      19.00   0.560000   0.710  0.000  1.300          
    F        Shell       9       0.00  -1.560000   0.710  0.000  1.300          
    Ge       Core       32      72.61   4.000000   1.170  0.000  1.750          
--------------------------------------------------------------------------------


  Lattice summation method               =    Ewald          (3-D)
                                         =    Parry          (2-D)
                                         =    Saunders et al (1-D)
  Accuracy factor for lattice sums       =   12.000


  Time limit = Infinity

  Maximum range for interatomic potentials =        16.000000 Angstroms

  Taper potentials to zero over   1.0000 Angstroms using polynomial

  General interatomic potentials :

--------------------------------------------------------------------------------
Atom  Types   Potential         A         B         C         D     Cutoffs(Ang)
  1     2                                                            Min    Max 
--------------------------------------------------------------------------------
Si   c O1   s Buckingham    0.132E+04 0.318      10.1      0.00     0.000 16.000
Si   c O2   s Buckingham    0.132E+04 0.318      10.1      0.00     0.000 16.000
Si   c O3   s Buckingham    0.132E+04 0.318      10.1      0.00     0.000 16.000
Ge   c O1   s Buckingham    0.150E+04 0.326      16.8      0.00     0.000 16.000
Ge   c O2   s Buckingham    0.150E+04 0.326      16.8      0.00     0.000 16.000
Ge   c O3   s Buckingham    0.150E+04 0.326      16.8      0.00     0.000 16.000
O1   s O1   s Buckingham    0.228E+05 0.149      10.9      0.00     0.000 16.000
O1   s O2   s Buckingham    0.228E+05 0.149      10.9      0.00     0.000 16.000
O1   s O3   s Buckingham    0.228E+05 0.149      10.9      0.00     0.000 16.000
O2   s O2   s Buckingham    0.228E+05 0.149      10.9      0.00     0.000 16.000
O2   s O3   s Buckingham    0.228E+05 0.149      10.9      0.00     0.000 16.000
O3   s O3   s Buckingham    0.228E+05 0.149      10.9      0.00     0.000 16.000
Si   c F    s Buckingham     977.     0.282      0.00      0.00     0.000 16.000
Ge   c F    s Buckingham     681.     0.320      0.00      0.00     0.000 16.000
F    s F    s Buckingham     540.     0.262      0.00      0.00     0.000 16.000
O1   s F    s Buckingham    0.168E+04 0.268      0.00      0.00     0.000 16.000
O2   s F    s Buckingham    0.168E+04 0.268      0.00      0.00     0.000 16.000
O3   s F    s Buckingham    0.168E+04 0.268      0.00      0.00     0.000 16.000
O2   c O2   s Spring (c-s)   76.0      0.00      0.00      0.00     0.000  0.800
O3   c O3   s Spring (c-s)   128.      0.00      0.00      0.00     0.000  0.800
O1   c O1   s Spring (c-s)   180.      0.00      0.00      0.00     0.000  0.800
F    c F    s Spring (c-s)   33.5      0.00      0.00      0.00     0.000  0.800
--------------------------------------------------------------------------------

  General Three-body potentials :

  Harmonic form:

--------------------------------------------------------------------------------
Atom    Atom    Atom           Force Constants            Theta     Cutoffs  
  1       2       3     (eVrad**-2/eVrad**-3/eVrad**-4)   (deg)  1-2  1-3  2-3
--------------------------------------------------------------------------------
Si    c O1    s O1    s  1.261        0.0000    0.0000   109.470 0.00 0.00 0.00
                                                                 1.90 1.90 3.50
Si    c O1    s O2    s  1.261        0.0000    0.0000   109.470 0.00 0.00 0.00
                                                                 1.90 1.90 3.50
Si    c O2    s O2    s  1.261        0.0000    0.0000   109.470 0.00 0.00 0.00
                                                                 1.90 1.90 3.50
--------------------------------------------------------------------------------

********************************************************************************
*  Output for configuration   1                                                *
********************************************************************************


  Components of energy : 

--------------------------------------------------------------------------------
  Interatomic potentials     =        2067.31835071 eV
  Three-body potentials      =           0.47879577 eV
  Monopole - monopole (real) =       -6618.04323547 eV
  Monopole - monopole (recip)=       -3170.96769945 eV
  Monopole - monopole (total)=       -9789.01093492 eV
  Neutralising energy        =          -6.45926015 eV
--------------------------------------------------------------------------------
  Total lattice energy       =       -7727.67304859 eV
--------------------------------------------------------------------------------
  Total lattice energy       =         -745602.3209 kJ/(mole unit cells)
--------------------------------------------------------------------------------


  Number of variables =      939

  Maximum number of calculations  =          5000
  Maximum Hessian update interval =            10
  Maximum step size               =   0.100000000
  Maximum parameter tolerance     =   0.000010000
  Maximum function  tolerance     =   0.000010000
  Maximum gradient  tolerance     =   0.001000000
  Maximum gradient  component     =   0.010000000

  Symmetry not applied to optimisation

  Cell parameters to be optimised using strains

  Newton-Raphson optimiser to be used

  BFGS hessian update to be used

  Dumpfile to be written after every cycle

  Start of bulk optimisation :

  Cycle:      0 Energy:     -7727.673049  Gnorm:      0.000491  CPU:    2.019
  ** Hessian calculated **
  Cycle:      1 Energy:     -7727.684526  Gnorm:      0.000408  CPU:    6.611
  Cycle:      2 Energy:     -7727.696304  Gnorm:      0.000506  CPU:   10.827
  Cycle:      3 Energy:     -7727.702733  Gnorm:      0.000612  CPU:   15.044
  Cycle:      4 Energy:     -7727.704349  Gnorm:      0.000442  CPU:   19.260
  Cycle:      5 Energy:     -7727.704758  Gnorm:      0.000259  CPU:   23.477
  Cycle:      6 Energy:     -7727.704862  Gnorm:      0.000140  CPU:   27.694
  Cycle:      7 Energy:     -7727.704879  Gnorm:      0.000100  CPU:   30.549
  Cycle:      8 Energy:     -7727.704888  Gnorm:      0.000070  CPU:   33.404
  Cycle:      9 Energy:     -7727.704892  Gnorm:      0.000049  CPU:   36.258
  Cycle:     10 Energy:     -7727.704894  Gnorm:      0.000035  CPU:   39.127
  ** Hessian calculated **


  **** Optimisation achieved ****


  Final energy =   -7727.70489528 eV
  Final Gnorm  =       0.00002430

  Components of energy : 

--------------------------------------------------------------------------------
  Interatomic potentials     =        2067.21995468 eV
  Three-body potentials      =           0.47870852 eV
  Monopole - monopole (real) =       -6619.32547877 eV
  Monopole - monopole (recip)=       -3169.62156096 eV
  Monopole - monopole (total)=       -9788.94703973 eV
  Neutralising energy        =          -6.45651874 eV
--------------------------------------------------------------------------------
  Total lattice energy       =       -7727.70489528 eV
--------------------------------------------------------------------------------
  Total lattice energy       =         -745605.3936 kJ/(mole unit cells)
--------------------------------------------------------------------------------

  Final fractional coordinates of atoms :

--------------------------------------------------------------------------------
   No.  Atomic        x           y          z          Radius
        Label       (Frac)      (Frac)     (Frac)       (Angs) 
--------------------------------------------------------------------------------
     1  Ge    c     0.699600    0.375700    0.033890    0.000000
     2  Si    c     0.607289    0.327907    0.367133    0.000000
     3  Si    c     0.656776    0.292618    0.700841    0.000000
     4  Si    c     0.276547    0.620459    0.527562    0.000000
     5  Si    c     0.361384    0.666768    0.862209    0.000000
     6  Si    c     0.302566    0.700386    0.194675    0.000000
     7  Si    c     0.361061    0.702287    0.296905    0.000000
     8  Si    c     0.307164    0.614986    0.962427    0.000000
     9  Si    c     0.277259    0.674669    0.629798    0.000000
    10  Si    c     0.602131    0.288199    0.801239    0.000000
    11  Si    c     0.665379    0.385174    0.468658    0.000000
    12  Si    c     0.664948    0.303747    0.132125    0.000000
    13  Si    c     0.520555    0.412449    0.967165    0.000000
    14  Si    c     0.576631    0.123737    0.301483    0.000000
    15  Si    c     0.856136    0.464601    0.634068    0.000000
    16  Si    c     0.452471    0.585861    0.463864    0.000000
    17  Si    c     0.396340    0.876205    0.797690    0.000000
    18  Si    c     0.088966    0.523463    0.128930    0.000000
    19  Si    c     0.401727    0.531734    0.362743    0.000000
    20  Si    c     0.092713    0.575698    0.025676    0.000000
    21  Si    c     0.449750    0.885089    0.696289    0.000000
    22  Si    c     0.566907    0.463576    0.864646    0.000000
    23  Ge    c     0.884722    0.431202    0.535104    0.000000
    24  Ge    c     0.508288    0.091843    0.202440    0.000000
    25  Si    c     0.285799    0.390355    0.848022    0.000000
    26  Si    c     0.587814    0.902053    0.177290    0.000000
    27  Si    c     0.075143    0.702827    0.510428    0.000000
    28  Si    c     0.681296    0.603305    0.350201    0.000000
    29  Si    c     0.377945    0.091714    0.683351    0.000000
    30  Si    c     0.880290    0.287088    0.010089    0.000000
    31  Si    c     0.383400    0.307573    0.478922    0.000000
    32  Si    c     0.873289    0.591730    0.141189    0.000000
    33  Si    c     0.679347    0.087206    0.813136    0.000000
    34  Si    c     0.586186    0.693346    0.977883    0.000000
    35  Si    c     0.072147    0.393264    0.645205    0.000000
    36  Si    c     0.287468    0.907576    0.312629    0.000000
    37  Si    c     0.240512    0.336718    0.948462    0.000000
    38  Si    c     0.648042    0.918154    0.280646    0.000000
    39  Si    c     0.061875    0.744692    0.613691    0.000000
    40  Si    c     0.732026    0.664091    0.450934    0.000000
    41  Si    c     0.319612    0.077649    0.783851    0.000000
    42  Si    c     0.884932    0.241019    0.113547    0.000000
    43  Si    c     0.324601    0.254929    0.378299    0.000000
    44  Si    c     0.891697    0.658827    0.039010    0.000000
    45  Si    c     0.730117    0.085481    0.712402    0.000000
    46  Si    c     0.642957    0.741406    0.877357    0.000000
    47  Si    c     0.064252    0.332087    0.542900    0.000000
    48  Si    c     0.227330    0.910620    0.210413    0.000000
    49  Si    c     0.962519    0.116777    0.961373    0.000000
    50  Si    c     0.858711    0.845936    0.296117    0.000000
    51  Si    c     0.131313    0.026349    0.630022    0.000000
    52  Si    c     0.014267    0.886016    0.461782    0.000000
    53  Si    c     0.104342    0.142052    0.796008    0.000000
    54  Si    c     0.831660    0.964585    0.128529    0.000000
    55  Si    c     0.105834    0.974349    0.360993    0.000000
    56  Si    c     0.838093    0.878637    0.027547    0.000000
    57  Si    c     0.009833    0.146285    0.695033    0.000000
    58  Si    c     0.862862    0.019785    0.861247    0.000000
    59  Si    c     0.139003    0.123461    0.529070    0.000000
    60  Si    c     0.941279    0.836540    0.194596    0.000000
    61  O2    c     0.916991    0.998055    0.994868    0.000000
    62  O2    c     0.989303    0.932576    0.325068    0.000000
    63  O2    c     0.047619    0.068595    0.659994    0.000000
    64  O2    c     0.058927    0.008901    0.493607    0.000000
    65  O2    c     0.977748    0.061094    0.825869    0.000000
    66  O2    c     0.911920    0.925425    0.162065    0.000000
    67  O2    c     0.326099    0.581365    0.329257    0.000000
    68  O2    c     0.399908    0.760840    0.662575    0.000000
    69  O2    c     0.220812    0.651073    0.994951    0.000000
    70  O2    c     0.642360    0.411129    0.833683    0.000000
    71  O3    c     0.560221    0.230699    0.169029    0.000000
    72  O3    c     0.744113    0.345522    0.500341    0.000000
    73  O3    c     0.562782    0.335454    0.998421    0.000000
    74  O2    c     0.744007    0.422076    0.671612    0.000000
    75  O2    c     0.648296    0.239150    0.338563    0.000000
    76  O2    c     0.400601    0.659863    0.496040    0.000000
    77  O2    c     0.214253    0.576134    0.162511    0.000000
    78  O2    c     0.321012    0.749637    0.829070    0.000000
    79  O2    c     0.116092    0.208681    0.968598    0.000000
    80  O2    c     0.769959    0.910922    0.301520    0.000000
    81  O2    c     0.067890    0.872063    0.634786    0.000000
    82  O2    c     0.860956    0.792494    0.469907    0.000000
    83  O2    c     0.192500    0.076577    0.802955    0.000000
    84  O2    c     0.887255    0.117535    0.134760    0.000000
    85  O2    c     0.198187    0.128417    0.357000    0.000000
    86  O2    c     0.908411    0.795442    0.022926    0.000000
    87  O2    c     0.854722    0.084121    0.691760    0.000000
    88  O2    c     0.770414    0.865714    0.856796    0.000000
    89  O2    c     0.075604    0.212332    0.524898    0.000000
    90  O2    c     0.094183    0.896525    0.192034    0.000000
    91  O2    c     0.895627    0.844830    0.244454    0.000000
    92  O2    c     0.124385    0.064228    0.578599    0.000000
    93  O2    c     0.926248    0.062064    0.910663    0.000000
    94  O2    c     0.057792    0.132712    0.744246    0.000000
    95  O2    c     0.850943    0.932589    0.078017    0.000000
    96  O2    c     0.044595    0.932185    0.410211    0.000000
    97  O2    c     0.891903    0.196601    0.972281    0.000000
    98  O2    c     0.780411    0.698238    0.312051    0.000000
    99  O2    c     0.281646    0.096448    0.645024    0.000000
   100  O2    c     0.092434    0.813182    0.474485    0.000000
   101  O2    c     0.187349    0.292660    0.809113    0.000000
   102  O2    c     0.679617    0.884697    0.141109    0.000000
   103  O2    c     0.190590    0.906685    0.350876    0.000000
   104  O2    c     0.685357    0.793956    0.015987    0.000000
   105  O2    c     0.076806    0.298131    0.683226    0.000000
   106  O2    c     0.778171    0.087502    0.851304    0.000000
   107  O2    c     0.290549    0.209251    0.517795    0.000000
   108  O2    c     0.871277    0.687116    0.179805    0.000000
   109  O2    c     0.305314    0.651312    0.245939    0.000000
   110  O2    c     0.326671    0.671180    0.579136    0.000000
   111  O2    c     0.303145    0.668923    0.911889    0.000000
   112  O2    c     0.656332    0.346140    0.751241    0.000000
   113  O3    c     0.605260    0.295897    0.082692    0.000000
   114  O2    c     0.665581    0.335309    0.417196    0.000000
   115  O2    c     0.362051    0.327757    0.966789    0.000000
   116  O2    c     0.660062    0.049117    0.300541    0.000000
   117  O2    c     0.931425    0.623115    0.633073    0.000000
   118  O2    c     0.609349    0.676615    0.467292    0.000000
   119  O2    c     0.308400    0.943947    0.800505    0.000000
   120  O2    c     0.018542    0.368085    0.130641    0.000000
   121  O2    c     0.314037    0.375527    0.358275    0.000000
   122  O2    c     0.024124    0.661942    0.023529    0.000000
   123  O2    c     0.606224    0.954199    0.692627    0.000000
   124  O2    c     0.652532    0.619375    0.859265    0.000000
   125  O3    c     0.932688    0.314453    0.523981    0.000000
   126  O3    c     0.340650    0.040610    0.191436    0.000000
   127  O3    c     0.747993    0.281457    0.000878    0.000000
   128  O2    c     0.677606    0.468240    0.342605    0.000000
   129  O2    c     0.514112    0.224795    0.676566    0.000000
   130  O2    c     0.208151    0.696861    0.507483    0.000000
   131  O2    c     0.286704    0.523900    0.838966    0.000000
   132  O2    c     0.446995    0.768843    0.174287    0.000000
   133  O2    c     0.289113    0.774184    0.317379    0.000000
   134  O2    c     0.452032    0.694128    0.984679    0.000000
   135  O2    c     0.205744    0.530293    0.650204    0.000000
   136  O2    c     0.678447    0.219478    0.821855    0.000000
   137  O2    c     0.516836    0.309498    0.486851    0.000000
   138  O2    c     0.742040    0.457332    0.147748    0.000000
   139  O3    c     0.766111    0.543710    0.017377    0.000000
   140  O2    c     0.450148    0.251650    0.360877    0.000000
   141  O2    c     0.733367    0.213880    0.694356    0.000000
   142  O2    c     0.187259    0.465652    0.524552    0.000000
   143  O2    c     0.518310    0.744488    0.857285    0.000000
   144  O2    c     0.234551    0.786307    0.192183    0.000000
   145  O2    c     0.515888    0.795079    0.297714    0.000000
   146  O2    c     0.234962    0.459641    0.967811    0.000000
   147  O2    c     0.186004    0.737057    0.630825    0.000000
   148  O2    c     0.445682    0.201629    0.805176    0.000000
   149  O2    c     0.729537    0.541322    0.473072    0.000000
   150  O2    c     0.764135    0.246360    0.133157    0.000000
   151  O2    c     0.215164    0.317451    0.894154    0.000000
   152  O2    c     0.660317    0.916898    0.226376    0.000000
   153  O2    c     0.061977    0.759511    0.559429    0.000000
   154  O2    c     0.752789    0.677819    0.396683    0.000000
   155  O2    c     0.303611    0.084666    0.729574    0.000000
   156  O2    c     0.883899    0.225332    0.059236    0.000000
   157  O2    c     0.305090    0.236839    0.432469    0.000000
   158  O2    c     0.882251    0.663768    0.094237    0.000000
   159  O2    c     0.749266    0.084839    0.766641    0.000000
   160  O2    c     0.661589    0.762348    0.931629    0.000000
   161  O2    c     0.066785    0.323684    0.597977    0.000000
   162  O2    c     0.219778    0.910760    0.265536    0.000000
   163  O2    c     0.569579    0.555358    0.988338    0.000000
   164  O2    c     0.430732    0.027908    0.320789    0.000000
   165  O2    c     0.951593    0.413793    0.653131    0.000000
   166  O2    c     0.394888    0.445837    0.487475    0.000000
   167  O2    c     0.538820    0.961877    0.820729    0.000000
   168  O2    c     0.998216    0.574931    0.148558    0.000000
   169  O2    c     0.543715    0.594391    0.339913    0.000000
   170  O2    c     0.003578    0.432967    0.004782    0.000000
   171  O2    c     0.387863    0.964833    0.673190    0.000000
   172  O2    c     0.424893    0.402820    0.840469    0.000000
   173  O3    c     0.950865    0.570693    0.498253    0.000000
   174  O3    c     0.580024    0.025170    0.165544    0.000000
   175  O3    c     0.580586    0.184341    0.253603    0.000000
   176  O3    c     0.792864    0.407876    0.586010    0.000000
   177  O2    c     0.571579    0.417639    0.915535    0.000000
   178  O2    c     0.396314    0.826553    0.746211    0.000000
   179  O2    c     0.136927    0.572719    0.077980    0.000000
   180  O2    c     0.396961    0.585485    0.412972    0.000000
   181  F     c     0.453906    0.945399    0.237857    0.000000
   182  F     c     0.032452    0.523834    0.570801    0.000000
   183  F     c     0.433949    0.546065    0.911520    0.000000
   184  F     c     0.527753    0.086713    0.746417    0.000000
   185  F     c     0.847749    0.433262    0.069181    0.000000
   186  F     c     0.525673    0.460367    0.412777    0.000000
   187  O2    s     0.913079    0.997915    0.994793    0.000000
   188  O2    s     0.987764    0.927631    0.325844    0.000000
   189  O2    s     0.052660    0.072425    0.660530    0.000000
   190  O2    s     0.062892    0.007804    0.493986    0.000000
   191  O2    s     0.979228    0.065619    0.826440    0.000000
   192  O2    s     0.906180    0.919868    0.161952    0.000000
   193  O2    s     0.337284    0.589441    0.329074    0.000000
   194  O2    s     0.391670    0.763963    0.662400    0.000000
   195  O2    s     0.216103    0.639572    0.994890    0.000000
   196  O2    s     0.630461    0.403433    0.833375    0.000000
   197  O3    s     0.568044    0.228732    0.167358    0.000000
   198  O3    s     0.745076    0.355982    0.499199    0.000000
   199  O3    s     0.567496    0.346861    0.997366    0.000000
   200  O2    s     0.746622    0.413183    0.670754    0.000000
   201  O2    s     0.636748    0.236337    0.337678    0.000000
   202  O2    s     0.392818    0.648294    0.496122    0.000000
   203  O2    s     0.210491    0.583577    0.162398    0.000000
   204  O2    s     0.332944    0.754598    0.829109    0.000000
   205  O2    s     0.112088    0.211801    0.965762    0.000000
   206  O2    s     0.766599    0.904826    0.298791    0.000000
   207  O2    s     0.073947    0.875094    0.632115    0.000000
   208  O2    s     0.863986    0.789254    0.467130    0.000000
   209  O2    s     0.196336    0.083563    0.800274    0.000000
   210  O2    s     0.881199    0.114188    0.131958    0.000000
   211  O2    s     0.201232    0.124848    0.359582    0.000000
   212  O2    s     0.899139    0.790339    0.025067    0.000000
   213  O2    s     0.858476    0.090884    0.694194    0.000000
   214  O2    s     0.767255    0.869505    0.859357    0.000000
   215  O2    s     0.081503    0.215505    0.527323    0.000000
   216  O2    s     0.091493    0.891203    0.194349    0.000000
   217  O2    s     0.896606    0.844043    0.244698    0.000000
   218  O2    s     0.126794    0.066620    0.578825    0.000000
   219  O2    s     0.923108    0.063384    0.910737    0.000000
   220  O2    s     0.057443    0.135277    0.744351    0.000000
   221  O2    s     0.847259    0.930261    0.078227    0.000000
   222  O2    s     0.048122    0.931805    0.410412    0.000000
   223  O2    s     0.898448    0.197409    0.975074    0.000000
   224  O2    s     0.778753    0.704561    0.314249    0.000000
   225  O2    s     0.275254    0.088417    0.647316    0.000000
   226  O2    s     0.082524    0.809790    0.476759    0.000000
   227  O2    s     0.188352    0.286291    0.811630    0.000000
   228  O2    s     0.686191    0.894710    0.143444    0.000000
   229  O2    s     0.191756    0.913752    0.348004    0.000000
   230  O2    s     0.691640    0.792833    0.013370    0.000000
   231  O2    s     0.069367    0.292162    0.680530    0.000000
   232  O2    s     0.776899    0.080327    0.848410    0.000000
   233  O2    s     0.283546    0.209949    0.515071    0.000000
   234  O2    s     0.879040    0.693531    0.177469    0.000000
   235  O2    s     0.310733    0.661494    0.245958    0.000000
   236  O2    s     0.316477    0.666400    0.579157    0.000000
   237  O2    s     0.309399    0.663252    0.911996    0.000000
   238  O2    s     0.650719    0.334447    0.751118    0.000000
   239  O3    s     0.617690    0.302105    0.084311    0.000000
   240  O2    s     0.659200    0.339598    0.416912    0.000000
   241  O2    s     0.364166    0.337181    0.964757    0.000000
   242  O2    s     0.650826    0.042496    0.298533    0.000000
   243  O2    s     0.938001    0.620733    0.631103    0.000000
   244  O2    s     0.605760    0.666061    0.465261    0.000000
   245  O2    s     0.318522    0.951018    0.798462    0.000000
   246  O2    s     0.012454    0.371570    0.128733    0.000000
   247  O2    s     0.324134    0.379245    0.360791    0.000000
   248  O2    s     0.018221    0.652587    0.025296    0.000000
   249  O2    s     0.602850    0.960655    0.695064    0.000000
   250  O2    s     0.642729    0.616150    0.861708    0.000000
   251  O3    s     0.943659    0.324125    0.526779    0.000000
   252  O3    s     0.339396    0.029813    0.194259    0.000000
   253  O3    s     0.759146    0.288226    0.004080    0.000000
   254  O2    s     0.670817    0.468187    0.345914    0.000000
   255  O2    s     0.514306    0.217653    0.679783    0.000000
   256  O2    s     0.202007    0.689454    0.509913    0.000000
   257  O2    s     0.294244    0.524589    0.842311    0.000000
   258  O2    s     0.445751    0.774858    0.176769    0.000000
   259  O2    s     0.296397    0.780540    0.314751    0.000000
   260  O2    s     0.450962    0.685951    0.981667    0.000000
   261  O2    s     0.199254    0.531068    0.647530    0.000000
   262  O2    s     0.670672    0.212588    0.818777    0.000000
   263  O2    s     0.516891    0.316918    0.484092    0.000000
   264  O2    s     0.749628    0.458141    0.145512    0.000000
   265  O3    s     0.775900    0.545932    0.020722    0.000000
   266  O2    s     0.452686    0.259860    0.363349    0.000000
   267  O2    s     0.725138    0.208060    0.696910    0.000000
   268  O2    s     0.184278    0.468797    0.526721    0.000000
   269  O2    s     0.515451    0.736048    0.859915    0.000000
   270  O2    s     0.241308    0.789591    0.194277    0.000000
   271  O2    s     0.513289    0.798349    0.295782    0.000000
   272  O2    s     0.243165    0.462893    0.965221    0.000000
   273  O2    s     0.182383    0.731055    0.628866    0.000000
   274  O2    s     0.448327    0.197074    0.802469    0.000000
   275  O2    s     0.723186    0.539368    0.470199    0.000000
   276  O2    s     0.768498    0.251449    0.130837    0.000000
   277  O2    s     0.225242    0.327184    0.894911    0.000000
   278  O2    s     0.651907    0.915642    0.227437    0.000000
   279  O2    s     0.063200    0.752339    0.560499    0.000000
   280  O2    s     0.743001    0.668457    0.397472    0.000000
   281  O2    s     0.313194    0.084669    0.730404    0.000000
   282  O2    s     0.883653    0.233069    0.060203    0.000000
   283  O2    s     0.315159    0.246024    0.431504    0.000000
   284  O2    s     0.882197    0.655470    0.093860    0.000000
   285  O2    s     0.739983    0.085142    0.765654    0.000000
   286  O2    s     0.651819    0.753007    0.930655    0.000000
   287  O2    s     0.067085    0.332033    0.597471    0.000000
   288  O2    s     0.227851    0.910428    0.265025    0.000000
   289  O2    s     0.566221    0.556346    0.985019    0.000000
   290  O2    s     0.429302    0.023912    0.317960    0.000000
   291  O2    s     0.955665    0.416687    0.650353    0.000000
   292  O2    s     0.399797    0.445849    0.484103    0.000000
   293  O2    s     0.539088    0.966664    0.817464    0.000000
   294  O2    s     0.994841    0.571122    0.145699    0.000000
   295  O2    s     0.543433    0.588725    0.343364    0.000000
   296  O2    s     0.000573    0.433635    0.007588    0.000000
   297  O2    s     0.393325    0.970088    0.676649    0.000000
   298  O2    s     0.424586    0.407891    0.843759    0.000000
   299  O3    s     0.960398    0.576197    0.501916    0.000000
   300  O3    s     0.576059    0.015852    0.169182    0.000000
   301  O3    s     0.575350    0.171689    0.255322    0.000000
   302  O3    s     0.805628    0.415434    0.587759    0.000000
   303  O2    s     0.565998    0.422181    0.915131    0.000000
   304  O2    s     0.401895    0.837732    0.746236    0.000000
   305  O2    s     0.127417    0.567831    0.078087    0.000000
   306  O2    s     0.403080    0.579998    0.412987    0.000000
   307  F     s     0.457897    0.955842    0.235306    0.000000
   308  F     s     0.021564    0.517154    0.568163    0.000000
   309  F     s     0.433399    0.546715    0.911305    0.000000
   310  F     s     0.527889    0.086880    0.746173    0.000000
   311  F     s     0.836891    0.429263    0.066520    0.000000
   312  F     s     0.525128    0.460688    0.412531    0.000000
--------------------------------------------------------------------------------

  Final Cartesian lattice vectors (Angstroms) :

       11.975721    0.003071   -0.004192
       -6.105449   10.371544    0.009240
       -0.352978   -0.207244   29.484901


  Final cell parameters and derivatives :

--------------------------------------------------------------------------------
       a           11.975722 Angstrom     dE/de1(xx)     0.004563 eV/strain
       b           12.035179 Angstrom     dE/de2(yy)     0.003962 eV/strain
       c           29.487742 Angstrom     dE/de3(zz)     0.005839 eV/strain
       alpha       89.955104 Degrees      dE/de4(yz)    -0.000479 eV/strain
       beta        90.706025 Degrees      dE/de5(xz)     0.000036 eV/strain
       gamma      120.469490 Degrees      dE/de6(xy)     0.000167 eV/strain
--------------------------------------------------------------------------------

  Primitive cell volume =          3662.777919 Angs**3

  Density of cell =      1.746787 g/cm**3

  Non-primitive cell volume =          3662.777919 Angs**3


  Final internal derivatives :

--------------------------------------------------------------------------------
   No.  Atomic          a             b             c           Radius
        Label          (eV)          (eV)          (eV)        (eV/Angs)
--------------------------------------------------------------------------------
      1 Ge    c       0.000000      0.000000      0.000000      0.000000
      2 Si    c      -0.000007      0.000013      0.000687      0.000000
      3 Si    c       0.000095     -0.000061      0.000330      0.000000
      4 Si    c      -0.000013      0.000035      0.000226      0.000000
      5 Si    c       0.000596     -0.000445     -0.000883      0.000000
      6 Si    c       0.000330      0.000296      0.000743      0.000000
      7 Si    c       0.000034      0.000102     -0.000199      0.000000
      8 Si    c       0.000998     -0.000760     -0.000082      0.000000
      9 Si    c      -0.000015      0.000011     -0.000395      0.000000
     10 Si    c       0.000148     -0.000472     -0.000804      0.000000
     11 Si    c      -0.000066      0.000010     -0.000392      0.000000
     12 Si    c       0.001120     -0.000690      0.006210      0.000000
     13 Si    c      -0.003347      0.002438     -0.002636      0.000000
     14 Si    c       0.000162     -0.000237      0.000017      0.000000
     15 Si    c       0.000272     -0.000103     -0.000271      0.000000
     16 Si    c       0.000178     -0.000110     -0.000006      0.000000
     17 Si    c       0.000120      0.000262      0.000028      0.000000
     18 Si    c      -0.000135      0.000064      0.001151      0.000000
     19 Si    c       0.000138      0.000039      0.000489      0.000000
     20 Si    c      -0.000660      0.000176     -0.000327      0.000000
     21 Si    c       0.000089      0.000007      0.000283      0.000000
     22 Si    c      -0.000519      0.000458     -0.001818      0.000000
     23 Ge    c       0.000126     -0.000117     -0.000135      0.000000
     24 Ge    c       0.000130     -0.000579      0.000728      0.000000
     25 Si    c       0.000328      0.000024     -0.001432      0.000000
     26 Si    c       0.000104     -0.000014     -0.000159      0.000000
     27 Si    c       0.000159     -0.000007     -0.000050      0.000000
     28 Si    c       0.000077      0.000122      0.000016      0.000000
     29 Si    c       0.000014     -0.000056     -0.000100      0.000000
     30 Si    c       0.000293      0.000206     -0.002600      0.000000
     31 Si    c       0.000069     -0.000127     -0.000027      0.000000
     32 Si    c       0.000874     -0.000048      0.002327      0.000000
     33 Si    c      -0.000011     -0.000030      0.000122      0.000000
     34 Si    c      -0.000108     -0.000050      0.001161      0.000000
     35 Si    c       0.000079     -0.000155      0.000076      0.000000
     36 Si    c       0.000005      0.000051      0.000633      0.000000
     37 Si    c       0.000289     -0.000005      0.001340      0.000000
     38 Si    c       0.000163     -0.000056      0.000002      0.000000
     39 Si    c       0.000137      0.000034     -0.000037      0.000000
     40 Si    c       0.000062      0.000037     -0.000097      0.000000
     41 Si    c       0.000184      0.000019      0.000259      0.000000
     42 Si    c       0.000442     -0.000157      0.002163      0.000000
     43 Si    c       0.000093     -0.000193      0.000267      0.000000
     44 Si    c       0.001102      0.000331     -0.002123      0.000000
     45 Si    c       0.000116     -0.000057      0.000026      0.000000
     46 Si    c       0.000020      0.000085     -0.001301      0.000000
     47 Si    c       0.000116     -0.000121     -0.000024      0.000000
     48 Si    c       0.000177     -0.000089     -0.000411      0.000000
     49 Si    c       0.000945     -0.000501      0.001787      0.000000
     50 Si    c       0.000073      0.000058      0.001396      0.000000
     51 Si    c      -0.000060      0.000067      0.000178      0.000000
     52 Si    c       0.000118     -0.000068     -0.000079      0.000000
     53 Si    c       0.000134      0.000080      0.000260      0.000000
     54 Si    c       0.000174     -0.000230     -0.000236      0.000000
     55 Si    c       0.000011     -0.000073     -0.000215      0.000000
     56 Si    c      -0.000326      0.001114     -0.002541      0.000000
     57 Si    c       0.000080     -0.000008     -0.001517      0.000000
     58 Si    c       0.000016     -0.000014     -0.000940      0.000000
     59 Si    c       0.000081     -0.000019     -0.000040      0.000000
     60 Si    c       0.000064      0.000012     -0.000379      0.000000
     61 O2    c       0.000277     -0.000570      0.001315      0.000000
     62 O2    c       0.000021     -0.000072     -0.000244      0.000000
     63 O2    c       0.000056     -0.000028     -0.000013      0.000000
     64 O2    c       0.000079     -0.000090     -0.000204      0.000000
     65 O2    c       0.000258     -0.000104     -0.000007      0.000000
     66 O2    c       0.000304      0.000231      0.000160      0.000000
     67 O2    c      -0.000038     -0.000143     -0.000041      0.000000
     68 O2    c       0.000270     -0.000146      0.000045      0.000000
     69 O2    c      -0.000637      0.001093      0.000902      0.000000
     70 O2    c       0.000081      0.000401      0.000852      0.000000
     71 O3    c      -0.001303      0.000775      0.001808      0.000000
     72 O3    c       0.000423     -0.000327      0.000729      0.000000
     73 O3    c       0.002249     -0.005323      0.008538      0.000000
     74 O2    c      -0.000057      0.000152      0.000271      0.000000
     75 O2    c       0.000384     -0.000270     -0.000155      0.000000
     76 O2    c       0.000289     -0.000104     -0.000203      0.000000
     77 O2    c       0.000020     -0.000696     -0.001753      0.000000
     78 O2    c      -0.000185      0.000253     -0.000333      0.000000
     79 O2    c       0.000604     -0.000253      0.000647      0.000000
     80 O2    c      -0.000095      0.000103      0.000100      0.000000
     81 O2    c       0.000118     -0.000214      0.000017      0.000000
     82 O2    c       0.000097     -0.000065     -0.000000      0.000000
     83 O2    c       0.000129     -0.000015      0.000133      0.000000
     84 O2    c       0.000190      0.000210      0.000208      0.000000
     85 O2    c       0.000137      0.000138     -0.000026      0.000000
     86 O2    c       0.001876     -0.001819     -0.000699      0.000000
     87 O2    c      -0.000190      0.000014     -0.000098      0.000000
     88 O2    c       0.000102      0.000030     -0.000088      0.000000
     89 O2    c       0.000113     -0.000067     -0.000033      0.000000
     90 O2    c       0.000188      0.000036     -0.000302      0.000000
     91 O2    c       0.000267     -0.000121     -0.001713      0.000000
     92 O2    c       0.000065     -0.000011     -0.000282      0.000000
     93 O2    c       0.000288     -0.000458     -0.003490      0.000000
     94 O2    c       0.000491     -0.000330      0.002351      0.000000
     95 O2    c       0.000049      0.000677      0.005171      0.000000
     96 O2    c       0.000040     -0.000100      0.000629      0.000000
     97 O2    c      -0.001596      0.001543      0.000758      0.000000
     98 O2    c       0.000120     -0.000366      0.000133      0.000000
     99 O2    c       0.000273     -0.000020      0.000100      0.000000
    100 O2    c       0.000069     -0.000013     -0.000138      0.000000
    101 O2    c       0.000059      0.000016     -0.000057      0.000000
    102 O2    c      -0.000054     -0.000029      0.000003      0.000000
    103 O2    c       0.000367     -0.000349     -0.000199      0.000000
    104 O2    c      -0.001149      0.000195     -0.000155      0.000000
    105 O2    c       0.000126      0.000167     -0.000121      0.000000
    106 O2    c      -0.000098      0.000229      0.000060      0.000000
    107 O2    c       0.000098     -0.000068     -0.000078      0.000000
    108 O2    c       0.000043     -0.000141      0.000267      0.000000
    109 O2    c       0.000141     -0.000231      0.000535      0.000000
    110 O2    c       0.000165     -0.000038      0.000002      0.000000
    111 O2    c      -0.000422      0.000503     -0.000117      0.000000
    112 O2    c       0.000094      0.000080     -0.000259      0.000000
    113 O3    c      -0.003964      0.000081     -0.001899      0.000000
    114 O2    c       0.000123     -0.000096     -0.000064      0.000000
    115 O2    c       0.000115     -0.000051      0.000283      0.000000
    116 O2    c       0.000082      0.000012     -0.000008      0.000000
    117 O2    c       0.000054      0.000017      0.000033      0.000000
    118 O2    c       0.000005     -0.000039      0.000134      0.000000
    119 O2    c       0.000155     -0.000035      0.000066      0.000000
    120 O2    c       0.000259      0.000184      0.000322      0.000000
    121 O2    c       0.000012     -0.000133     -0.000077      0.000000
    122 O2    c      -0.000043      0.000178     -0.000054      0.000000
    123 O2    c       0.000167     -0.000054      0.000010      0.000000
    124 O2    c       0.000141     -0.000206     -0.000276      0.000000
    125 O3    c       0.000031     -0.000008     -0.000033      0.000000
    126 O3    c       0.000095      0.000019     -0.000312      0.000000
    127 O3    c      -0.000373      0.000429     -0.000876      0.000000
    128 O2    c       0.000192     -0.000101     -0.000197      0.000000
    129 O2    c       0.000069      0.000065     -0.000099      0.000000
    130 O2    c       0.000144     -0.000079      0.000109      0.000000
    131 O2    c      -0.000056      0.000409     -0.000050      0.000000
    132 O2    c      -0.000003     -0.000101     -0.000243      0.000000
    133 O2    c       0.000193     -0.000291     -0.000048      0.000000
    134 O2    c      -0.000170      0.000184      0.000290      0.000000
    135 O2    c       0.000181     -0.000077      0.000054      0.000000
    136 O2    c       0.000009      0.000157      0.000087      0.000000
    137 O2    c       0.000176     -0.000119      0.000020      0.000000
    138 O2    c      -0.000283     -0.000148      0.001506      0.000000
    139 O3    c      -0.001028     -0.000314     -0.003987      0.000000
    140 O2    c       0.000170     -0.000167     -0.000155      0.000000
    141 O2    c       0.000126      0.000040     -0.000211      0.000000
    142 O2    c       0.000152     -0.000070     -0.000002      0.000000
    143 O2    c      -0.000125      0.000154     -0.000192      0.000000
    144 O2    c      -0.000128      0.000139     -0.000233      0.000000
    145 O2    c      -0.000000     -0.000169      0.000238      0.000000
    146 O2    c      -0.000134      0.000176      0.000683      0.000000
    147 O2    c       0.000172     -0.000063      0.000023      0.000000
    148 O2    c       0.000040      0.000076      0.000058      0.000000
    149 O2    c       0.000166     -0.000153      0.000233      0.000000
    150 O2    c      -0.000267      0.000093      0.000947      0.000000
    151 O2    c      -0.000390     -0.000217      0.000705      0.000000
    152 O2    c       0.000222     -0.000094      0.000334      0.000000
    153 O2    c       0.000082      0.000005      0.000027      0.000000
    154 O2    c       0.000113     -0.000046     -0.000100      0.000000
    155 O2    c       0.000000      0.000049     -0.000017      0.000000
    156 O2    c       0.000587     -0.000582     -0.001183      0.000000
    157 O2    c       0.000082     -0.000082     -0.000076      0.000000
    158 O2    c      -0.000023      0.000531      0.000691      0.000000
    159 O2    c       0.000197     -0.000050     -0.000159      0.000000
    160 O2    c       0.000295      0.000214     -0.000104      0.000000
    161 O2    c       0.000128     -0.000095      0.000056      0.000000
    162 O2    c      -0.000137      0.000116     -0.000391      0.000000
    163 O2    c      -0.000072     -0.000176      0.000266      0.000000
    164 O2    c       0.000184     -0.000006      0.000090      0.000000
    165 O2    c       0.000046     -0.000006      0.000037      0.000000
    166 O2    c       0.000039      0.000025      0.000123      0.000000
    167 O2    c       0.000083     -0.000010     -0.000005      0.000000
    168 O2    c       0.000210     -0.000058      0.000123      0.000000
    169 O2    c       0.000095     -0.000004     -0.000226      0.000000
    170 O2    c       0.000202      0.000023     -0.000916      0.000000
    171 O2    c       0.000028      0.000019     -0.000131      0.000000
    172 O2    c       0.000477     -0.000165      0.000030      0.000000
    173 O3    c       0.000009     -0.000114     -0.000198      0.000000
    174 O3    c       0.000124      0.000132      0.000194      0.000000
    175 O3    c       0.000072      0.000222     -0.000323      0.000000
    176 O3    c      -0.000025     -0.000055      0.000031      0.000000
    177 O2    c       0.000550     -0.000479     -0.001951      0.000000
    178 O2    c       0.000138     -0.000084     -0.000246      0.000000
    179 O2    c       0.000446      0.000045     -0.000289      0.000000
    180 O2    c       0.000066     -0.000070     -0.000273      0.000000
    181 F     c       0.000122     -0.000103      0.000073      0.000000
    182 F     c       0.000137     -0.000054      0.000040      0.000000
    183 F     c       0.000128     -0.000060     -0.000150      0.000000
    184 F     c       0.000123     -0.000021      0.000058      0.000000
    185 F     c       0.000792     -0.000105     -0.000142      0.000000
    186 F     c       0.000068     -0.000044     -0.000050      0.000000
    187 O2    s       0.000195      0.000009     -0.000875      0.000000
    188 O2    s       0.000110      0.000005      0.000249      0.000000
    189 O2    s       0.000154     -0.000140     -0.000131      0.000000
    190 O2    s       0.000058     -0.000066      0.000214      0.000000
    191 O2    s       0.000166     -0.000133     -0.000367      0.000000
    192 O2    s       0.000151      0.000097      0.000322      0.000000
    193 O2    s       0.000174     -0.000043     -0.000097      0.000000
    194 O2    s       0.000019      0.000086     -0.000044      0.000000
    195 O2    s       0.000391     -0.000650     -0.000742      0.000000
    196 O2    s       0.000319     -0.000069      0.000039      0.000000
    197 O3    s       0.000679     -0.000769      0.000484      0.000000
    198 O3    s       0.000009     -0.000047     -0.000232      0.000000
    199 O3    s       0.000237      0.003127     -0.002936      0.000000
    200 O2    s       0.000202     -0.000138     -0.000023      0.000000
    201 O2    s      -0.000016     -0.000008      0.000063      0.000000
    202 O2    s       0.000067      0.000010     -0.000228      0.000000
    203 O2    s       0.000174      0.000047      0.000465      0.000000
    204 O2    s      -0.000037      0.000091     -0.000241      0.000000
    205 O2    s       0.000809      0.000175      0.000409      0.000000
    206 O2    s      -0.000014      0.000186      0.000272      0.000000
    207 O2    s       0.000070     -0.000100      0.000178      0.000000
    208 O2    s       0.000094     -0.000032      0.000088      0.000000
    209 O2    s       0.000092     -0.000080     -0.000114      0.000000
    210 O2    s       0.000043     -0.000083      0.000694      0.000000
    211 O2    s       0.000022      0.000096     -0.000148      0.000000
    212 O2    s       0.000430     -0.000249     -0.000621      0.000000
    213 O2    s      -0.000080     -0.000106     -0.000074      0.000000
    214 O2    s       0.000265     -0.000113     -0.000058      0.000000
    215 O2    s       0.000084     -0.000093     -0.000045      0.000000
    216 O2    s       0.000172      0.000001      0.000438      0.000000
    217 O2    s       0.000121      0.000047      0.000463      0.000000
    218 O2    s       0.000036     -0.000008     -0.000169      0.000000
    219 O2    s      -0.000158     -0.000295      0.000036      0.000000
    220 O2    s       0.000030      0.000007     -0.000474      0.000000
    221 O2    s       0.000008      0.000119     -0.000212      0.000000
    222 O2    s       0.000015     -0.000057      0.000034      0.000000
    223 O2    s      -0.000778      0.000361      0.000417      0.000000
    224 O2    s       0.000123     -0.000212      0.000322      0.000000
    225 O2    s       0.000129     -0.000013     -0.000003      0.000000
    226 O2    s       0.000131     -0.000058      0.000026      0.000000
    227 O2    s      -0.000053      0.000073     -0.001065      0.000000
    228 O2    s       0.000011     -0.000111     -0.000100      0.000000
    229 O2    s       0.000096     -0.000081      0.000299      0.000000
    230 O2    s      -0.000469      0.000132     -0.001090      0.000000
    231 O2    s       0.000141      0.000103     -0.000156      0.000000
    232 O2    s      -0.000024      0.000115     -0.000065      0.000000
    233 O2    s       0.000108     -0.000099      0.000176      0.000000
    234 O2    s       0.000010     -0.000070      0.000219      0.000000
    235 O2    s       0.000169     -0.000114      0.000380      0.000000
    236 O2    s       0.000107     -0.000037      0.000154      0.000000
    237 O2    s       0.000204     -0.000058      0.000026      0.000000
    238 O2    s       0.000221      0.000016     -0.000300      0.000000
    239 O3    s       0.003160      0.000006     -0.001216      0.000000
    240 O2    s       0.000101     -0.000084     -0.000045      0.000000
    241 O2    s      -0.000504      0.000204     -0.000299      0.000000
    242 O2    s       0.000155     -0.000037      0.000308      0.000000
    243 O2    s       0.000091     -0.000021      0.000126      0.000000
    244 O2    s       0.000048      0.000029     -0.000023      0.000000
    245 O2    s       0.000008     -0.000058     -0.000032      0.000000
    246 O2    s       0.000270     -0.000017     -0.000002      0.000000
    247 O2    s       0.000156     -0.000055     -0.000104      0.000000
    248 O2    s       0.000075      0.000047     -0.000314      0.000000
    249 O2    s       0.000060      0.000015     -0.000183      0.000000
    250 O2    s       0.000477     -0.000160      0.000169      0.000000
    251 O3    s       0.000077     -0.000114     -0.000131      0.000000
    252 O3    s       0.000046      0.000079      0.000401      0.000000
    253 O3    s      -0.000188     -0.000124      0.001808      0.000000
    254 O2    s       0.000033     -0.000032     -0.000062      0.000000
    255 O2    s       0.000157     -0.000056     -0.000072      0.000000
    256 O2    s       0.000074     -0.000012     -0.000305      0.000000
    257 O2    s      -0.000183      0.000134     -0.000633      0.000000
    258 O2    s       0.000316     -0.000045     -0.000031      0.000000
    259 O2    s       0.000079     -0.000133      0.000203      0.000000
    260 O2    s       0.000197      0.000198      0.000107      0.000000
    261 O2    s       0.000112     -0.000041      0.000180      0.000000
    262 O2    s       0.000298     -0.000082      0.000109      0.000000
    263 O2    s       0.000053     -0.000091      0.000185      0.000000
    264 O2    s       0.000069      0.000231     -0.002295      0.000000
    265 O3    s       0.000267     -0.000430      0.003991      0.000000
    266 O2    s       0.000065      0.000052      0.000083      0.000000
    267 O2    s      -0.000023      0.000054      0.000207      0.000000
    268 O2    s       0.000071     -0.000086     -0.000194      0.000000
    269 O2    s       0.000177      0.000125     -0.000273      0.000000
    270 O2    s       0.000081      0.000198      0.000157      0.000000
    271 O2    s       0.000034     -0.000081     -0.000016      0.000000
    272 O2    s       0.000071      0.000324     -0.000746      0.000000
    273 O2    s       0.000120     -0.000073      0.000054      0.000000
    274 O2    s       0.000084     -0.000072      0.000148      0.000000
    275 O2    s       0.000084     -0.000014     -0.000030      0.000000
    276 O2    s      -0.000143      0.000159     -0.000793      0.000000
    277 O2    s       0.000346      0.000048      0.000403      0.000000
    278 O2    s       0.000133     -0.000099     -0.000178      0.000000
    279 O2    s       0.000089     -0.000042     -0.000022      0.000000
    280 O2    s       0.000088     -0.000089     -0.000055      0.000000
    281 O2    s       0.000150     -0.000059     -0.000171      0.000000
    282 O2    s      -0.000665      0.000429     -0.000696      0.000000
    283 O2    s       0.000065     -0.000069     -0.000027      0.000000
    284 O2    s      -0.000304     -0.000106     -0.000484      0.000000
    285 O2    s       0.000124      0.000021     -0.000053      0.000000
    286 O2    s       0.000112     -0.000107      0.000466      0.000000
    287 O2    s       0.000080     -0.000047      0.000007      0.000000
    288 O2    s       0.000162     -0.000059     -0.000208      0.000000
    289 O2    s       0.000698     -0.000091      0.000166      0.000000
    290 O2    s       0.000159     -0.000008      0.000173      0.000000
    291 O2    s       0.000080     -0.000021      0.000060      0.000000
    292 O2    s       0.000037     -0.000041      0.000033      0.000000
    293 O2    s       0.000135     -0.000033      0.000197      0.000000
    294 O2    s       0.000193     -0.000006     -0.000116      0.000000
    295 O2    s       0.000080     -0.000162      0.000187      0.000000
    296 O2    s       0.000007     -0.000090      0.001156      0.000000
    297 O2    s       0.000210     -0.000105      0.000052      0.000000
    298 O2    s       0.000351     -0.000211     -0.000580      0.000000
    299 O3    s       0.000103     -0.000047     -0.000025      0.000000
    300 O3    s       0.000029      0.000071     -0.000794      0.000000
    301 O3    s       0.000124     -0.000132      0.000434      0.000000
    302 O3    s       0.000140     -0.000078     -0.000125      0.000000
    303 O2    s       0.000664      0.000237      0.000108      0.000000
    304 O2    s       0.000057      0.000086     -0.000058      0.000000
    305 O2    s      -0.000137     -0.000076      0.000410      0.000000
    306 O2    s       0.000089     -0.000045      0.000125      0.000000
    307 F     s       0.000054     -0.000024      0.000138      0.000000
    308 F     s       0.000107     -0.000023      0.000054      0.000000
    309 F     s       0.000019      0.000162      0.000406      0.000000
    310 F     s       0.000093      0.000039     -0.000271      0.000000
    311 F     s      -0.000818      0.000137     -0.000013      0.000000
    312 F     s       0.000107     -0.000111      0.000009      0.000000
--------------------------------------------------------------------------------
  Maximum abs         0.003964      0.005323      0.008538      0.000000
--------------------------------------------------------------------------------


  Time to end of optimisation =      43.7016 seconds


  Peak dynamic memory used =      19.13 MB 


  Timing analysis for GULP :

--------------------------------------------------------------------------------
  Task / Subroutine                                          Time (Seconds)
--------------------------------------------------------------------------------
  Calculation of reciprocal space energy and derivatives          1.2380
  Calculation of real space energy and derivatives               37.8518
  Calculation of three-body energy and derivatives                3.7826
  Calculation of matrix inversion                                 0.7438
--------------------------------------------------------------------------------
  Total CPU time                                                 43.7017
--------------------------------------------------------------------------------


  Dump file written as out.res                                                 
  CIF file written as out.cif                                                 


  Job Finished at 14:28.29  3rd November   2016                               

