********************************************************************************
*                       GENERAL UTILITY LATTICE PROGRAM                        *
*                                 Julian Gale                                  *
*                      Nanochemistry Research Institute                        *
*                           Department of Chemistry                            *
*                    Curtin University, Western Australia                      *
********************************************************************************
* Version = 4.2.0 * Last modified =  20th January 2014                         *
********************************************************************************
*  optimise     - perform optimisation run                                     *
*  conp         - constant pressure calculation                                *
*  qok          - running with non charge neutral cell is OK                   *
********************************************************************************

  Job Started  at 16:34.06  4th November   2016                               

  Number of CPUs =     1


  Total number of configurations input =   1

********************************************************************************
*  Input for Configuration =   1                                               *
********************************************************************************

  Formula = Ge3Si57O120F6                                               

  Number of irreducible atoms/shells =     312


  Total number atoms/shells =     312

  Dimensionality = 3               :  Bulk   


  Charge on solid   =  -6.000000 =>neutralising background added


  Cartesian lattice vectors (Angstroms) :

       11.953980    0.000000    0.000000
       -6.048246   10.401357    0.000000
       -0.479021   -0.189411   29.353246

  Cell parameters (Angstroms/Degrees):

  a =      11.9540    alpha =  89.8496
  b =      12.0320    beta  =  90.9349
  c =      29.3578    gamma = 120.1774

  Initial cell volume =        3649.712416 Angs**3

  Temperature of configuration =  0.000     K 

  Pressure of configuration =         0.000 GPa 

  Fractional coordinates of asymmetric unit :

--------------------------------------------------------------------------------
   No.  Atomic       x           y          z         Charge      Occupancy
        Label      (Frac)      (Frac)     (Frac)        (e)         (Frac)  
--------------------------------------------------------------------------------
      1 Ge    c    0.699600    0.375700    0.033890     4.00000    1.000000    
      2 Si    c    0.621524 *  0.321017 *  0.364832 *   4.00000    1.000000    
      3 Si    c    0.675168 *  0.305520 *  0.697501 *   4.00000    1.000000    
      4 Si    c    0.300084 *  0.615963 *  0.530757 *   4.00000    1.000000    
      5 Si    c    0.370465 *  0.681736 *  0.859013 *   4.00000    1.000000    
      6 Si    c    0.317790 *  0.702258 *  0.196201 *   4.00000    1.000000    
      7 Si    c    0.374985 *  0.696250 *  0.297126 *   4.00000    1.000000    
      8 Si    c    0.311564 *  0.617734 *  0.961175 *   4.00000    1.000000    
      9 Si    c    0.309335 *  0.682036 *  0.633156 *   4.00000    1.000000    
     10 Si    c    0.629539 *  0.305080 *  0.798662 *   4.00000    1.000000    
     11 Si    c    0.676775 *  0.378200 *  0.465808 *   4.00000    1.000000    
     12 Si    c    0.683974 *  0.316156 *  0.132829 *   4.00000    1.000000    
     13 Si    c    0.524823 *  0.412778 *  0.964641 *   4.00000    1.000000    
     14 Si    c    0.582343 *  0.106867 *  0.302157 *   4.00000    1.000000    
     15 Si    c    0.884744 *  0.470866 *  0.634985 *   4.00000    1.000000    
     16 Si    c    0.468464 *  0.578694 *  0.464222 *   4.00000    1.000000    
     17 Si    c    0.421656 *  0.901013 *  0.796917 *   4.00000    1.000000    
     18 Si    c    0.105213 *  0.530246 *  0.128928 *   4.00000    1.000000    
     19 Si    c    0.415425 *  0.524359 *  0.361921 *   4.00000    1.000000    
     20 Si    c    0.098806 *  0.578688 *  0.025172 *   4.00000    1.000000    
     21 Si    c    0.476145 *  0.902508 *  0.696072 *   4.00000    1.000000    
     22 Si    c    0.585681 *  0.470839 *  0.861313 *   4.00000    1.000000    
     23 Si    c    0.885497 *  0.409902 *  0.532175 *   4.00000    1.000000    
     24 Si    c    0.526031 *  0.109560 *  0.200462 *   4.00000    1.000000    
     25 Ge    c    0.310757 *  0.412116 *  0.852303 *   4.00000    1.000000    
     26 Si    c    0.597243 *  0.903567 *  0.183217 *   4.00000    1.000000    
     27 Si    c    0.096277 *  0.693978 *  0.515778 *   4.00000    1.000000    
     28 Si    c    0.696597 *  0.596558 *  0.348607 *   4.00000    1.000000    
     29 Si    c    0.396886 *  0.104411 *  0.682709 *   4.00000    1.000000    
     30 Si    c    0.885717 *  0.291003 *  0.010384 *   4.00000    1.000000    
     31 Si    c    0.397302 *  0.299285 *  0.479479 *   4.00000    1.000000    
     32 Si    c    0.890784 *  0.600666 *  0.142682 *   4.00000    1.000000    
     33 Si    c    0.705715 *  0.104098 *  0.811867 *   4.00000    1.000000    
     34 Si    c    0.593723 *  0.696724 *  0.978032 *   4.00000    1.000000    
     35 Ge    c    0.099909 *  0.411059 *  0.641293 *   4.00000    1.000000    
     36 Si    c    0.300490 *  0.897216 *  0.313887 *   4.00000    1.000000    
     37 Si    c    0.240394 *  0.332697 *  0.948337 *   4.00000    1.000000    
     38 Si    c    0.657377 *  0.906126 *  0.284343 *   4.00000    1.000000    
     39 Si    c    0.091508 *  0.751062 *  0.617519 *   4.00000    1.000000    
     40 Si    c    0.747577 *  0.656486 *  0.449639 *   4.00000    1.000000    
     41 Si    c    0.343640 *  0.101217 *  0.783663 *   4.00000    1.000000    
     42 Si    c    0.899815 *  0.248544 *  0.114043 *   4.00000    1.000000    
     43 Si    c    0.339460 *  0.247293 *  0.377955 *   4.00000    1.000000    
     44 Si    c    0.895793 *  0.659309 *  0.039760 *   4.00000    1.000000    
     45 Si    c    0.756425 *  0.103043 *  0.710710 *   4.00000    1.000000    
     46 Si    c    0.657162 *  0.750808 *  0.876256 *   4.00000    1.000000    
     47 Si    c    0.088031 *  0.329289 *  0.544756 *   4.00000    1.000000    
     48 Si    c    0.246168 *  0.908870 *  0.213064 *   4.00000    1.000000    
     49 Si    c    0.967338 *  0.118611 *  0.963873 *   4.00000    1.000000    
     50 Si    c    0.875140 *  0.842876 *  0.297754 *   4.00000    1.000000    
     51 Si    c    0.146750 *  0.030413 *  0.631146 *   4.00000    1.000000    
     52 Si    c    0.028553 *  0.872797 *  0.463909 *   4.00000    1.000000    
     53 Si    c    0.124313 *  0.161359 *  0.797745 *   4.00000    1.000000    
     54 Si    c    0.843276 *  0.972309 *  0.131486 *   4.00000    1.000000    
     55 Si    c    0.122013 *  0.966020 *  0.363168 *   4.00000    1.000000    
     56 Si    c    0.842172 *  0.879729 *  0.030040 *   4.00000    1.000000    
     57 Si    c    0.036000 *  0.161506 *  0.695133 *   4.00000    1.000000    
     58 Si    c    0.882112 *  0.029163 *  0.861895 *   4.00000    1.000000    
     59 Si    c    0.150500 *  0.117749 *  0.528786 *   4.00000    1.000000    
     60 Si    c    0.965867 *  0.849094 *  0.195976 *   4.00000    1.000000    
     61 O2    c    0.918270 *  0.001610 *  0.998603 *   0.87073    1.000000    
     62 O2    c    0.000906 *  0.924118 *  0.329284 *   0.87073    1.000000    
     63 O2    c    0.064268 *  0.068882 *  0.662659 *   0.87073    1.000000    
     64 O2    c    0.075140 *  0.994686 *  0.496124 *   0.87073    1.000000    
     65 O2    c    0.000633 *  0.068964 *  0.828980 *   0.87073    1.000000    
     66 O2    c    0.927105 *  0.934228 *  0.164500 *   0.87073    1.000000    
     67 O2    c    0.337642 *  0.572074 *  0.328773 *   0.87073    1.000000    
     68 O2    c    0.435871 *  0.781563 *  0.662101 *   0.87073    1.000000    
     69 O2    c    0.225214 *  0.653912 *  0.993767 *   0.87073    1.000000    
     70 O2    c    0.672941 *  0.427420 *  0.832423 *   0.87073    1.000000    
     71 O2    c    0.576466 *  0.238946 *  0.171011 *   0.87073    1.000000    
     72 O2    c    0.759551 *  0.337710 *  0.498921 *   0.87073    1.000000    
     73 O3    c    0.565818 *  0.336465 *  0.998000 *   1.33043    1.000000    
     74 O2    c    0.755424 *  0.428623 *  0.664361 *   0.87073    1.000000    
     75 O2    c    0.660037 *  0.233029 *  0.334362 *   0.87073    1.000000    
     76 O2    c    0.419880 *  0.654383 *  0.496776 *   0.87073    1.000000    
     77 O2    c    0.231608 *  0.581648 *  0.161801 *   0.87073    1.000000    
     78 O2    c    0.341977 *  0.779061 *  0.830057 *   0.87073    1.000000    
     79 O2    c    0.119791 *  0.211541 *  0.973739 *   0.87073    1.000000    
     80 O2    c    0.784193 *  0.905231 *  0.304264 *   0.87073    1.000000    
     81 O2    c    0.090497 *  0.876614 *  0.636102 *   0.87073    1.000000    
     82 O2    c    0.874215 *  0.784154 *  0.469563 *   0.87073    1.000000    
     83 O2    c    0.221677 *  0.103942 *  0.804765 *   0.87073    1.000000    
     84 O2    c    0.904379 *  0.126310 *  0.135412 *   0.87073    1.000000    
     85 O2    c    0.213066 *  0.119642 *  0.357708 *   0.87073    1.000000    
     86 O2    c    0.912498 *  0.796648 *  0.024228 *   0.87073    1.000000    
     87 O2    c    0.880528 *  0.105636 *  0.689045 *   0.87073    1.000000    
     88 O2    c    0.784037 *  0.875330 *  0.856961 *   0.87073    1.000000    
     89 O2    c    0.088852 *  0.208546 *  0.519528 *   0.87073    1.000000    
     90 O2    c    0.120544 *  0.911443 *  0.192661 *   0.87073    1.000000    
     91 O2    c    0.922364 *  0.854834 *  0.246515 *   0.87073    1.000000    
     92 O2    c    0.132698 *  0.064483 *  0.579297 *   0.87073    1.000000    
     93 O2    c    0.934363 *  0.060835 *  0.913555 *   0.87073    1.000000    
     94 O2    c    0.069635 *  0.137935 *  0.746114 *   0.87073    1.000000    
     95 O2    c    0.852058 *  0.928794 *  0.081269 *   0.87073    1.000000    
     96 O2    c    0.067523 *  0.924876 *  0.413263 *   0.87073    1.000000    
     97 O2    c    0.895772 *  0.199553 *  0.972615 *   0.87073    1.000000    
     98 O2    c    0.794391 *  0.692099 *  0.310122 *   0.87073    1.000000    
     99 O2    c    0.299056 *  0.103890 *  0.643524 *   0.87073    1.000000    
    100 O2    c    0.094681 *  0.787123 *  0.476152 *   0.87073    1.000000    
    101 O3    c    0.197237 *  0.307566 *  0.810042 *   1.33043    1.000000    
    102 O2    c    0.692491 *  0.902786 *  0.144614 *   0.87073    1.000000    
    103 O2    c    0.203833 *  0.896010 *  0.352324 *   0.87073    1.000000    
    104 O2    c    0.689503 *  0.793053 *  0.017532 *   0.87073    1.000000    
    105 O3    c    0.110378 *  0.307519 *  0.682640 *   1.33043    1.000000    
    106 O2    c    0.802053 *  0.101574 *  0.850986 *   0.87073    1.000000    
    107 O2    c    0.303384 *  0.201247 *  0.517857 *   0.87073    1.000000    
    108 O2    c    0.896051 *  0.699723 *  0.181148 *   0.87073    1.000000    
    109 O2    c    0.317762 *  0.641584 *  0.245966 *   0.87073    1.000000    
    110 O2    c    0.355603 *  0.672729 *  0.581220 *   0.87073    1.000000    
    111 O2    c    0.313362 *  0.672764 *  0.910668 *   0.87073    1.000000    
    112 O2    c    0.681225 *  0.362756 *  0.748184 *   0.87073    1.000000    
    113 O3    c    0.612670 *  0.303263 *  0.085318 *   1.33043    1.000000    
    114 O2    c    0.678692 *  0.322293 *  0.415544 *   0.87073    1.000000    
    115 O2    c    0.367482 *  0.328037 *  0.964937 *   0.87073    1.000000    
    116 O2    c    0.669183 *  0.037479 *  0.304131 *   0.87073    1.000000    
    117 O2    c    0.959150 *  0.627698 *  0.634301 *   0.87073    1.000000    
    118 O2    c    0.625333 *  0.666442 *  0.467507 *   0.87073    1.000000    
    119 O2    c    0.333920 *  0.968215 *  0.800509 *   0.87073    1.000000    
    120 O2    c    0.032934 *  0.374910 *  0.130822 *   0.87073    1.000000    
    121 O2    c    0.328420 *  0.368330 *  0.358874 *   0.87073    1.000000    
    122 O2    c    0.028032 *  0.663192 *  0.023575 *   0.87073    1.000000    
    123 O2    c    0.631875 *  0.970593 *  0.692891 *   0.87073    1.000000    
    124 O2    c    0.666353 *  0.627835 *  0.859816 *   0.87073    1.000000    
    125 O2    c    0.953628 *  0.323146 *  0.528322 *   0.87073    1.000000    
    126 O2    c    0.369375 *  0.040742 *  0.195614 *   0.87073    1.000000    
    127 O3    c    0.751299 *  0.282872 *  0.001950 *   1.33043    1.000000    
    128 O2    c    0.696016 *  0.462530 *  0.341464 *   0.87073    1.000000    
    129 O2    c    0.530676 *  0.237785 *  0.674997 *   0.87073    1.000000    
    130 O2    c    0.227905 *  0.689590 *  0.510262 *   0.87073    1.000000    
    131 O3    c    0.295828 *  0.546125 *  0.834442 *   1.33043    1.000000    
    132 O2    c    0.460865 *  0.771624 *  0.174091 *   0.87073    1.000000    
    133 O2    c    0.299583 *  0.762823 *  0.319840 *   0.87073    1.000000    
    134 O2    c    0.457585 *  0.693899 *  0.982561 *   0.87073    1.000000    
    135 O3    c    0.250809 *  0.547040 *  0.657474 *   1.33043    1.000000    
    136 O2    c    0.706030 *  0.237009 *  0.820173 *   0.87073    1.000000    
    137 O2    c    0.533532 *  0.303583 *  0.487401 *   0.87073    1.000000    
    138 O2    c    0.759436 *  0.465826 *  0.150993 *   0.87073    1.000000    
    139 O3    c    0.768273 *  0.545640 *  0.018766 *   1.33043    1.000000    
    140 O2    c    0.464947 *  0.246605 *  0.358807 *   0.87073    1.000000    
    141 O2    c    0.750421 *  0.225990 *  0.691726 *   0.87073    1.000000    
    142 O2    c    0.212257 *  0.461326 *  0.526559 *   0.87073    1.000000    
    143 O2    c    0.528074 *  0.746758 *  0.857834 *   0.87073    1.000000    
    144 O2    c    0.241484 *  0.781959 *  0.192499 *   0.87073    1.000000    
    145 O2    c    0.531467 *  0.779230 *  0.302687 *   0.87073    1.000000    
    146 O2    c    0.244572 *  0.463764 *  0.965977 *   0.87073    1.000000    
    147 O2    c    0.216086 *  0.745416 *  0.635173 *   0.87073    1.000000    
    148 O2    c    0.473837 *  0.223361 *  0.803617 *   0.87073    1.000000    
    149 O2    c    0.751796 *  0.534068 *  0.470259 *   0.87073    1.000000    
    150 O2    c    0.777737 *  0.253250 *  0.133903 *   0.87073    1.000000    
    151 O3    c    0.207848 *  0.306245 *  0.895729 *   1.33043    1.000000    
    152 O2    c    0.672787 *  0.906019 *  0.229763 *   0.87073    1.000000    
    153 O2    c    0.092741 *  0.760881 *  0.562536 *   0.87073    1.000000    
    154 O2    c    0.767701 *  0.672830 *  0.395166 *   0.87073    1.000000    
    155 O2    c    0.324290 *  0.102190 *  0.728926 *   0.87073    1.000000    
    156 O2    c    0.894180 *  0.231102 *  0.059681 *   0.87073    1.000000    
    157 O2    c    0.323311 *  0.229336 *  0.432341 *   0.87073    1.000000    
    158 O2    c    0.891808 *  0.667587 *  0.095316 *   0.87073    1.000000    
    159 O2    c    0.776204 *  0.103277 *  0.765424 *   0.87073    1.000000    
    160 O2    c    0.665308 *  0.761888 *  0.931279 *   0.87073    1.000000    
    161 O3    c    0.093416 *  0.304094 *  0.597235 *   1.33043    1.000000    
    162 O2    c    0.229203 *  0.905175 *  0.267577 *   0.87073    1.000000    
    163 O2    c    0.570435 *  0.555228 *  0.985049 *   0.87073    1.000000    
    164 O2    c    0.441264 *  0.020141 *  0.324519 *   0.87073    1.000000    
    165 O3    c    0.961669 *  0.412933 *  0.660909 *   1.33043    1.000000    
    166 O2    c    0.411043 *  0.438329 *  0.487298 *   0.87073    1.000000    
    167 O2    c    0.565163 *  0.979736 *  0.820087 *   0.87073    1.000000    
    168 O2    c    0.014161 *  0.581265 *  0.148829 *   0.87073    1.000000    
    169 O2    c    0.556511 *  0.582083 *  0.338957 *   0.87073    1.000000    
    170 O2    c    0.008087 *  0.436325 *  0.004547 *   0.87073    1.000000    
    171 O2    c    0.410677 *  0.979682 *  0.673044 *   0.87073    1.000000    
    172 O3    c    0.450268 *  0.409537 *  0.834666 *   1.33043    1.000000    
    173 O2    c    0.975163 *  0.551103 *  0.510593 *   0.87073    1.000000    
    174 O2    c    0.585067 *  0.030003 *  0.175649 *   0.87073    1.000000    
    175 O2    c    0.579743 *  0.160132 *  0.251642 *   0.87073    1.000000    
    176 O2    c    0.837805 *  0.414203 *  0.582934 *   0.87073    1.000000    
    177 O2    c    0.579378 *  0.421159 *  0.913597 *   0.87073    1.000000    
    178 O2    c    0.419918 *  0.844893 *  0.746228 *   0.87073    1.000000    
    179 O2    c    0.147658 *  0.577136 *  0.077222 *   0.87073    1.000000    
    180 O2    c    0.415340 *  0.578222 *  0.412737 *   0.87073    1.000000    
    181 F     c    0.447403 *  0.899933 *  0.247797 *   0.56000    1.000000    
    182 F     c    0.095649 *  0.514910 *  0.591692 *   0.56000    1.000000    
    183 F     c    0.417654 *  0.519393 *  0.901556 *   0.56000    1.000000    
    184 F     c    0.549496 *  0.102443 *  0.746582 *   0.56000    1.000000    
    185 F     c    0.850920 *  0.434857 *  0.069812 *   0.56000    1.000000    
    186 F     c    0.548991 *  0.450790 *  0.413404 *   0.56000    1.000000    
    187 O2    s    0.914820 *  0.000502 *  0.998385 *  -2.87073    1.000000    
    188 O2    s    0.000282 *  0.919630 *  0.329538 *  -2.87073    1.000000    
    189 O2    s    0.070831 *  0.073802 *  0.662340 *  -2.87073    1.000000    
    190 O2    s    0.078191 *  0.994312 *  0.496049 *  -2.87073    1.000000    
    191 O2    s    0.999618 *  0.073796 *  0.829597 *  -2.87073    1.000000    
    192 O2    s    0.922174 *  0.929011 *  0.164362 *  -2.87073    1.000000    
    193 O2    s    0.349379 *  0.580014 *  0.328866 *  -2.87073    1.000000    
    194 O2    s    0.426349 *  0.783270 *  0.662458 *  -2.87073    1.000000    
    195 O2    s    0.220683 *  0.642394 *  0.993770 *  -2.87073    1.000000    
    196 O2    s    0.659891 *  0.419402 *  0.831894 *  -2.87073    1.000000    
    197 O2    s    0.582380 *  0.233304 *  0.170126 *  -2.87073    1.000000    
    198 O2    s    0.764046 *  0.349526 *  0.498916 *  -2.87073    1.000000    
    199 O3    s    0.571370 *  0.347533 *  0.997139 *  -3.33043    1.000000    
    200 O2    s    0.760536 *  0.420656 *  0.664699 *  -2.87073    1.000000    
    201 O2    s    0.648034 *  0.228877 *  0.334126 *  -2.87073    1.000000    
    202 O2    s    0.412586 *  0.642654 *  0.496915 *  -2.87073    1.000000    
    203 O2    s    0.226964 *  0.588357 *  0.161811 *  -2.87073    1.000000    
    204 O2    s    0.353288 *  0.781299 *  0.829743 *  -2.87073    1.000000    
    205 O2    s    0.115348 *  0.213553 *  0.970235 *  -2.87073    1.000000    
    206 O2    s    0.780620 *  0.898697 *  0.301524 *  -2.87073    1.000000    
    207 O2    s    0.096370 *  0.878914 *  0.633635 *  -2.87073    1.000000    
    208 O2    s    0.877587 *  0.780380 *  0.466913 *  -2.87073    1.000000    
    209 O2    s    0.225180 *  0.109311 *  0.801838 *  -2.87073    1.000000    
    210 O2    s    0.897490 *  0.122761 *  0.132819 *  -2.87073    1.000000    
    211 O2    s    0.216432 *  0.116499 *  0.360348 *  -2.87073    1.000000    
    212 O2    s    0.903195 *  0.791614 *  0.026425 *  -2.87073    1.000000    
    213 O2    s    0.882617 *  0.110897 *  0.691957 *  -2.87073    1.000000    
    214 O2    s    0.780637 *  0.877966 *  0.859521 *  -2.87073    1.000000    
    215 O2    s    0.095239 *  0.210916 *  0.522925 *  -2.87073    1.000000    
    216 O2    s    0.117027 *  0.904498 *  0.195110 *  -2.87073    1.000000    
    217 O2    s    0.921958 *  0.852809 *  0.246570 *  -2.87073    1.000000    
    218 O2    s    0.136279 *  0.066826 *  0.579185 *  -2.87073    1.000000    
    219 O2    s    0.932343 *  0.063915 *  0.913643 *  -2.87073    1.000000    
    220 O2    s    0.071832 *  0.143000 *  0.746122 *  -2.87073    1.000000    
    221 O2    s    0.849917 *  0.928331 *  0.081356 *  -2.87073    1.000000    
    222 O2    s    0.069315 *  0.923651 *  0.413299 *  -2.87073    1.000000    
    223 O2    s    0.902395 *  0.200587 *  0.975704 *  -2.87073    1.000000    
    224 O2    s    0.793042 *  0.698414 *  0.312707 *  -2.87073    1.000000    
    225 O2    s    0.292703 *  0.096061 *  0.646201 *  -2.87073    1.000000    
    226 O2    s    0.087957 *  0.786308 *  0.479001 *  -2.87073    1.000000    
    227 O3    s    0.196764 *  0.298351 *  0.811524 *  -3.33043    1.000000    
    228 O2    s    0.698694 *  0.910252 *  0.147205 *  -2.87073    1.000000    
    229 O2    s    0.205133 *  0.903521 *  0.349517 *  -2.87073    1.000000    
    230 O2    s    0.695512 *  0.792130 *  0.014756 *  -2.87073    1.000000    
    231 O3    s    0.101519 *  0.298547 *  0.681220 *  -3.33043    1.000000    
    232 O2    s    0.800688 *  0.094185 *  0.848157 *  -2.87073    1.000000    
    233 O2    s    0.297223 *  0.202743 *  0.515008 *  -2.87073    1.000000    
    234 O2    s    0.902941 *  0.705377 *  0.178739 *  -2.87073    1.000000    
    235 O2    s    0.323504 *  0.653250 *  0.246032 *  -2.87073    1.000000    
    236 O2    s    0.345356 *  0.667591 *  0.580807 *  -2.87073    1.000000    
    237 O2    s    0.318539 *  0.667764 *  0.911128 *  -2.87073    1.000000    
    238 O2    s    0.675306 *  0.350930 *  0.748121 *  -2.87073    1.000000    
    239 O3    s    0.625768 *  0.309383 *  0.086771 *  -3.33043    1.000000    
    240 O2    s    0.672542 *  0.327943 *  0.415432 *  -2.87073    1.000000    
    241 O2    s    0.369969 *  0.337195 *  0.963106 *  -2.87073    1.000000    
    242 O2    s    0.659041 *  0.030916 *  0.301861 *  -2.87073    1.000000    
    243 O2    s    0.965749 *  0.625037 *  0.632581 *  -2.87073    1.000000    
    244 O2    s    0.622007 *  0.656345 *  0.465273 *  -2.87073    1.000000    
    245 O2    s    0.344198 *  0.975096 *  0.798354 *  -2.87073    1.000000    
    246 O2    s    0.026728 *  0.378071 *  0.128889 *  -2.87073    1.000000    
    247 O2    s    0.338460 *  0.371742 *  0.361169 *  -2.87073    1.000000    
    248 O2    s    0.022319 *  0.653870 *  0.025364 *  -2.87073    1.000000    
    249 O2    s    0.628552 *  0.977398 *  0.695133 *  -2.87073    1.000000    
    250 O2    s    0.657280 *  0.625256 *  0.861745 *  -2.87073    1.000000    
    251 O2    s    0.959920 *  0.332832 *  0.530379 *  -2.87073    1.000000    
    252 O2    s    0.372444 *  0.033838 *  0.197966 *  -2.87073    1.000000    
    253 O3    s    0.762219 *  0.289937 *  0.005095 *  -3.33043    1.000000    
    254 O2    s    0.688457 *  0.462014 *  0.344617 *  -2.87073    1.000000    
    255 O2    s    0.531461 *  0.230650 *  0.678187 *  -2.87073    1.000000    
    256 O2    s    0.221187 *  0.682526 *  0.512956 *  -2.87073    1.000000    
    257 O3    s    0.304718 *  0.551094 *  0.838317 *  -3.33043    1.000000    
    258 O2    s    0.460270 *  0.778186 *  0.177355 *  -2.87073    1.000000    
    259 O2    s    0.307391 *  0.770091 *  0.316849 *  -2.87073    1.000000    
    260 O2    s    0.456880 *  0.686424 *  0.979891 *  -2.87073    1.000000    
    261 O3    s    0.246280 *  0.551566 *  0.653751 *  -3.33043    1.000000    
    262 O2    s    0.698104 *  0.229932 *  0.817040 *  -2.87073    1.000000    
    263 O2    s    0.534004 *  0.310951 *  0.484256 *  -2.87073    1.000000    
    264 O2    s    0.766063 *  0.465614 *  0.148299 *  -2.87073    1.000000    
    265 O3    s    0.778249 *  0.547865 *  0.021982 *  -3.33043    1.000000    
    266 O2    s    0.467709 *  0.254485 *  0.361450 *  -2.87073    1.000000    
    267 O2    s    0.742974 *  0.221057 *  0.694347 *  -2.87073    1.000000    
    268 O2    s    0.208905 *  0.464397 *  0.528844 *  -2.87073    1.000000    
    269 O2    s    0.526638 *  0.740587 *  0.859991 *  -2.87073    1.000000    
    270 O2    s    0.249969 *  0.787219 *  0.195053 *  -2.87073    1.000000    
    271 O2    s    0.528754 *  0.784421 *  0.300135 *  -2.87073    1.000000    
    272 O2    s    0.251367 *  0.467211 *  0.963720 *  -2.87073    1.000000    
    273 O2    s    0.211351 *  0.739603 *  0.633028 *  -2.87073    1.000000    
    274 O2    s    0.476329 *  0.218690 *  0.800970 *  -2.87073    1.000000    
    275 O2    s    0.743501 *  0.531085 *  0.467599 *  -2.87073    1.000000    
    276 O2    s    0.781831 *  0.259101 *  0.131609 *  -2.87073    1.000000    
    277 O3    s    0.218116 *  0.316094 *  0.898361 *  -3.33043    1.000000    
    278 O2    s    0.663177 *  0.905767 *  0.230650 *  -2.87073    1.000000    
    279 O2    s    0.092988 *  0.752605 *  0.563180 *  -2.87073    1.000000    
    280 O2    s    0.758078 *  0.663060 *  0.396004 *  -2.87073    1.000000    
    281 O2    s    0.334019 *  0.102330 *  0.729732 *  -2.87073    1.000000    
    282 O2    s    0.893930 *  0.238852 *  0.060773 *  -2.87073    1.000000    
    283 O2    s    0.332771 *  0.238573 *  0.431448 *  -2.87073    1.000000    
    284 O2    s    0.892016 *  0.659304 *  0.095066 *  -2.87073    1.000000    
    285 O2    s    0.766722 *  0.103351 *  0.764602 *  -2.87073    1.000000    
    286 O2    s    0.656799 *  0.753772 *  0.930576 *  -2.87073    1.000000    
    287 O3    s    0.093258 *  0.313897 *  0.594503 *  -3.33043    1.000000    
    288 O2    s    0.238438 *  0.904741 *  0.266599 *  -2.87073    1.000000    
    289 O2    s    0.568241 *  0.556749 *  0.982168 *  -2.87073    1.000000    
    290 O2    s    0.440916 *  0.015824 *  0.321025 *  -2.87073    1.000000    
    291 O3    s    0.964094 *  0.418999 *  0.656819 *  -3.33043    1.000000    
    292 O2    s    0.415744 *  0.438131 *  0.484030 *  -2.87073    1.000000    
    293 O2    s    0.565320 *  0.985028 *  0.816785 *  -2.87073    1.000000    
    294 O2    s    0.010611 *  0.577759 *  0.146035 *  -2.87073    1.000000    
    295 O2    s    0.556847 *  0.577447 *  0.342379 *  -2.87073    1.000000    
    296 O2    s    0.005334 *  0.437016 *  0.007385 *  -2.87073    1.000000    
    297 O2    s    0.416109 *  0.985122 *  0.676471 *  -2.87073    1.000000    
    298 O3    s    0.453884 *  0.416190 *  0.838686 *  -3.33043    1.000000    
    299 O2    s    0.979290 *  0.552138 *  0.513416 *  -2.87073    1.000000    
    300 O2    s    0.580119 *  0.024498 *  0.179012 *  -2.87073    1.000000    
    301 O2    s    0.574273 *  0.149065 *  0.251554 *  -2.87073    1.000000    
    302 O2    s    0.847551 *  0.419251 *  0.582560 *  -2.87073    1.000000    
    303 O2    s    0.574384 *  0.425301 *  0.913595 *  -2.87073    1.000000    
    304 O2    s    0.425836 *  0.856494 *  0.746269 *  -2.87073    1.000000    
    305 O2    s    0.138223 *  0.572322 *  0.077432 *  -2.87073    1.000000    
    306 O2    s    0.420804 *  0.572720 *  0.412798 *  -2.87073    1.000000    
    307 F     s    0.447097 *  0.899528 *  0.247691 *  -1.56000    1.000000    
    308 F     s    0.095920 *  0.508741 *  0.594423 *  -1.56000    1.000000    
    309 F     s    0.410885 *  0.512946 *  0.898650 *  -1.56000    1.000000    
    310 F     s    0.549440 *  0.102429 *  0.746499 *  -1.56000    1.000000    
    311 F     s    0.840450 *  0.430863 *  0.067473 *  -1.56000    1.000000    
    312 F     s    0.549380 *  0.450791 *  0.413336 *  -1.56000    1.000000    
--------------------------------------------------------------------------------



********************************************************************************
*  General input information                                                   *
********************************************************************************

  Species output for all configurations : 

--------------------------------------------------------------------------------
  Species    Type    Atomic    Atomic    Charge       Radii (Angs)     Library
                     Number     Mass       (e)     Cova   Ionic  VDW   Symbol
--------------------------------------------------------------------------------
    Si       Core       14      28.09   4.000000   1.200  0.000  2.100          
    O1       Core        8      16.00   1.733957   0.730  0.000  1.360          
    O1       Shell       8       0.00  -3.733957   0.730  0.000  1.360          
    O2       Core        8      16.00   0.870733   0.730  0.000  1.360          
    O2       Shell       8       0.00  -2.870733   0.730  0.000  1.360          
    O3       Core        8      16.00   1.330431   0.730  0.000  1.360          
    O3       Shell       8       0.00  -3.330431   0.730  0.000  1.360          
    F        Core        9      19.00   0.560000   0.710  0.000  1.300          
    F        Shell       9       0.00  -1.560000   0.710  0.000  1.300          
    Ge       Core       32      72.61   4.000000   1.170  0.000  1.750          
--------------------------------------------------------------------------------


  Lattice summation method               =    Ewald          (3-D)
                                         =    Parry          (2-D)
                                         =    Saunders et al (1-D)
  Accuracy factor for lattice sums       =   12.000


  Time limit = Infinity

  Maximum range for interatomic potentials =        16.000000 Angstroms

  Taper potentials to zero over   1.0000 Angstroms using polynomial

  General interatomic potentials :

--------------------------------------------------------------------------------
Atom  Types   Potential         A         B         C         D     Cutoffs(Ang)
  1     2                                                            Min    Max 
--------------------------------------------------------------------------------
Si   c O1   s Buckingham    0.132E+04 0.318      10.1      0.00     0.000 16.000
Si   c O2   s Buckingham    0.132E+04 0.318      10.1      0.00     0.000 16.000
Si   c O3   s Buckingham    0.132E+04 0.318      10.1      0.00     0.000 16.000
Ge   c O1   s Buckingham    0.150E+04 0.326      16.8      0.00     0.000 16.000
Ge   c O2   s Buckingham    0.150E+04 0.326      16.8      0.00     0.000 16.000
Ge   c O3   s Buckingham    0.150E+04 0.326      16.8      0.00     0.000 16.000
O1   s O1   s Buckingham    0.228E+05 0.149      10.9      0.00     0.000 16.000
O1   s O2   s Buckingham    0.228E+05 0.149      10.9      0.00     0.000 16.000
O1   s O3   s Buckingham    0.228E+05 0.149      10.9      0.00     0.000 16.000
O2   s O2   s Buckingham    0.228E+05 0.149      10.9      0.00     0.000 16.000
O2   s O3   s Buckingham    0.228E+05 0.149      10.9      0.00     0.000 16.000
O3   s O3   s Buckingham    0.228E+05 0.149      10.9      0.00     0.000 16.000
Si   c F    s Buckingham     977.     0.282      0.00      0.00     0.000 16.000
Ge   c F    s Buckingham     681.     0.320      0.00      0.00     0.000 16.000
F    s F    s Buckingham     540.     0.262      0.00      0.00     0.000 16.000
O1   s F    s Buckingham    0.168E+04 0.268      0.00      0.00     0.000 16.000
O2   s F    s Buckingham    0.168E+04 0.268      0.00      0.00     0.000 16.000
O3   s F    s Buckingham    0.168E+04 0.268      0.00      0.00     0.000 16.000
O2   c O2   s Spring (c-s)   76.0      0.00      0.00      0.00     0.000  0.800
O3   c O3   s Spring (c-s)   128.      0.00      0.00      0.00     0.000  0.800
O1   c O1   s Spring (c-s)   180.      0.00      0.00      0.00     0.000  0.800
F    c F    s Spring (c-s)   33.5      0.00      0.00      0.00     0.000  0.800
--------------------------------------------------------------------------------

  General Three-body potentials :

  Harmonic form:

--------------------------------------------------------------------------------
Atom    Atom    Atom           Force Constants            Theta     Cutoffs  
  1       2       3     (eVrad**-2/eVrad**-3/eVrad**-4)   (deg)  1-2  1-3  2-3
--------------------------------------------------------------------------------
Si    c O1    s O1    s  1.261        0.0000    0.0000   109.470 0.00 0.00 0.00
                                                                 1.90 1.90 3.50
Si    c O1    s O2    s  1.261        0.0000    0.0000   109.470 0.00 0.00 0.00
                                                                 1.90 1.90 3.50
Si    c O2    s O2    s  1.261        0.0000    0.0000   109.470 0.00 0.00 0.00
                                                                 1.90 1.90 3.50
--------------------------------------------------------------------------------

********************************************************************************
*  Output for configuration   1                                                *
********************************************************************************


  Components of energy : 

--------------------------------------------------------------------------------
  Interatomic potentials     =        2066.54357481 eV
  Three-body potentials      =           0.49366816 eV
  Monopole - monopole (real) =       -6614.33153700 eV
  Monopole - monopole (recip)=       -3173.38487906 eV
  Monopole - monopole (total)=       -9787.71641606 eV
  Neutralising energy        =          -6.46421407 eV
--------------------------------------------------------------------------------
  Total lattice energy       =       -7727.14338716 eV
--------------------------------------------------------------------------------
  Total lattice energy       =         -745551.2167 kJ/(mole unit cells)
--------------------------------------------------------------------------------


  Number of variables =      939

  Maximum number of calculations  =          5000
  Maximum Hessian update interval =            10
  Maximum step size               =   0.100000000
  Maximum parameter tolerance     =   0.000010000
  Maximum function  tolerance     =   0.000010000
  Maximum gradient  tolerance     =   0.001000000
  Maximum gradient  component     =   0.010000000

  Symmetry not applied to optimisation

  Cell parameters to be optimised using strains

  Newton-Raphson optimiser to be used

  BFGS hessian update to be used

  Dumpfile to be written after every cycle

  Start of bulk optimisation :

  Cycle:      0 Energy:     -7727.143387  Gnorm:      0.018046  CPU:    2.014
  ** Hessian calculated **
  Cycle:      1 Energy:     -7727.143942  Gnorm:      0.005687  CPU:    5.221
  Cycle:      2 Energy:     -7727.144022  Gnorm:      0.003118  CPU:    8.052
  Cycle:      3 Energy:     -7727.144064  Gnorm:      0.001969  CPU:   10.883
  Cycle:      4 Energy:     -7727.144102  Gnorm:      0.001243  CPU:   13.713
  Cycle:      5 Energy:     -7727.144150  Gnorm:      0.001016  CPU:   16.544
  Cycle:      6 Energy:     -7727.144367  Gnorm:      0.003505  CPU:   22.079
  Cycle:      7 Energy:     -7727.144614  Gnorm:      0.006508  CPU:   26.261
  Cycle:      8 Energy:     -7727.144926  Gnorm:      0.010064  CPU:   30.443
  Cycle:      9 Energy:     -7727.145346  Gnorm:      0.013975  CPU:   34.626
  Cycle:     10 Energy:     -7727.145927  Gnorm:      0.018249  CPU:   38.808
  ** Hessian calculated **
  Cycle:     11 Energy:     -7727.146538  Gnorm:      0.007426  CPU:   43.332
  Cycle:     12 Energy:     -7727.146673  Gnorm:      0.004722  CPU:   46.162
  Cycle:     13 Energy:     -7727.146797  Gnorm:      0.002125  CPU:   50.344
  Cycle:     14 Energy:     -7727.146882  Gnorm:      0.001973  CPU:   53.850
  Cycle:     15 Energy:     -7727.146980  Gnorm:      0.003436  CPU:   58.033
  Cycle:     16 Energy:     -7727.147108  Gnorm:      0.004770  CPU:   62.216
  Cycle:     17 Energy:     -7727.147286  Gnorm:      0.005694  CPU:   66.398
  Cycle:     18 Energy:     -7727.147539  Gnorm:      0.006464  CPU:   70.580
  Cycle:     19 Energy:     -7727.147899  Gnorm:      0.006751  CPU:   74.762
  Cycle:     20 Energy:     -7727.148407  Gnorm:      0.005982  CPU:   78.945
  ** Hessian calculated **
  Cycle:     21 Energy:     -7727.149253  Gnorm:      0.005939  CPU:   84.820
  Cycle:     22 Energy:     -7727.150677  Gnorm:      0.005867  CPU:   89.679
  Cycle:     23 Energy:     -7727.152862  Gnorm:      0.005753  CPU:   94.537
  Cycle:     24 Energy:     -7727.155563  Gnorm:      0.005610  CPU:   98.720
  Cycle:     25 Energy:     -7727.160022  Gnorm:      0.005365  CPU:  103.579
  Cycle:     26 Energy:     -7727.165502  Gnorm:      0.005047  CPU:  107.762
  Cycle:     27 Energy:     -7727.174179  Gnorm:      0.004497  CPU:  112.621
  Cycle:     28 Energy:     -7727.183948  Gnorm:      0.003782  CPU:  116.804
  Cycle:     29 Energy:     -7727.194891  Gnorm:      0.002772  CPU:  120.988
  Cycle:     30 Energy:     -7727.203839  Gnorm:      0.001514  CPU:  125.172
  ** Hessian calculated **
  Cycle:     31 Energy:     -7727.206150  Gnorm:      0.000780  CPU:  131.050
  Cycle:     32 Energy:     -7727.206725  Gnorm:      0.000410  CPU:  135.235
  Cycle:     33 Energy:     -7727.206869  Gnorm:      0.000210  CPU:  139.419
  Cycle:     34 Energy:     -7727.206893  Gnorm:      0.000148  CPU:  142.252
  Cycle:     35 Energy:     -7727.206905  Gnorm:      0.000104  CPU:  145.084
  Cycle:     36 Energy:     -7727.206911  Gnorm:      0.000073  CPU:  147.916
  Cycle:     37 Energy:     -7727.206914  Gnorm:      0.000051  CPU:  150.748
  Cycle:     38 Energy:     -7727.206915  Gnorm:      0.000036  CPU:  153.580


  **** Optimisation achieved ****


  Final energy =   -7727.20691564 eV
  Final Gnorm  =       0.00002503

  Components of energy : 

--------------------------------------------------------------------------------
  Interatomic potentials     =        2066.98170995 eV
  Three-body potentials      =           0.50251023 eV
  Monopole - monopole (real) =       -6614.40626337 eV
  Monopole - monopole (recip)=       -3173.81976859 eV
  Monopole - monopole (total)=       -9788.22603196 eV
  Neutralising energy        =          -6.46510386 eV
--------------------------------------------------------------------------------
  Total lattice energy       =       -7727.20691564 eV
--------------------------------------------------------------------------------
  Total lattice energy       =         -745557.3462 kJ/(mole unit cells)
--------------------------------------------------------------------------------

  Final fractional coordinates of atoms :

--------------------------------------------------------------------------------
   No.  Atomic        x           y          z          Radius
        Label       (Frac)      (Frac)     (Frac)       (Angs) 
--------------------------------------------------------------------------------
     1  Ge    c     0.699600    0.375700    0.033890    0.000000
     2  Si    c     0.605887    0.306745    0.365903    0.000000
     3  Si    c     0.668315    0.301720    0.698384    0.000000
     4  Si    c     0.289120    0.606638    0.531522    0.000000
     5  Si    c     0.361298    0.675391    0.859224    0.000000
     6  Si    c     0.304205    0.691403    0.197035    0.000000
     7  Si    c     0.359866    0.683378    0.298027    0.000000
     8  Si    c     0.303177    0.610765    0.961519    0.000000
     9  Si    c     0.303793    0.676884    0.633806    0.000000
    10  Si    c     0.623650    0.300954    0.799378    0.000000
    11  Si    c     0.663061    0.365401    0.466927    0.000000
    12  Si    c     0.671554    0.306108    0.132594    0.000000
    13  Si    c     0.518640    0.407369    0.965211    0.000000
    14  Si    c     0.567121    0.094024    0.302642    0.000000
    15  Si    c     0.878573    0.465380    0.636422    0.000000
    16  Si    c     0.453934    0.565409    0.464794    0.000000
    17  Si    c     0.416439    0.896972    0.797344    0.000000
    18  Si    c     0.093177    0.519508    0.129690    0.000000
    19  Si    c     0.399208    0.509760    0.362517    0.000000
    20  Si    c     0.091636    0.572099    0.026005    0.000000
    21  Si    c     0.470987    0.899334    0.696145    0.000000
    22  Si    c     0.577585    0.465428    0.861569    0.000000
    23  Si    c     0.874529    0.401280    0.533482    0.000000
    24  Si    c     0.512035    0.098804    0.200580    0.000000
    25  Ge    c     0.302393    0.406199    0.852735    0.000000
    26  Si    c     0.583059    0.892308    0.183824    0.000000
    27  Si    c     0.085209    0.685052    0.516882    0.000000
    28  Si    c     0.680209    0.581899    0.349212    0.000000
    29  Si    c     0.390722    0.101234    0.683050    0.000000
    30  Si    c     0.879073    0.284464    0.010297    0.000000
    31  Si    c     0.383464    0.286364    0.480083    0.000000
    32  Si    c     0.879062    0.590330    0.143313    0.000000
    33  Si    c     0.700643    0.100644    0.812333    0.000000
    34  Si    c     0.585837    0.690761    0.978128    0.000000
    35  Ge    c     0.094298    0.406228    0.642356    0.000000
    36  Si    c     0.285490    0.884386    0.314587    0.000000
    37  Si    c     0.233625    0.326249    0.948906    0.000000
    38  Si    c     0.641975    0.893070    0.285133    0.000000
    39  Si    c     0.085180    0.745172    0.618628    0.000000
    40  Si    c     0.733203    0.643523    0.450225    0.000000
    41  Si    c     0.338156    0.097493    0.784224    0.000000
    42  Si    c     0.887802    0.238470    0.114256    0.000000
    43  Si    c     0.323835    0.233066    0.378640    0.000000
    44  Si    c     0.891749    0.656941    0.040563    0.000000
    45  Si    c     0.751135    0.100600    0.711055    0.000000
    46  Si    c     0.648380    0.745004    0.876304    0.000000
    47  Si    c     0.077309    0.320272    0.545999    0.000000
    48  Si    c     0.232228    0.897560    0.213578    0.000000
    49  Si    c     0.960638    0.112137    0.964317    0.000000
    50  Si    c     0.858806    0.828316    0.298511    0.000000
    51  Si    c     0.138729    0.023742    0.632081    0.000000
    52  Si    c     0.013876    0.861399    0.464835    0.000000
    53  Si    c     0.116944    0.154938    0.798521    0.000000
    54  Si    c     0.829631    0.961956    0.132421    0.000000
    55  Si    c     0.106502    0.952239    0.363839    0.000000
    56  Si    c     0.833857    0.874091    0.030800    0.000000
    57  Si    c     0.029921    0.156521    0.695813    0.000000
    58  Si    c     0.874940    0.022627    0.862400    0.000000
    59  Si    c     0.136617    0.106536    0.529440    0.000000
    60  Si    c     0.951438    0.837064    0.196868    0.000000
    61  O2    c     0.910825    0.997298    0.000079    0.000000
    62  O2    c     0.984627    0.908811    0.330137    0.000000
    63  O2    c     0.056758    0.062510    0.663643    0.000000
    64  O2    c     0.058534    0.983452    0.496864    0.000000
    65  O2    c     0.993987    0.061481    0.829895    0.000000
    66  O2    c     0.912265    0.922677    0.165692    0.000000
    67  O2    c     0.321781    0.558436    0.329436    0.000000
    68  O2    c     0.430935    0.778394    0.662196    0.000000
    69  O2    c     0.217799    0.646902    0.994575    0.000000
    70  O2    c     0.666031    0.422998    0.833079    0.000000
    71  O2    c     0.563086    0.227591    0.170522    0.000000
    72  O2    c     0.747533    0.327679    0.500570    0.000000
    73  O3    c     0.563346    0.333995    0.998305    0.000000
    74  O2    c     0.749637    0.425336    0.665530    0.000000
    75  O2    c     0.644483    0.219293    0.335236    0.000000
    76  O2    c     0.407207    0.642988    0.497050    0.000000
    77  O2    c     0.218757    0.570185    0.162914    0.000000
    78  O2    c     0.335158    0.774487    0.830170    0.000000
    79  O2    c     0.113075    0.204551    0.974188    0.000000
    80  O2    c     0.768460    0.891283    0.305113    0.000000
    81  O2    c     0.084931    0.870611    0.637612    0.000000
    82  O2    c     0.859652    0.771205    0.470176    0.000000
    83  O2    c     0.215962    0.099352    0.805421    0.000000
    84  O2    c     0.891126    0.115914    0.136062    0.000000
    85  O2    c     0.197357    0.105767    0.358240    0.000000
    86  O2    c     0.907605    0.793942    0.025411    0.000000
    87  O2    c     0.875069    0.103423    0.689277    0.000000
    88  O2    c     0.774927    0.869525    0.856903    0.000000
    89  O2    c     0.076410    0.198877    0.520689    0.000000
    90  O2    c     0.106158    0.900218    0.193471    0.000000
    91  O2    c     0.906520    0.840747    0.247350    0.000000
    92  O2    c     0.120181    0.053605    0.580050    0.000000
    93  O2    c     0.926242    0.051762    0.914359    0.000000
    94  O2    c     0.061483    0.130827    0.746921    0.000000
    95  O2    c     0.839628    0.919430    0.082247    0.000000
    96  O2    c     0.052512    0.912460    0.414064    0.000000
    97  O2    c     0.889917    0.194234    0.972379    0.000000
    98  O2    c     0.777415    0.677365    0.310586    0.000000
    99  O2    c     0.291620    0.099443    0.643907    0.000000
   100  O2    c     0.082036    0.777675    0.477279    0.000000
   101  O3    c     0.188270    0.301077    0.810727    0.000000
   102  O2    c     0.678726    0.892589    0.145235    0.000000
   103  O2    c     0.188755    0.882695    0.353050    0.000000
   104  O2    c     0.682060    0.787069    0.017531    0.000000
   105  O3    c     0.106363    0.302711    0.683557    0.000000
   106  O2    c     0.797230    0.097523    0.851424    0.000000
   107  O2    c     0.289279    0.188112    0.518350    0.000000
   108  O2    c     0.882720    0.688049    0.181902    0.000000
   109  O2    c     0.303358    0.629709    0.246741    0.000000
   110  O2    c     0.347530    0.665575    0.581622    0.000000
   111  O2    c     0.303942    0.665856    0.910939    0.000000
   112  O2    c     0.675273    0.359746    0.748975    0.000000
   113  O3    c     0.606440    0.298761    0.084482    0.000000
   114  O2    c     0.663848    0.308367    0.416710    0.000000
   115  O2    c     0.361114    0.322559    0.965804    0.000000
   116  O2    c     0.653978    0.024600    0.304683    0.000000
   117  O2    c     0.953325    0.622059    0.635508    0.000000
   118  O2    c     0.610728    0.652901    0.467934    0.000000
   119  O2    c     0.329278    0.964670    0.800809    0.000000
   120  O2    c     0.020546    0.364296    0.131509    0.000000
   121  O2    c     0.312209    0.353839    0.359432    0.000000
   122  O2    c     0.023393    0.659255    0.024864    0.000000
   123  O2    c     0.626665    0.968173    0.693185    0.000000
   124  O2    c     0.657807    0.622332    0.859967    0.000000
   125  O2    c     0.943212    0.315105    0.529605    0.000000
   126  O2    c     0.355208    0.029528    0.195953    0.000000
   127  O3    c     0.746352    0.279407    0.001745    0.000000
   128  O2    c     0.679994    0.448072    0.342372    0.000000
   129  O2    c     0.524131    0.234962    0.675407    0.000000
   130  O2    c     0.216158    0.679677    0.510960    0.000000
   131  O3    c     0.286263    0.539866    0.834739    0.000000
   132  O2    c     0.446835    0.760566    0.174653    0.000000
   133  O2    c     0.284493    0.749955    0.320643    0.000000
   134  O2    c     0.449465    0.687392    0.982695    0.000000
   135  O3    c     0.245980    0.542244    0.658351    0.000000
   136  O2    c     0.700773    0.233287    0.821010    0.000000
   137  O2    c     0.519749    0.290668    0.488415    0.000000
   138  O2    c     0.747812    0.455502    0.151244    0.000000
   139  O3    c     0.765603    0.543692    0.018441    0.000000
   140  O2    c     0.449284    0.232008    0.359734    0.000000
   141  O2    c     0.744713    0.223373    0.692040    0.000000
   142  O2    c     0.201608    0.452030    0.527726    0.000000
   143  O2    c     0.518808    0.740270    0.857956    0.000000
   144  O2    c     0.227420    0.770779    0.192934    0.000000
   145  O2    c     0.516295    0.766421    0.303703    0.000000
   146  O2    c     0.236514    0.456841    0.966341    0.000000
   147  O2    c     0.210470    0.740082    0.635936    0.000000
   148  O2    c     0.467972    0.219344    0.804442    0.000000
   149  O2    c     0.737532    0.521137    0.470855    0.000000
   150  O2    c     0.765193    0.242894    0.133509    0.000000
   151  O3    c     0.200607    0.299455    0.896270    0.000000
   152  O2    c     0.657813    0.893493    0.230534    0.000000
   153  O2    c     0.084419    0.753725    0.563549    0.000000
   154  O2    c     0.751796    0.658840    0.395659    0.000000
   155  O2    c     0.318824    0.098994    0.729412    0.000000
   156  O2    c     0.884847    0.223063    0.059772    0.000000
   157  O2    c     0.308389    0.215541    0.433114    0.000000
   158  O2    c     0.882071    0.659595    0.096074    0.000000
   159  O2    c     0.771270    0.100677    0.765847    0.000000
   160  O2    c     0.656877    0.756372    0.931353    0.000000
   161  O3    c     0.084327    0.296729    0.598561    0.000000
   162  O2    c     0.214832    0.893148    0.268125    0.000000
   163  O2    c     0.563470    0.549877    0.985352    0.000000
   164  O2    c     0.426288    0.007185    0.325052    0.000000
   165  O3    c     0.956828    0.408705    0.662440    0.000000
   166  O2    c     0.396783    0.425160    0.488014    0.000000
   167  O2    c     0.560141    0.975963    0.820396    0.000000
   168  O2    c     0.002313    0.570758    0.149468    0.000000
   169  O2    c     0.539908    0.566902    0.339452    0.000000
   170  O2    c     0.000599    0.430529    0.004972    0.000000
   171  O2    c     0.405731    0.977225    0.673438    0.000000
   172  O3    c     0.442081    0.404491    0.834856    0.000000
   173  O2    c     0.963382    0.542605    0.511875    0.000000
   174  O2    c     0.570854    0.018738    0.176244    0.000000
   175  O2    c     0.564789    0.148116    0.252048    0.000000
   176  O2    c     0.829985    0.407155    0.584549    0.000000
   177  O2    c     0.571164    0.415720    0.913837    0.000000
   178  O2    c     0.415594    0.842516    0.746466    0.000000
   179  O2    c     0.138154    0.567638    0.078206    0.000000
   180  O2    c     0.399608    0.563736    0.413316    0.000000
   181  F     c     0.432368    0.887154    0.248368    0.000000
   182  F     c     0.089043    0.508836    0.592797    0.000000
   183  F     c     0.408771    0.513428    0.901862    0.000000
   184  F     c     0.546192    0.102413    0.747046    0.000000
   185  F     c     0.846322    0.430558    0.070331    0.000000
   186  F     c     0.532963    0.435792    0.414091    0.000000
   187  O2    s     0.907321    0.995731    0.999656    0.000000
   188  O2    s     0.984121    0.904601    0.330355    0.000000
   189  O2    s     0.063421    0.067531    0.663268    0.000000
   190  O2    s     0.062071    0.983049    0.496787    0.000000
   191  O2    s     0.992823    0.066512    0.830438    0.000000
   192  O2    s     0.907497    0.917560    0.165474    0.000000
   193  O2    s     0.333568    0.566362    0.329549    0.000000
   194  O2    s     0.421374    0.779877    0.662607    0.000000
   195  O2    s     0.213157    0.635430    0.994549    0.000000
   196  O2    s     0.652939    0.414888    0.832509    0.000000
   197  O2    s     0.568933    0.222144    0.169756    0.000000
   198  O2    s     0.751901    0.339287    0.500464    0.000000
   199  O3    s     0.568288    0.345038    0.997261    0.000000
   200  O2    s     0.754657    0.417096    0.665841    0.000000
   201  O2    s     0.632528    0.215180    0.334977    0.000000
   202  O2    s     0.399886    0.631259    0.497269    0.000000
   203  O2    s     0.214073    0.577050    0.162847    0.000000
   204  O2    s     0.346359    0.776584    0.829887    0.000000
   205  O2    s     0.108536    0.206588    0.970704    0.000000
   206  O2    s     0.764868    0.884795    0.302360    0.000000
   207  O2    s     0.090476    0.872875    0.635034    0.000000
   208  O2    s     0.863018    0.767587    0.467558    0.000000
   209  O2    s     0.219310    0.104629    0.802484    0.000000
   210  O2    s     0.884320    0.112382    0.133453    0.000000
   211  O2    s     0.200741    0.102589    0.360905    0.000000
   212  O2    s     0.898093    0.788392    0.027541    0.000000
   213  O2    s     0.877099    0.108375    0.692236    0.000000
   214  O2    s     0.771796    0.872129    0.859521    0.000000
   215  O2    s     0.082823    0.201134    0.524036    0.000000
   216  O2    s     0.102692    0.893199    0.195891    0.000000
   217  O2    s     0.906248    0.838930    0.247391    0.000000
   218  O2    s     0.124120    0.056393    0.579941    0.000000
   219  O2    s     0.924535    0.055447    0.914392    0.000000
   220  O2    s     0.064015    0.136217    0.746911    0.000000
   221  O2    s     0.837814    0.919262    0.082268    0.000000
   222  O2    s     0.054297    0.911201    0.414093    0.000000
   223  O2    s     0.896351    0.195124    0.975578    0.000000
   224  O2    s     0.776201    0.683701    0.313216    0.000000
   225  O2    s     0.285401    0.091560    0.646619    0.000000
   226  O2    s     0.075258    0.776719    0.480117    0.000000
   227  O3    s     0.188041    0.291947    0.812190    0.000000
   228  O2    s     0.684915    0.899932    0.147849    0.000000
   229  O2    s     0.190008    0.890203    0.350239    0.000000
   230  O2    s     0.688073    0.786245    0.014842    0.000000
   231  O3    s     0.097204    0.293735    0.682122    0.000000
   232  O2    s     0.795605    0.089929    0.848606    0.000000
   233  O2    s     0.283133    0.189813    0.515522    0.000000
   234  O2    s     0.889691    0.693819    0.179485    0.000000
   235  O2    s     0.309163    0.641456    0.246845    0.000000
   236  O2    s     0.337265    0.660427    0.581274    0.000000
   237  O2    s     0.309222    0.660941    0.911399    0.000000
   238  O2    s     0.669236    0.347673    0.748913    0.000000
   239  O3    s     0.619231    0.304406    0.086377    0.000000
   240  O2    s     0.657786    0.314059    0.416598    0.000000
   241  O2    s     0.363422    0.331532    0.963915    0.000000
   242  O2    s     0.643829    0.018025    0.302431    0.000000
   243  O2    s     0.959930    0.619454    0.633775    0.000000
   244  O2    s     0.607475    0.642876    0.465725    0.000000
   245  O2    s     0.339437    0.971483    0.798681    0.000000
   246  O2    s     0.014423    0.367527    0.129532    0.000000
   247  O2    s     0.322320    0.357307    0.361742    0.000000
   248  O2    s     0.017368    0.649924    0.026565    0.000000
   249  O2    s     0.623238    0.974815    0.695398    0.000000
   250  O2    s     0.648761    0.619803    0.861893    0.000000
   251  O2    s     0.949406    0.324647    0.531658    0.000000
   252  O2    s     0.358356    0.022746    0.198286    0.000000
   253  O3    s     0.757598    0.286382    0.004882    0.000000
   254  O2    s     0.672449    0.447592    0.345515    0.000000
   255  O2    s     0.524847    0.227658    0.678620    0.000000
   256  O2    s     0.209595    0.672793    0.513706    0.000000
   257  O3    s     0.295274    0.544973    0.838590    0.000000
   258  O2    s     0.446351    0.767198    0.177950    0.000000
   259  O2    s     0.292312    0.757227    0.317655    0.000000
   260  O2    s     0.448756    0.679928    0.980047    0.000000
   261  O3    s     0.241467    0.546869    0.654619    0.000000
   262  O2    s     0.692821    0.226181    0.817830    0.000000
   263  O2    s     0.520268    0.298032    0.485247    0.000000
   264  O2    s     0.754494    0.455530    0.148574    0.000000
   265  O3    s     0.775345    0.545509    0.021787    0.000000
   266  O2    s     0.452044    0.239960    0.362366    0.000000
   267  O2    s     0.737225    0.218258    0.694711    0.000000
   268  O2    s     0.198233    0.455147    0.529978    0.000000
   269  O2    s     0.517471    0.734202    0.860106    0.000000
   270  O2    s     0.235943    0.776099    0.195532    0.000000
   271  O2    s     0.513551    0.771564    0.301123    0.000000
   272  O2    s     0.243399    0.460359    0.964113    0.000000
   273  O2    s     0.205681    0.734218    0.633810    0.000000
   274  O2    s     0.470423    0.214640    0.801748    0.000000
   275  O2    s     0.729263    0.518160    0.468240    0.000000
   276  O2    s     0.769444    0.248775    0.131303    0.000000
   277  O3    s     0.210817    0.309361    0.898939    0.000000
   278  O2    s     0.648236    0.893324    0.231395    0.000000
   279  O2    s     0.084579    0.745399    0.564210    0.000000
   280  O2    s     0.742303    0.649132    0.396536    0.000000
   281  O2    s     0.328458    0.099070    0.730199    0.000000
   282  O2    s     0.884599    0.230712    0.060855    0.000000
   283  O2    s     0.317876    0.224812    0.432174    0.000000
   284  O2    s     0.882654    0.651684    0.095742    0.000000
   285  O2    s     0.761727    0.100662    0.765028    0.000000
   286  O2    s     0.648388    0.748174    0.930649    0.000000
   287  O3    s     0.084201    0.306438    0.595759    0.000000
   288  O2    s     0.224070    0.892712    0.267168    0.000000
   289  O2    s     0.561301    0.551512    0.982482    0.000000
   290  O2    s     0.425889    0.002875    0.321568    0.000000
   291  O3    s     0.959038    0.414586    0.658300    0.000000
   292  O2    s     0.401510    0.425006    0.484721    0.000000
   293  O2    s     0.560174    0.981169    0.817121    0.000000
   294  O2    s     0.998719    0.567261    0.146684    0.000000
   295  O2    s     0.540315    0.562393    0.342899    0.000000
   296  O2    s     0.998061    0.431177    0.007806    0.000000
   297  O2    s     0.411021    0.982440    0.676824    0.000000
   298  O3    s     0.445682    0.411032    0.838876    0.000000
   299  O2    s     0.967644    0.543551    0.514683    0.000000
   300  O2    s     0.565916    0.013329    0.179576    0.000000
   301  O2    s     0.559430    0.137193    0.251919    0.000000
   302  O2    s     0.839553    0.412153    0.584074    0.000000
   303  O2    s     0.566383    0.419909    0.913821    0.000000
   304  O2    s     0.421325    0.853849    0.746506    0.000000
   305  O2    s     0.128684    0.563016    0.078336    0.000000
   306  O2    s     0.405165    0.558339    0.413376    0.000000
   307  F     s     0.432008    0.886636    0.248253    0.000000
   308  F     s     0.089458    0.502617    0.595621    0.000000
   309  F     s     0.401889    0.506906    0.898915    0.000000
   310  F     s     0.546360    0.102778    0.746959    0.000000
   311  F     s     0.835324    0.426633    0.067689    0.000000
   312  F     s     0.533274    0.435696    0.414014    0.000000
--------------------------------------------------------------------------------

  Final Cartesian lattice vectors (Angstroms) :

       11.953779    0.002936   -0.017444
       -6.045590   10.406191    0.016183
       -0.521892   -0.168882   29.324450


  Final cell parameters and derivatives :

--------------------------------------------------------------------------------
       a           11.953792 Angstrom     dE/de1(xx)     0.001209 eV/strain
       b           12.034875 Angstrom     dE/de2(yy)     0.000756 eV/strain
       c           29.329580 Angstrom     dE/de3(zz)     0.002150 eV/strain
       alpha       89.696089 Degrees      dE/de4(yz)     0.000111 eV/strain
       beta        91.103267 Degrees      dE/de5(xz)     0.000912 eV/strain
       gamma      120.140909 Degrees      dE/de6(xy)     0.000059 eV/strain
--------------------------------------------------------------------------------

  Primitive cell volume =          3648.205696 Angs**3

  Density of cell =      1.753764 g/cm**3

  Non-primitive cell volume =          3648.205696 Angs**3


  Final internal derivatives :

--------------------------------------------------------------------------------
   No.  Atomic          a             b             c           Radius
        Label          (eV)          (eV)          (eV)        (eV/Angs)
--------------------------------------------------------------------------------
      1 Ge    c       0.000000      0.000000      0.000000      0.000000
      2 Si    c       0.000161      0.000521      0.000509      0.000000
      3 Si    c      -0.000741     -0.000344      0.000349      0.000000
      4 Si    c      -0.000162      0.000075      0.000105      0.000000
      5 Si    c       0.000627     -0.000313      0.000551      0.000000
      6 Si    c       0.000214      0.000046      0.000143      0.000000
      7 Si    c       0.000304      0.000003     -0.000316      0.000000
      8 Si    c       0.001004     -0.000073     -0.000794      0.000000
      9 Si    c      -0.000394     -0.000318      0.000803      0.000000
     10 Si    c      -0.000694     -0.000844     -0.000356      0.000000
     11 Si    c       0.000108      0.000050     -0.000197      0.000000
     12 Si    c       0.001351     -0.000249      0.007110      0.000000
     13 Si    c      -0.001616      0.000954     -0.000588      0.000000
     14 Si    c       0.000115      0.000246     -0.000254      0.000000
     15 Si    c      -0.000538      0.000206     -0.000727      0.000000
     16 Si    c       0.000363     -0.000044     -0.000711      0.000000
     17 Si    c      -0.000340     -0.000184      0.000019      0.000000
     18 Si    c       0.000323      0.000343      0.001611      0.000000
     19 Si    c       0.000314      0.000519     -0.000075      0.000000
     20 Si    c       0.000121      0.000396      0.000640      0.000000
     21 Si    c      -0.000381     -0.000831     -0.001039      0.000000
     22 Si    c      -0.000233      0.000241      0.000230      0.000000
     23 Si    c       0.000077     -0.000232     -0.001515      0.000000
     24 Si    c       0.000277      0.000288      0.000122      0.000000
     25 Ge    c       0.000132     -0.000260      0.000457      0.000000
     26 Si    c       0.000172      0.000184      0.000773      0.000000
     27 Si    c       0.000294     -0.000088     -0.000894      0.000000
     28 Si    c       0.000426      0.000482      0.000060      0.000000
     29 Si    c      -0.000528     -0.000133     -0.001110      0.000000
     30 Si    c       0.000942      0.000189     -0.000410      0.000000
     31 Si    c       0.000195      0.000410     -0.000883      0.000000
     32 Si    c       0.000709      0.000017      0.001015      0.000000
     33 Si    c      -0.000306     -0.000518      0.000661      0.000000
     34 Si    c      -0.000074      0.000445      0.000202      0.000000
     35 Ge    c      -0.000753      0.000155      0.000982      0.000000
     36 Si    c       0.000119      0.000357     -0.000840      0.000000
     37 Si    c       0.000736      0.000385      0.000210      0.000000
     38 Si    c       0.000469      0.000081     -0.000106      0.000000
     39 Si    c      -0.000239     -0.000180     -0.000413      0.000000
     40 Si    c       0.000603      0.000242      0.000181      0.000000
     41 Si    c      -0.000127     -0.000143     -0.000513      0.000000
     42 Si    c       0.000499      0.000446      0.000493      0.000000
     43 Si    c       0.000288      0.000533     -0.000217      0.000000
     44 Si    c       0.000123     -0.000439     -0.002599      0.000000
     45 Si    c      -0.000092     -0.000637     -0.000076      0.000000
     46 Si    c       0.000074      0.000244     -0.000197      0.000000
     47 Si    c       0.000185     -0.000214     -0.000387      0.000000
     48 Si    c       0.000095      0.000244     -0.000360      0.000000
     49 Si    c       0.000249      0.000508     -0.000865      0.000000
     50 Si    c       0.000665      0.000671      0.000022      0.000000
     51 Si    c       0.000005      0.000016      0.000366      0.000000
     52 Si    c       0.000345      0.000114     -0.000126      0.000000
     53 Si    c       0.000429      0.000547     -0.000381      0.000000
     54 Si    c       0.000443      0.000244      0.000442      0.000000
     55 Si    c       0.000231      0.000407     -0.001018      0.000000
     56 Si    c       0.000135      0.000280     -0.000837      0.000000
     57 Si    c      -0.000069      0.000031      0.000696      0.000000
     58 Si    c       0.000316      0.000542      0.000304      0.000000
     59 Si    c       0.000066      0.000007     -0.000539      0.000000
     60 Si    c       0.000395      0.000518     -0.001077      0.000000
     61 O2    c       0.000131     -0.000535      0.000454      0.000000
     62 O2    c       0.000043      0.000138     -0.001108      0.000000
     63 O2    c      -0.000220      0.000114     -0.000781      0.000000
     64 O2    c      -0.000176      0.000239     -0.001062      0.000000
     65 O2    c      -0.000125      0.000133     -0.000757      0.000000
     66 O2    c       0.000330     -0.000192     -0.000227      0.000000
     67 O2    c       0.000203     -0.000016     -0.000125      0.000000
     68 O2    c      -0.000030     -0.000246     -0.000246      0.000000
     69 O2    c      -0.000137      0.000398      0.000459      0.000000
     70 O2    c       0.000300     -0.000282     -0.000576      0.000000
     71 O2    c       0.000076      0.000007     -0.000036      0.000000
     72 O2    c       0.000259     -0.000131      0.000176      0.000000
     73 O3    c       0.000344     -0.001337     -0.000872      0.000000
     74 O2    c      -0.000503     -0.000066      0.000163      0.000000
     75 O2    c       0.000105     -0.000010     -0.000252      0.000000
     76 O2    c       0.000086      0.000067     -0.000317      0.000000
     77 O2    c       0.000079      0.000050     -0.000370      0.000000
     78 O2    c      -0.000124     -0.000327      0.000281      0.000000
     79 O2    c       0.000107     -0.000018      0.000327      0.000000
     80 O2    c      -0.000151      0.000133     -0.000157      0.000000
     81 O2    c      -0.000320     -0.000183     -0.000146      0.000000
     82 O2    c      -0.000227      0.000161      0.000015      0.000000
     83 O2    c      -0.000186     -0.000084      0.000199      0.000000
     84 O2    c       0.000072     -0.000002      0.000002      0.000000
     85 O2    c       0.000427      0.000002      0.000187      0.000000
     86 O2    c       0.000877     -0.000225     -0.000138      0.000000
     87 O2    c      -0.000175     -0.000014     -0.000407      0.000000
     88 O2    c       0.000328     -0.000200     -0.000513      0.000000
     89 O2    c       0.000187      0.000020     -0.000149      0.000000
     90 O2    c      -0.000241      0.000309      0.000008      0.000000
     91 O2    c       0.000173      0.000199     -0.002902      0.000000
     92 O2    c      -0.000232      0.000575     -0.005212      0.000000
     93 O2    c      -0.000095     -0.000029     -0.003855      0.000000
     94 O2    c      -0.000099      0.000049     -0.002603      0.000000
     95 O2    c       0.000029      0.000378     -0.001558      0.000000
     96 O2    c       0.000182      0.000213     -0.002963      0.000000
     97 O2    c       0.000134      0.000171     -0.000353      0.000000
     98 O2    c       0.000209     -0.000031     -0.000134      0.000000
     99 O2    c       0.000306     -0.000226      0.000062      0.000000
    100 O2    c       0.000291     -0.000276      0.000169      0.000000
    101 O3    c       0.000441      0.000170     -0.000185      0.000000
    102 O2    c      -0.000092      0.000098     -0.000760      0.000000
    103 O2    c      -0.000093      0.000241      0.000146      0.000000
    104 O2    c      -0.000049      0.000224     -0.000192      0.000000
    105 O3    c      -0.000128      0.000191     -0.001314      0.000000
    106 O2    c      -0.000012     -0.000147     -0.000928      0.000000
    107 O2    c       0.000053      0.000211      0.000113      0.000000
    108 O2    c       0.000086      0.000147      0.000336      0.000000
    109 O2    c       0.000216     -0.000093      0.000219      0.000000
    110 O2    c       0.000188      0.000103     -0.000434      0.000000
    111 O2    c       0.000244     -0.000037     -0.000469      0.000000
    112 O2    c      -0.000021      0.000528     -0.000735      0.000000
    113 O3    c      -0.003454     -0.000640     -0.002212      0.000000
    114 O2    c      -0.000007      0.000160     -0.000399      0.000000
    115 O2    c      -0.000432      0.000197      0.000039      0.000000
    116 O2    c       0.000063     -0.000078     -0.000009      0.000000
    117 O2    c      -0.000194      0.000013     -0.000311      0.000000
    118 O2    c      -0.000124      0.000211      0.000016      0.000000
    119 O2    c       0.000083     -0.000176     -0.000376      0.000000
    120 O2    c       0.000042      0.000000      0.000197      0.000000
    121 O2    c       0.000273      0.000015     -0.000414      0.000000
    122 O2    c      -0.000248      0.000591      0.000334      0.000000
    123 O2    c       0.000091     -0.000282      0.000302      0.000000
    124 O2    c      -0.000236      0.000228      0.000094      0.000000
    125 O2    c       0.000032      0.000199     -0.000274      0.000000
    126 O2    c       0.000179      0.000160     -0.000167      0.000000
    127 O3    c       0.000080     -0.000719     -0.006265      0.000000
    128 O2    c       0.000063      0.000205     -0.000045      0.000000
    129 O2    c      -0.000100      0.000136     -0.000363      0.000000
    130 O2    c       0.000137     -0.000162     -0.000028      0.000000
    131 O3    c      -0.000230      0.000616     -0.001665      0.000000
    132 O2    c       0.000347      0.000171     -0.000237      0.000000
    133 O2    c      -0.000026      0.000117      0.000450      0.000000
    134 O2    c       0.000217     -0.000177      0.000004      0.000000
    135 O3    c       0.000135     -0.000460     -0.000498      0.000000
    136 O2    c      -0.000100      0.000409      0.000487      0.000000
    137 O2    c      -0.000076      0.000033      0.000030      0.000000
    138 O2    c       0.000341     -0.000125      0.001325      0.000000
    139 O3    c       0.000319     -0.000239     -0.004409      0.000000
    140 O2    c       0.000054      0.000164     -0.000320      0.000000
    141 O2    c       0.000343     -0.000303     -0.000899      0.000000
    142 O2    c       0.000194      0.000043     -0.000399      0.000000
    143 O2    c       0.000291     -0.000086      0.000160      0.000000
    144 O2    c       0.000093      0.000047     -0.000293      0.000000
    145 O2    c       0.000127     -0.000037      0.000192      0.000000
    146 O2    c       0.000315     -0.000527      0.000337      0.000000
    147 O2    c       0.000067     -0.000162     -0.000244      0.000000
    148 O2    c      -0.000288     -0.000058      0.000200      0.000000
    149 O2    c       0.000044     -0.000078     -0.000191      0.000000
    150 O2    c      -0.000201     -0.000012      0.000970      0.000000
    151 O3    c       0.000183     -0.000382      0.004141      0.000000
    152 O2    c      -0.000119      0.000114     -0.001177      0.000000
    153 O2    c      -0.000196      0.000214     -0.000837      0.000000
    154 O2    c       0.000102     -0.000105     -0.000861      0.000000
    155 O2    c      -0.000198     -0.000143     -0.000837      0.000000
    156 O2    c       0.000118     -0.000072     -0.001047      0.000000
    157 O2    c      -0.000062      0.000026     -0.000404      0.000000
    158 O2    c       0.000216      0.000374      0.001946      0.000000
    159 O2    c       0.000285     -0.000469     -0.001243      0.000000
    160 O2    c       0.000005     -0.000015     -0.001020      0.000000
    161 O3    c       0.000427     -0.000895      0.001239      0.000000
    162 O2    c      -0.000016      0.000095     -0.000580      0.000000
    163 O2    c      -0.000173      0.000349     -0.000310      0.000000
    164 O2    c      -0.000057      0.000132      0.000299      0.000000
    165 O3    c       0.000002     -0.000466     -0.001373      0.000000
    166 O2    c      -0.000074      0.000117      0.000381      0.000000
    167 O2    c      -0.000375     -0.000198     -0.000514      0.000000
    168 O2    c      -0.000042      0.000045     -0.000056      0.000000
    169 O2    c       0.000123      0.000152     -0.000136      0.000000
    170 O2    c       0.000394      0.000389      0.000223      0.000000
    171 O2    c      -0.000119     -0.000000      0.000495      0.000000
    172 O3    c       0.000146      0.000391     -0.000098      0.000000
    173 O2    c       0.000116      0.000217      0.000114      0.000000
    174 O2    c       0.000213     -0.000175     -0.000174      0.000000
    175 O2    c       0.000073      0.000015      0.000192      0.000000
    176 O2    c      -0.000199      0.000057      0.000395      0.000000
    177 O2    c      -0.000132      0.000233     -0.001796      0.000000
    178 O2    c       0.000037      0.000106     -0.000678      0.000000
    179 O2    c       0.000167      0.000206     -0.001106      0.000000
    180 O2    c       0.000105      0.000223      0.000378      0.000000
    181 F     c       0.000141      0.000149     -0.000252      0.000000
    182 F     c      -0.000438      0.000203     -0.000555      0.000000
    183 F     c       0.000593     -0.000298      0.000041      0.000000
    184 F     c      -0.000318     -0.000524     -0.000249      0.000000
    185 F     c       0.000313      0.000143     -0.000640      0.000000
    186 F     c       0.000266      0.000136     -0.000064      0.000000
    187 O2    s       0.000009     -0.000683      0.002489      0.000000
    188 O2    s      -0.000113      0.000152      0.001295      0.000000
    189 O2    s      -0.000285      0.000319      0.002372      0.000000
    190 O2    s       0.000029      0.000093      0.002028      0.000000
    191 O2    s      -0.000494      0.000082      0.002798      0.000000
    192 O2    s       0.000686     -0.000375      0.002415      0.000000
    193 O2    s       0.000238      0.000120      0.000446      0.000000
    194 O2    s      -0.000239      0.000382      0.001072      0.000000
    195 O2    s       0.000302     -0.000214      0.000373      0.000000
    196 O2    s       0.000151     -0.000021      0.000462      0.000000
    197 O2    s      -0.000093     -0.000040      0.001032      0.000000
    198 O2    s      -0.000131      0.000130     -0.000375      0.000000
    199 O3    s       0.000440      0.000590      0.002348      0.000000
    200 O2    s       0.000358     -0.000150     -0.000190      0.000000
    201 O2    s       0.000149      0.000015     -0.000247      0.000000
    202 O2    s       0.000023      0.000034      0.000512      0.000000
    203 O2    s       0.000093     -0.000144      0.000144      0.000000
    204 O2    s       0.000175     -0.000054      0.000966      0.000000
    205 O2    s       0.000237      0.000222     -0.000123      0.000000
    206 O2    s       0.000010      0.000363      0.000246      0.000000
    207 O2    s       0.000000     -0.000258      0.001136      0.000000
    208 O2    s      -0.000307     -0.000110      0.000124      0.000000
    209 O2    s       0.000206     -0.000147      0.000701      0.000000
    210 O2    s       0.000136     -0.000280      0.000141      0.000000
    211 O2    s      -0.000133     -0.000462      0.000286      0.000000
    212 O2    s      -0.000383      0.000623     -0.000973      0.000000
    213 O2    s       0.000098     -0.000348      0.000750      0.000000
    214 O2    s      -0.000093     -0.000426      0.001013      0.000000
    215 O2    s       0.000124     -0.000137      0.000469      0.000000
    216 O2    s      -0.000218      0.000043      0.000223      0.000000
    217 O2    s       0.000412      0.000044      0.001640      0.000000
    218 O2    s      -0.000112      0.000374      0.000996      0.000000
    219 O2    s       0.000128     -0.000088      0.000403      0.000000
    220 O2    s      -0.000280      0.000302      0.000273      0.000000
    221 O2    s       0.000008      0.000048      0.001622      0.000000
    222 O2    s       0.000301      0.000226      0.001423      0.000000
    223 O2    s       0.000091      0.000267     -0.000183      0.000000
    224 O2    s      -0.000007     -0.000465      0.001257      0.000000
    225 O2    s       0.000674     -0.000306      0.002236      0.000000
    226 O2    s       0.000274     -0.000219      0.000825      0.000000
    227 O3    s      -0.000025     -0.000377      0.000991      0.000000
    228 O2    s      -0.000213      0.000183      0.000815      0.000000
    229 O2    s      -0.000225      0.000242      0.001235      0.000000
    230 O2    s       0.000167     -0.000604     -0.000363      0.000000
    231 O3    s      -0.000181     -0.000358      0.001640      0.000000
    232 O2    s       0.000206     -0.000185      0.001240      0.000000
    233 O2    s       0.000001     -0.000250      0.000978      0.000000
    234 O2    s       0.000161     -0.000129     -0.000207      0.000000
    235 O2    s      -0.000005      0.000117     -0.000103      0.000000
    236 O2    s       0.000004     -0.000022      0.000114      0.000000
    237 O2    s      -0.000153      0.000469      0.000411      0.000000
    238 O2    s      -0.000027     -0.000059     -0.000928      0.000000
    239 O3    s       0.002697      0.001240     -0.001093      0.000000
    240 O2    s       0.000049      0.000143     -0.000289      0.000000
    241 O2    s       0.000126      0.000047     -0.000616      0.000000
    242 O2    s       0.000004      0.000092     -0.000233      0.000000
    243 O2    s       0.000040     -0.000004     -0.000002      0.000000
    244 O2    s      -0.000046     -0.000047      0.000045      0.000000
    245 O2    s      -0.000019     -0.000246     -0.000472      0.000000
    246 O2    s       0.000282     -0.000392      0.000138      0.000000
    247 O2    s       0.000019     -0.000257     -0.000257      0.000000
    248 O2    s       0.000408      0.000081     -0.000322      0.000000
    249 O2    s      -0.000163      0.000430      0.000938      0.000000
    250 O2    s       0.000269     -0.000014      0.000867      0.000000
    251 O2    s      -0.000156     -0.000021     -0.000096      0.000000
    252 O2    s      -0.000260     -0.000038     -0.000031      0.000000
    253 O3    s      -0.000501      0.001400      0.006551      0.000000
    254 O2    s       0.000308     -0.000265      0.000328      0.000000
    255 O2    s       0.000383     -0.000191     -0.000098      0.000000
    256 O2    s      -0.000147      0.000236     -0.000125      0.000000
    257 O3    s      -0.000371      0.000616     -0.000227      0.000000
    258 O2    s       0.000018     -0.000061      0.000208      0.000000
    259 O2    s       0.000279     -0.000059      0.000036      0.000000
    260 O2    s      -0.000457      0.000440     -0.000033      0.000000
    261 O3    s       0.000287      0.000432      0.002159      0.000000
    262 O2    s      -0.000237     -0.000034      0.000998      0.000000
    263 O2    s      -0.000152      0.000281     -0.000008      0.000000
    264 O2    s      -0.000415     -0.000281     -0.002354      0.000000
    265 O3    s      -0.000385     -0.000102      0.005344      0.000000
    266 O2    s      -0.000190      0.000101     -0.000161      0.000000
    267 O2    s      -0.000597      0.000108      0.000100      0.000000
    268 O2    s      -0.000124      0.000108     -0.000247      0.000000
    269 O2    s      -0.000246      0.000145      0.000381      0.000000
    270 O2    s      -0.000003      0.000146     -0.000168      0.000000
    271 O2    s      -0.000206      0.000258      0.000082      0.000000
    272 O2    s       0.000041     -0.000335     -0.000257      0.000000
    273 O2    s       0.000100     -0.000147      0.000747      0.000000
    274 O2    s       0.000350      0.000167      0.000657      0.000000
    275 O2    s      -0.000001      0.000091     -0.000088      0.000000
    276 O2    s      -0.000273      0.000613     -0.001042      0.000000
    277 O3    s      -0.000332      0.000126     -0.004316      0.000000
    278 O2    s      -0.000147      0.000246      0.000519      0.000000
    279 O2    s       0.000053     -0.000136      0.000240      0.000000
    280 O2    s      -0.000068      0.000087      0.000435      0.000000
    281 O2    s       0.000365     -0.000696      0.000023      0.000000
    282 O2    s       0.000119      0.000016      0.000439      0.000000
    283 O2    s       0.000262     -0.000099      0.000453      0.000000
    284 O2    s       0.000167     -0.000131     -0.000535      0.000000
    285 O2    s       0.000075     -0.000307      0.000014      0.000000
    286 O2    s       0.000549     -0.000364      0.000511      0.000000
    287 O3    s      -0.000293      0.000331     -0.002006      0.000000
    288 O2    s       0.000053      0.000094      0.000477      0.000000
    289 O2    s       0.000765     -0.000854      0.000107      0.000000
    290 O2    s       0.000176     -0.000088     -0.000218      0.000000
    291 O3    s       0.000386     -0.000177      0.000902      0.000000
    292 O2    s       0.000384     -0.000218      0.000139      0.000000
    293 O2    s       0.000146      0.000112      0.000131      0.000000
    294 O2    s      -0.000239      0.000497      0.000005      0.000000
    295 O2    s      -0.000317      0.000309      0.000366      0.000000
    296 O2    s       0.000158     -0.000744     -0.000909      0.000000
    297 O2    s      -0.000151     -0.000231      0.001634      0.000000
    298 O3    s       0.000088     -0.000302      0.000923      0.000000
    299 O2    s      -0.000024      0.000026     -0.000415      0.000000
    300 O2    s       0.000325     -0.000160      0.000243      0.000000
    301 O2    s       0.000202     -0.000147      0.000062      0.000000
    302 O2    s       0.000018      0.000159      0.000773      0.000000
    303 O2    s       0.000721     -0.000336     -0.000137      0.000000
    304 O2    s      -0.000353      0.000561     -0.000424      0.000000
    305 O2    s       0.000216      0.000164      0.000103      0.000000
    306 O2    s       0.000208      0.000166     -0.000166      0.000000
    307 F     s       0.000198     -0.000047      0.000402      0.000000
    308 F     s      -0.000452      0.000206     -0.000310      0.000000
    309 F     s       0.000581     -0.000211      0.000136      0.000000
    310 F     s       0.000043     -0.000558     -0.000230      0.000000
    311 F     s      -0.000766     -0.000179     -0.000472      0.000000
    312 F     s       0.000134      0.000108      0.000099      0.000000
--------------------------------------------------------------------------------
  Maximum abs         0.003454      0.001400      0.007110      0.000000
--------------------------------------------------------------------------------


  Time to end of optimisation =     156.4150 seconds


  Peak dynamic memory used =      19.13 MB 


  Timing analysis for GULP :

--------------------------------------------------------------------------------
  Task / Subroutine                                          Time (Seconds)
--------------------------------------------------------------------------------
  Calculation of reciprocal space energy and derivatives          3.6556
  Calculation of real space energy and derivatives              137.1104
  Calculation of three-body energy and derivatives               13.9622
  Calculation of matrix inversion                                 1.4885
  Global summation overhead                                       0.0002
--------------------------------------------------------------------------------
  Total CPU time                                                156.4151
--------------------------------------------------------------------------------


  Dump file written as out.res                                                 
  CIF file written as out.cif                                                 


  Job Finished at 16:36.43  4th November   2016                               

