********************************************************************************
*                       GENERAL UTILITY LATTICE PROGRAM                        *
*                                 Julian Gale                                  *
*                      Nanochemistry Research Institute                        *
*                           Department of Chemistry                            *
*                    Curtin University, Western Australia                      *
********************************************************************************
* Version = 4.2.0 * Last modified =  20th January 2014                         *
********************************************************************************
*  optimise     - perform optimisation run                                     *
*  conp         - constant pressure calculation                                *
*  qok          - running with non charge neutral cell is OK                   *
********************************************************************************

  Job Started  at 17:43.28  4th November   2016                               

  Number of CPUs =     1


  Total number of configurations input =   1

********************************************************************************
*  Input for Configuration =   1                                               *
********************************************************************************

  Formula = Ge3Si57O120F6                                               

  Number of irreducible atoms/shells =     312


  Total number atoms/shells =     312

  Dimensionality = 3               :  Bulk   


  Charge on solid   =  -6.000000 =>neutralising background added


  Cartesian lattice vectors (Angstroms) :

       11.944642    0.000000    0.000000
       -6.060835   10.386290    0.000000
       -0.267957   -0.253948   29.438000

  Cell parameters (Angstroms/Degrees):

  a =      11.9446    alpha =  90.1640
  b =      12.0253    beta  =  90.5215
  c =      29.4403    gamma = 120.2653

  Initial cell volume =        3652.093380 Angs**3

  Temperature of configuration =  0.000     K 

  Pressure of configuration =         0.000 GPa 

  Fractional coordinates of asymmetric unit :

--------------------------------------------------------------------------------
   No.  Atomic       x           y          z         Charge      Occupancy
        Label      (Frac)      (Frac)     (Frac)        (e)         (Frac)  
--------------------------------------------------------------------------------
      1 Ge    c    0.699600    0.375700    0.033890     4.00000    1.000000    
      2 Si    c    0.620887 *  0.325157 *  0.365860 *   4.00000    1.000000    
      3 Si    c    0.680682 *  0.297048 *  0.697050 *   4.00000    1.000000    
      4 Si    c    0.297174 *  0.621357 *  0.531547 *   4.00000    1.000000    
      5 Si    c    0.373306 *  0.681421 *  0.860869 *   4.00000    1.000000    
      6 Si    c    0.323366 *  0.708138 *  0.198745 *   4.00000    1.000000    
      7 Si    c    0.377064 *  0.700990 *  0.299273 *   4.00000    1.000000    
      8 Si    c    0.317037 *  0.617094 *  0.962839 *   4.00000    1.000000    
      9 Si    c    0.297110 *  0.675950 *  0.632258 *   4.00000    1.000000    
     10 Si    c    0.632827 *  0.301380 *  0.797890 *   4.00000    1.000000    
     11 Si    c    0.675868 *  0.380597 *  0.466575 *   4.00000    1.000000    
     12 Si    c    0.685426 *  0.319353 *  0.133381 *   4.00000    1.000000    
     13 Si    c    0.527150 *  0.409616 *  0.963306 *   4.00000    1.000000    
     14 Si    c    0.583207 *  0.112111 *  0.302854 *   4.00000    1.000000    
     15 Si    c    0.888494 *  0.470296 *  0.632265 *   4.00000    1.000000    
     16 Si    c    0.467945 *  0.583153 *  0.466196 *   4.00000    1.000000    
     17 Si    c    0.420101 *  0.897215 *  0.798680 *   4.00000    1.000000    
     18 Si    c    0.114663 *  0.534472 *  0.130990 *   4.00000    1.000000    
     19 Si    c    0.415843 *  0.529037 *  0.364108 *   4.00000    1.000000    
     20 Si    c    0.106661 *  0.581741 *  0.027439 *   4.00000    1.000000    
     21 Si    c    0.468710 *  0.887932 *  0.697723 *   4.00000    1.000000    
     22 Si    c    0.588396 *  0.468145 *  0.860335 *   4.00000    1.000000    
     23 Si    c    0.888402 *  0.418187 *  0.530782 *   4.00000    1.000000    
     24 Si    c    0.528440 *  0.115136 *  0.201329 *   4.00000    1.000000    
     25 Ge    c    0.314328 *  0.412290 *  0.853452 *   4.00000    1.000000    
     26 Si    c    0.601956 *  0.909618 *  0.184932 *   4.00000    1.000000    
     27 Si    c    0.095932 *  0.698136 *  0.516465 *   4.00000    1.000000    
     28 Si    c    0.697238 *  0.601244 *  0.350622 *   4.00000    1.000000    
     29 Si    c    0.399627 *  0.097441 *  0.683310 *   4.00000    1.000000    
     30 Si    c    0.890989 *  0.294371 *  0.010443 *   4.00000    1.000000    
     31 Si    c    0.396612 *  0.303062 *  0.480641 *   4.00000    1.000000    
     32 Si    c    0.897161 *  0.601747 *  0.144959 *   4.00000    1.000000    
     33 Si    c    0.704788 *  0.098302 *  0.813101 *   4.00000    1.000000    
     34 Si    c    0.599534 *  0.694522 *  0.978219 *   4.00000    1.000000    
     35 Si    c    0.096908 *  0.397133 *  0.646961 *   4.00000    1.000000    
     36 Si    c    0.300869 *  0.901577 *  0.315789 *   4.00000    1.000000    
     37 Si    c    0.242359 *  0.330677 *  0.948920 *   4.00000    1.000000    
     38 Si    c    0.659895 *  0.911844 *  0.285712 *   4.00000    1.000000    
     39 Si    c    0.088552 *  0.749390 *  0.617239 *   4.00000    1.000000    
     40 Si    c    0.747607 *  0.660220 *  0.451493 *   4.00000    1.000000    
     41 Si    c    0.345593 *  0.099049 *  0.783953 *   4.00000    1.000000    
     42 Ge    c    0.903131 *  0.250254 *  0.114363 *   4.00000    1.000000    
     43 Si    c    0.339228 *  0.251732 *  0.379554 *   4.00000    1.000000    
     44 Si    c    0.903405 *  0.661408 *  0.042698 *   4.00000    1.000000    
     45 Si    c    0.750247 *  0.087523 *  0.712252 *   4.00000    1.000000    
     46 Si    c    0.660015 *  0.748546 *  0.876570 *   4.00000    1.000000    
     47 Si    c    0.088874 *  0.340329 *  0.545884 *   4.00000    1.000000    
     48 Si    c    0.248850 *  0.912304 *  0.215170 *   4.00000    1.000000    
     49 Si    c    0.968413 *  0.118007 *  0.964666 *   4.00000    1.000000    
     50 Si    c    0.876478 *  0.847338 *  0.299618 *   4.00000    1.000000    
     51 Si    c    0.150277 *  0.028917 *  0.632234 *   4.00000    1.000000    
     52 Si    c    0.028624 *  0.878449 *  0.466157 *   4.00000    1.000000    
     53 Si    c    0.127507 *  0.161439 *  0.799536 *   4.00000    1.000000    
     54 Si    c    0.847543 *  0.971539 *  0.133049 *   4.00000    1.000000    
     55 Si    c    0.121684 *  0.970366 *  0.365367 *   4.00000    1.000000    
     56 Si    c    0.845708 *  0.879167 *  0.031276 *   4.00000    1.000000    
     57 Si    c    0.030434 *  0.150320 *  0.697854 *   4.00000    1.000000    
     58 Si    c    0.883372 *  0.027436 *  0.863102 *   4.00000    1.000000    
     59 Si    c    0.149862 *  0.122713 *  0.531389 *   4.00000    1.000000    
     60 Si    c    0.967876 *  0.847888 *  0.198307 *   4.00000    1.000000    
     61 O2    c    0.918869 *  0.001589 *  0.999705 *   0.87073    1.000000    
     62 O2    c    0.001404 *  0.928362 *  0.331318 *   0.87073    1.000000    
     63 O2    c    0.071255 *  0.070917 *  0.664656 *   0.87073    1.000000    
     64 O2    c    0.071002 *  0.000980 *  0.498299 *   0.87073    1.000000    
     65 O2    c    0.003804 *  0.069359 *  0.830666 *   0.87073    1.000000    
     66 O2    c    0.924442 *  0.924145 *  0.165025 *   0.87073    1.000000    
     67 O2    c    0.339130 *  0.577413 *  0.331060 *   0.87073    1.000000    
     68 O2    c    0.419925 *  0.761489 *  0.665620 *   0.87073    1.000000    
     69 O2    c    0.233482 *  0.656099 *  0.995829 *   0.87073    1.000000    
     70 O2    c    0.675919 *  0.425623 *  0.830859 *   0.87073    1.000000    
     71 O2    c    0.574627 *  0.242557 *  0.171149 *   0.87073    1.000000    
     72 O2    c    0.760451 *  0.340937 *  0.498614 *   0.87073    1.000000    
     73 O3    c    0.568928 *  0.334671 *  0.996819 *   1.33043    1.000000    
     74 O2    c    0.762988 *  0.419663 *  0.664357 *   0.87073    1.000000    
     75 O2    c    0.660515 *  0.238569 *  0.334888 *   0.87073    1.000000    
     76 O2    c    0.419813 *  0.659621 *  0.498605 *   0.87073    1.000000    
     77 O2    c    0.240818 *  0.588847 *  0.163645 *   0.87073    1.000000    
     78 O2    c    0.341726 *  0.777209 *  0.832702 *   0.87073    1.000000    
     79 O2    c    0.121940 *  0.208837 *  0.974078 *   0.87073    1.000000    
     80 O2    c    0.786570 *  0.911223 *  0.305596 *   0.87073    1.000000    
     81 O2    c    0.087218 *  0.874811 *  0.636977 *   0.87073    1.000000    
     82 O2    c    0.874053 *  0.787467 *  0.471751 *   0.87073    1.000000    
     83 O2    c    0.223856 *  0.102958 *  0.805074 *   0.87073    1.000000    
     84 O3    c    0.915108 *  0.123328 *  0.137731 *   1.33043    1.000000    
     85 O2    c    0.212472 *  0.123956 *  0.359476 *   0.87073    1.000000    
     86 O2    c    0.917995 *  0.797218 *  0.026269 *   0.87073    1.000000    
     87 O2    c    0.875191 *  0.086379 *  0.691732 *   0.87073    1.000000    
     88 O2    c    0.786754 *  0.873439 *  0.857102 *   0.87073    1.000000    
     89 O2    c    0.087140 *  0.213554 *  0.525651 *   0.87073    1.000000    
     90 O2    c    0.123095 *  0.914007 *  0.194769 *   0.87073    1.000000    
     91 O2    c    0.924218 *  0.857628 *  0.248461 *   0.87073    1.000000    
     92 O2    c    0.136753 *  0.069228 *  0.581632 *   0.87073    1.000000    
     93 O2    c    0.933908 *  0.057548 *  0.914702 *   0.87073    1.000000    
     94 O2    c    0.071127 *  0.137924 *  0.748162 *   0.87073    1.000000    
     95 O2    c    0.851500 *  0.927039 *  0.082210 *   0.87073    1.000000    
     96 O2    c    0.066601 *  0.930660 *  0.415447 *   0.87073    1.000000    
     97 O2    c    0.901505 *  0.204064 *  0.971657 *   0.87073    1.000000    
     98 O2    c    0.795026 *  0.696829 *  0.312137 *   0.87073    1.000000    
     99 O2    c    0.302678 *  0.098172 *  0.644346 *   0.87073    1.000000    
    100 O2    c    0.098138 *  0.796651 *  0.478153 *   0.87073    1.000000    
    101 O3    c    0.200632 *  0.307748 *  0.811129 *   1.33043    1.000000    
    102 O2    c    0.696122 *  0.909041 *  0.145854 *   0.87073    1.000000    
    103 O2    c    0.203716 *  0.900317 *  0.354244 *   0.87073    1.000000    
    104 O2    c    0.693990 *  0.789344 *  0.017919 *   0.87073    1.000000    
    105 O2    c    0.099052 *  0.301462 *  0.685122 *   0.87073    1.000000    
    106 O2    c    0.802160 *  0.098461 *  0.852006 *   0.87073    1.000000    
    107 O2    c    0.301723 *  0.205907 *  0.519130 *   0.87073    1.000000    
    108 O2    c    0.901763 *  0.697560 *  0.184575 *   0.87073    1.000000    
    109 O2    c    0.320303 *  0.645770 *  0.248222 *   0.87073    1.000000    
    110 O2    c    0.355537 *  0.678227 *  0.582030 *   0.87073    1.000000    
    111 O2    c    0.318812 *  0.673053 *  0.912763 *   0.87073    1.000000    
    112 O2    c    0.685933 *  0.356209 *  0.747361 *   0.87073    1.000000    
    113 O3    c    0.615605 *  0.306366 *  0.085293 *   1.33043    1.000000    
    114 O2    c    0.677438 *  0.325073 *  0.416215 *   0.87073    1.000000    
    115 O2    c    0.369900 *  0.325790 *  0.964634 *   0.87073    1.000000    
    116 O2    c    0.670310 *  0.043049 *  0.305193 *   0.87073    1.000000    
    117 O2    c    0.956327 *  0.626174 *  0.635234 *   0.87073    1.000000    
    118 O2    c    0.625009 *  0.670569 *  0.469090 *   0.87073    1.000000    
    119 O2    c    0.333333 *  0.965622 *  0.801478 *   0.87073    1.000000    
    120 O3    c    0.048328 *  0.381999 *  0.131971 *   1.33043    1.000000    
    121 O2    c    0.328313 *  0.372813 *  0.360618 *   0.87073    1.000000    
    122 O2    c    0.034208 *  0.664691 *  0.025010 *   0.87073    1.000000    
    123 O2    c    0.625364 *  0.955441 *  0.694118 *   0.87073    1.000000    
    124 O2    c    0.669009 *  0.625496 *  0.859657 *   0.87073    1.000000    
    125 O2    c    0.956117 *  0.330343 *  0.526959 *   0.87073    1.000000    
    126 O2    c    0.371399 *  0.044445 *  0.197438 *   0.87073    1.000000    
    127 O3    c    0.757987 *  0.289619 *  0.001538 *   1.33043    1.000000    
    128 O2    c    0.696042 *  0.467066 *  0.342788 *   0.87073    1.000000    
    129 O2    c    0.535826 *  0.228616 *  0.674918 *   0.87073    1.000000    
    130 O2    c    0.229518 *  0.696770 *  0.508985 *   0.87073    1.000000    
    131 O3    c    0.298078 *  0.545463 *  0.836298 *   1.33043    1.000000    
    132 O2    c    0.466341 *  0.776638 *  0.176416 *   0.87073    1.000000    
    133 O2    c    0.301501 *  0.768034 *  0.321857 *   0.87073    1.000000    
    134 O2    c    0.463287 *  0.690910 *  0.983685 *   0.87073    1.000000    
    135 O2    c    0.230550 *  0.532928 *  0.654068 *   0.87073    1.000000    
    136 O2    c    0.708079 *  0.233360 *  0.820080 *   0.87073    1.000000    
    137 O2    c    0.531918 *  0.305231 *  0.488254 *   0.87073    1.000000    
    138 O2    c    0.761890 *  0.469031 *  0.151271 *   0.87073    1.000000    
    139 O3    c    0.773943 *  0.546103 *  0.022840 *   1.33043    1.000000    
    140 O2    c    0.464032 *  0.249824 *  0.359879 *   0.87073    1.000000    
    141 O2    c    0.753073 *  0.214052 *  0.692456 *   0.87073    1.000000    
    142 O2    c    0.215825 *  0.465361 *  0.526498 *   0.87073    1.000000    
    143 O2    c    0.531000 *  0.745299 *  0.858676 *   0.87073    1.000000    
    144 O2    c    0.244656 *  0.785460 *  0.194483 *   0.87073    1.000000    
    145 O2    c    0.533844 *  0.784533 *  0.304024 *   0.87073    1.000000    
    146 O2    c    0.248572 *  0.462607 *  0.966966 *   0.87073    1.000000    
    147 O2    c    0.214946 *  0.749501 *  0.636857 *   0.87073    1.000000    
    148 O2    c    0.476778 *  0.221386 *  0.803258 *   0.87073    1.000000    
    149 O2    c    0.748715 *  0.536279 *  0.471623 *   0.87073    1.000000    
    150 O3    c    0.772428 *  0.251123 *  0.137408 *   1.33043    1.000000    
    151 O3    c    0.210356 *  0.305286 *  0.896371 *   1.33043    1.000000    
    152 O2    c    0.677695 *  0.913310 *  0.231270 *   0.87073    1.000000    
    153 O2    c    0.090907 *  0.768089 *  0.562817 *   0.87073    1.000000    
    154 O2    c    0.768450 *  0.676652 *  0.397151 *   0.87073    1.000000    
    155 O2    c    0.327631 *  0.098997 *  0.729336 *   0.87073    1.000000    
    156 O3    c    0.895370 *  0.224177 *  0.056970 *   1.33043    1.000000    
    157 O2    c    0.321777 *  0.232802 *  0.433809 *   0.87073    1.000000    
    158 O2    c    0.904462 *  0.672307 *  0.097934 *   0.87073    1.000000    
    159 O2    c    0.772029 *  0.090372 *  0.766636 *   0.87073    1.000000    
    160 O2    c    0.669813 *  0.760614 *  0.931387 *   0.87073    1.000000    
    161 O2    c    0.091359 *  0.323252 *  0.600168 *   0.87073    1.000000    
    162 O2    c    0.229870 *  0.907874 *  0.269470 *   0.87073    1.000000    
    163 O2    c    0.577667 *  0.553056 *  0.983887 *   0.87073    1.000000    
    164 O2    c    0.441786 *  0.025639 *  0.325354 *   0.87073    1.000000    
    165 O2    c    0.972504 *  0.413083 *  0.655332 *   0.87073    1.000000    
    166 O2    c    0.411185 *  0.442333 *  0.488828 *   0.87073    1.000000    
    167 O2    c    0.563118 *  0.976075 *  0.822169 *   0.87073    1.000000    
    168 O2    c    0.017131 *  0.577743 *  0.151392 *   0.87073    1.000000    
    169 O2    c    0.557597 *  0.587887 *  0.341228 *   0.87073    1.000000    
    170 O2    c    0.017610 *  0.438610 *  0.007057 *   0.87073    1.000000    
    171 O2    c    0.409352 *  0.969934 *  0.674645 *   0.87073    1.000000    
    172 O3    c    0.452430 *  0.408161 *  0.834432 *   1.33043    1.000000    
    173 O2    c    0.969990 *  0.558477 *  0.507040 *   0.87073    1.000000    
    174 O2    c    0.588637 *  0.035406 *  0.177019 *   0.87073    1.000000    
    175 O2    c    0.582235 *  0.165650 *  0.252407 *   0.87073    1.000000    
    176 O2    c    0.834213 *  0.416893 *  0.581270 *   0.87073    1.000000    
    177 O2    c    0.580692 *  0.416213 *  0.912229 *   0.87073    1.000000    
    178 O2    c    0.416279 *  0.836810 *  0.748661 *   0.87073    1.000000    
    179 O2    c    0.155880 *  0.583511 *  0.079194 *   0.87073    1.000000    
    180 O2    c    0.414879 *  0.582219 *  0.414888 *   0.87073    1.000000    
    181 F     c    0.449373 *  0.903606 *  0.249029 *   0.56000    1.000000    
    182 F     c    0.095104 *  0.547525 *  0.580552 *   0.56000    1.000000    
    183 F     c    0.422030 *  0.517995 *  0.902164 *   0.56000    1.000000    
    184 F     c    0.551045 *  0.095306 *  0.747671 *   0.56000    1.000000    
    185 F     c    0.856350 *  0.428801 *  0.072021 *   0.56000    1.000000    
    186 F     c    0.547049 *  0.452616 *  0.414319 *   0.56000    1.000000    
    187 O2    s    0.915876 *  0.000376 *  0.999446 *  -2.87073    1.000000    
    188 O2    s    0.000675 *  0.923838 *  0.331535 *  -2.87073    1.000000    
    189 O2    s    0.075679 *  0.074884 *  0.664641 *  -2.87073    1.000000    
    190 O2    s    0.075086 *  0.000790 *  0.498366 *  -2.87073    1.000000    
    191 O2    s    0.002838 *  0.074095 *  0.831144 *  -2.87073    1.000000    
    192 O2    s    0.920824 *  0.920758 *  0.165254 *  -2.87073    1.000000    
    193 O2    s    0.350801 *  0.585301 *  0.331100 *  -2.87073    1.000000    
    194 O2    s    0.412164 *  0.765585 *  0.665432 *  -2.87073    1.000000    
    195 O2    s    0.228740 *  0.644382 *  0.995754 *  -2.87073    1.000000    
    196 O2    s    0.662903 *  0.417410 *  0.830481 *  -2.87073    1.000000    
    197 O2    s    0.581014 *  0.236996 *  0.170485 *  -2.87073    1.000000    
    198 O2    s    0.764733 *  0.353055 *  0.498544 *  -2.87073    1.000000    
    199 O3    s    0.574270 *  0.345764 *  0.996047 *  -3.33043    1.000000    
    200 O2    s    0.767610 *  0.412321 *  0.664392 *  -2.87073    1.000000    
    201 O2    s    0.648394 *  0.234162 *  0.334696 *  -2.87073    1.000000    
    202 O2    s    0.412358 *  0.647786 *  0.498596 *  -2.87073    1.000000    
    203 O2    s    0.235739 *  0.595165 *  0.163737 *  -2.87073    1.000000    
    204 O2    s    0.353208 *  0.779424 *  0.832206 *  -2.87073    1.000000    
    205 O2    s    0.117702 *  0.211369 *  0.970634 *  -2.87073    1.000000    
    206 O2    s    0.782881 *  0.904520 *  0.302918 *  -2.87073    1.000000    
    207 O2    s    0.093965 *  0.878003 *  0.634454 *  -2.87073    1.000000    
    208 O2    s    0.877355 *  0.783886 *  0.469064 *  -2.87073    1.000000    
    209 O2    s    0.227319 *  0.108403 *  0.802254 *  -2.87073    1.000000    
    210 O3    s    0.907219 *  0.117337 *  0.135495 *  -3.33043    1.000000    
    211 O2    s    0.215907 *  0.120789 *  0.362154 *  -2.87073    1.000000    
    212 O2    s    0.908815 *  0.792204 *  0.028438 *  -2.87073    1.000000    
    213 O2    s    0.878534 *  0.093212 *  0.694476 *  -2.87073    1.000000    
    214 O2    s    0.783237 *  0.876078 *  0.859775 *  -2.87073    1.000000    
    215 O2    s    0.093940 *  0.216946 *  0.528310 *  -2.87073    1.000000    
    216 O2    s    0.119478 *  0.906745 *  0.197234 *  -2.87073    1.000000    
    217 O2    s    0.923782 *  0.855348 *  0.248494 *  -2.87073    1.000000    
    218 O2    s    0.139712 *  0.070847 *  0.581542 *  -2.87073    1.000000    
    219 O2    s    0.932191 *  0.061005 *  0.914646 *  -2.87073    1.000000    
    220 O2    s    0.072365 *  0.141818 *  0.747743 *  -2.87073    1.000000    
    221 O2    s    0.850416 *  0.926583 *  0.082135 *  -2.87073    1.000000    
    222 O2    s    0.068660 *  0.929332 *  0.415405 *  -2.87073    1.000000    
    223 O2    s    0.907607 *  0.204078 *  0.974864 *  -2.87073    1.000000    
    224 O2    s    0.793797 *  0.703228 *  0.314700 *  -2.87073    1.000000    
    225 O2    s    0.296212 *  0.090712 *  0.647011 *  -2.87073    1.000000    
    226 O2    s    0.090539 *  0.795403 *  0.480743 *  -2.87073    1.000000    
    227 O3    s    0.199897 *  0.298115 *  0.812569 *  -3.33043    1.000000    
    228 O2    s    0.702069 *  0.915558 *  0.148575 *  -2.87073    1.000000    
    229 O2    s    0.205115 *  0.907806 *  0.351450 *  -2.87073    1.000000    
    230 O2    s    0.699909 *  0.788755 *  0.015127 *  -2.87073    1.000000    
    231 O2    s    0.091727 *  0.295689 *  0.682472 *  -2.87073    1.000000    
    232 O2    s    0.800779 *  0.090973 *  0.849206 *  -2.87073    1.000000    
    233 O2    s    0.295445 *  0.207146 *  0.516451 *  -2.87073    1.000000    
    234 O2    s    0.908261 *  0.703445 *  0.181890 *  -2.87073    1.000000    
    235 O2    s    0.326289 *  0.657623 *  0.248314 *  -2.87073    1.000000    
    236 O2    s    0.343667 *  0.672148 *  0.581912 *  -2.87073    1.000000    
    237 O2    s    0.323799 *  0.667885 *  0.913081 *  -2.87073    1.000000    
    238 O2    s    0.679939 *  0.344486 *  0.747385 *  -2.87073    1.000000    
    239 O3    s    0.628337 *  0.312433 *  0.086422 *  -3.33043    1.000000    
    240 O2    s    0.671365 *  0.330843 *  0.416135 *  -2.87073    1.000000    
    241 O2    s    0.372599 *  0.334971 *  0.962785 *  -2.87073    1.000000    
    242 O2    s    0.660303 *  0.036424 *  0.302909 *  -2.87073    1.000000    
    243 O2    s    0.963180 *  0.623026 *  0.633036 *  -2.87073    1.000000    
    244 O2    s    0.621655 *  0.660445 *  0.466921 *  -2.87073    1.000000    
    245 O2    s    0.343793 *  0.972359 *  0.799326 *  -2.87073    1.000000    
    246 O3    s    0.043545 *  0.387089 *  0.130468 *  -3.33043    1.000000    
    247 O2    s    0.338387 *  0.376279 *  0.362946 *  -2.87073    1.000000    
    248 O2    s    0.028630 *  0.655598 *  0.027036 *  -2.87073    1.000000    
    249 O2    s    0.622401 *  0.962424 *  0.696417 *  -2.87073    1.000000    
    250 O2    s    0.659985 *  0.622866 *  0.861543 *  -2.87073    1.000000    
    251 O2    s    0.963049 *  0.340442 *  0.529345 *  -2.87073    1.000000    
    252 O2    s    0.374534 *  0.037621 *  0.199744 *  -2.87073    1.000000    
    253 O3    s    0.768092 *  0.295986 *  0.004757 *  -3.33043    1.000000    
    254 O2    s    0.688495 *  0.466593 *  0.345984 *  -2.87073    1.000000    
    255 O2    s    0.536430 *  0.221816 *  0.678133 *  -2.87073    1.000000    
    256 O2    s    0.222397 *  0.689184 *  0.512118 *  -2.87073    1.000000    
    257 O3    s    0.307095 *  0.550350 *  0.840105 *  -3.33043    1.000000    
    258 O2    s    0.465746 *  0.783533 *  0.179674 *  -2.87073    1.000000    
    259 O2    s    0.309166 *  0.775207 *  0.318867 *  -2.87073    1.000000    
    260 O2    s    0.462521 *  0.683687 *  0.980938 *  -2.87073    1.000000    
    261 O2    s    0.223349 *  0.533390 *  0.651022 *  -2.87073    1.000000    
    262 O2    s    0.699995 *  0.226073 *  0.817007 *  -2.87073    1.000000    
    263 O2    s    0.532436 *  0.312805 *  0.485160 *  -2.87073    1.000000    
    264 O2    s    0.768752 *  0.468417 *  0.148789 *  -2.87073    1.000000    
    265 O3    s    0.783132 *  0.547395 *  0.025683 *  -3.33043    1.000000    
    266 O2    s    0.466898 *  0.257936 *  0.362576 *  -2.87073    1.000000    
    267 O2    s    0.745072 *  0.209098 *  0.695047 *  -2.87073    1.000000    
    268 O2    s    0.210514 *  0.468114 *  0.529085 *  -2.87073    1.000000    
    269 O2    s    0.529490 *  0.739157 *  0.860851 *  -2.87073    1.000000    
    270 O2    s    0.253281 *  0.790993 *  0.197093 *  -2.87073    1.000000    
    271 O2    s    0.531087 *  0.789706 *  0.301552 *  -2.87073    1.000000    
    272 O2    s    0.255309 *  0.465963 *  0.964735 *  -2.87073    1.000000    
    273 O2    s    0.209595 *  0.741698 *  0.634256 *  -2.87073    1.000000    
    274 O2    s    0.479121 *  0.216485 *  0.800625 *  -2.87073    1.000000    
    275 O2    s    0.740872 *  0.533497 *  0.468931 *  -2.87073    1.000000    
    276 O3    s    0.775476 *  0.257629 *  0.135045 *  -3.33043    1.000000    
    277 O3    s    0.220621 *  0.315082 *  0.899036 *  -3.33043    1.000000    
    278 O2    s    0.667839 *  0.912797 *  0.232143 *  -2.87073    1.000000    
    279 O2    s    0.091163 *  0.758735 *  0.563684 *  -2.87073    1.000000    
    280 O2    s    0.758739 *  0.666956 *  0.397950 *  -2.87073    1.000000    
    281 O2    s    0.337133 *  0.098832 *  0.730190 *  -2.87073    1.000000    
    282 O3    s    0.895550 *  0.232817 *  0.057521 *  -3.33043    1.000000    
    283 O2    s    0.331470 *  0.242182 *  0.432926 *  -2.87073    1.000000    
    284 O2    s    0.903505 *  0.663454 *  0.097485 *  -2.87073    1.000000    
    285 O2    s    0.762693 *  0.090905 *  0.765764 *  -2.87073    1.000000    
    286 O2    s    0.661256 *  0.752279 *  0.930684 *  -2.87073    1.000000    
    287 O2    s    0.091660 *  0.332843 *  0.599254 *  -2.87073    1.000000    
    288 O2    s    0.239292 *  0.907693 *  0.268513 *  -2.87073    1.000000    
    289 O2    s    0.574789 *  0.554344 *  0.981112 *  -2.87073    1.000000    
    290 O2    s    0.441410 *  0.021123 *  0.321948 *  -2.87073    1.000000    
    291 O2    s    0.977339 *  0.417576 *  0.651997 *  -2.87073    1.000000    
    292 O2    s    0.415728 *  0.442045 *  0.485554 *  -2.87073    1.000000    
    293 O2    s    0.563591 *  0.981250 *  0.818735 *  -2.87073    1.000000    
    294 O2    s    0.014246 *  0.575619 *  0.148532 *  -2.87073    1.000000    
    295 O2    s    0.557795 *  0.582999 *  0.344622 *  -2.87073    1.000000    
    296 O2    s    0.014245 *  0.439515 *  0.009608 *  -2.87073    1.000000    
    297 O2    s    0.414684 *  0.975242 *  0.677988 *  -2.87073    1.000000    
    298 O3    s    0.456336 *  0.414818 *  0.838461 *  -3.33043    1.000000    
    299 O2    s    0.975281 *  0.559005 *  0.510507 *  -2.87073    1.000000    
    300 O2    s    0.583703 *  0.030027 *  0.180361 *  -2.87073    1.000000    
    301 O2    s    0.576623 *  0.154617 *  0.252286 *  -2.87073    1.000000    
    302 O2    s    0.845600 *  0.422624 *  0.581284 *  -2.87073    1.000000    
    303 O2    s    0.575940 *  0.420725 *  0.912339 *  -2.87073    1.000000    
    304 O2    s    0.422111 *  0.848295 *  0.748544 *  -2.87073    1.000000    
    305 O2    s    0.146510 *  0.578276 *  0.079202 *  -2.87073    1.000000    
    306 O2    s    0.420393 *  0.576781 *  0.414874 *  -2.87073    1.000000    
    307 F     s    0.448943 *  0.902988 *  0.248867 *  -1.56000    1.000000    
    308 F     s    0.095387 *  0.547684 *  0.580416 *  -1.56000    1.000000    
    309 F     s    0.415002 *  0.511382 *  0.899202 *  -1.56000    1.000000    
    310 F     s    0.551196 *  0.095345 *  0.747659 *  -1.56000    1.000000    
    311 F     s    0.848198 *  0.425127 *  0.070346 *  -1.56000    1.000000    
    312 F     s    0.547273 *  0.452407 *  0.414169 *  -1.56000    1.000000    
--------------------------------------------------------------------------------



********************************************************************************
*  General input information                                                   *
********************************************************************************

  Species output for all configurations : 

--------------------------------------------------------------------------------
  Species    Type    Atomic    Atomic    Charge       Radii (Angs)     Library
                     Number     Mass       (e)     Cova   Ionic  VDW   Symbol
--------------------------------------------------------------------------------
    Si       Core       14      28.09   4.000000   1.200  0.000  2.100          
    O1       Core        8      16.00   1.733957   0.730  0.000  1.360          
    O1       Shell       8       0.00  -3.733957   0.730  0.000  1.360          
    O2       Core        8      16.00   0.870733   0.730  0.000  1.360          
    O2       Shell       8       0.00  -2.870733   0.730  0.000  1.360          
    O3       Core        8      16.00   1.330431   0.730  0.000  1.360          
    O3       Shell       8       0.00  -3.330431   0.730  0.000  1.360          
    F        Core        9      19.00   0.560000   0.710  0.000  1.300          
    F        Shell       9       0.00  -1.560000   0.710  0.000  1.300          
    Ge       Core       32      72.61   4.000000   1.170  0.000  1.750          
--------------------------------------------------------------------------------


  Lattice summation method               =    Ewald          (3-D)
                                         =    Parry          (2-D)
                                         =    Saunders et al (1-D)
  Accuracy factor for lattice sums       =   12.000


  Time limit = Infinity

  Maximum range for interatomic potentials =        16.000000 Angstroms

  Taper potentials to zero over   1.0000 Angstroms using polynomial

  General interatomic potentials :

--------------------------------------------------------------------------------
Atom  Types   Potential         A         B         C         D     Cutoffs(Ang)
  1     2                                                            Min    Max 
--------------------------------------------------------------------------------
Si   c O1   s Buckingham    0.132E+04 0.318      10.1      0.00     0.000 16.000
Si   c O2   s Buckingham    0.132E+04 0.318      10.1      0.00     0.000 16.000
Si   c O3   s Buckingham    0.132E+04 0.318      10.1      0.00     0.000 16.000
Ge   c O1   s Buckingham    0.150E+04 0.326      16.8      0.00     0.000 16.000
Ge   c O2   s Buckingham    0.150E+04 0.326      16.8      0.00     0.000 16.000
Ge   c O3   s Buckingham    0.150E+04 0.326      16.8      0.00     0.000 16.000
O1   s O1   s Buckingham    0.228E+05 0.149      10.9      0.00     0.000 16.000
O1   s O2   s Buckingham    0.228E+05 0.149      10.9      0.00     0.000 16.000
O1   s O3   s Buckingham    0.228E+05 0.149      10.9      0.00     0.000 16.000
O2   s O2   s Buckingham    0.228E+05 0.149      10.9      0.00     0.000 16.000
O2   s O3   s Buckingham    0.228E+05 0.149      10.9      0.00     0.000 16.000
O3   s O3   s Buckingham    0.228E+05 0.149      10.9      0.00     0.000 16.000
Si   c F    s Buckingham     977.     0.282      0.00      0.00     0.000 16.000
Ge   c F    s Buckingham     681.     0.320      0.00      0.00     0.000 16.000
F    s F    s Buckingham     540.     0.262      0.00      0.00     0.000 16.000
O1   s F    s Buckingham    0.168E+04 0.268      0.00      0.00     0.000 16.000
O2   s F    s Buckingham    0.168E+04 0.268      0.00      0.00     0.000 16.000
O3   s F    s Buckingham    0.168E+04 0.268      0.00      0.00     0.000 16.000
O2   c O2   s Spring (c-s)   76.0      0.00      0.00      0.00     0.000  0.800
O3   c O3   s Spring (c-s)   128.      0.00      0.00      0.00     0.000  0.800
O1   c O1   s Spring (c-s)   180.      0.00      0.00      0.00     0.000  0.800
F    c F    s Spring (c-s)   33.5      0.00      0.00      0.00     0.000  0.800
--------------------------------------------------------------------------------

  General Three-body potentials :

  Harmonic form:

--------------------------------------------------------------------------------
Atom    Atom    Atom           Force Constants            Theta     Cutoffs  
  1       2       3     (eVrad**-2/eVrad**-3/eVrad**-4)   (deg)  1-2  1-3  2-3
--------------------------------------------------------------------------------
Si    c O1    s O1    s  1.261        0.0000    0.0000   109.470 0.00 0.00 0.00
                                                                 1.90 1.90 3.50
Si    c O1    s O2    s  1.261        0.0000    0.0000   109.470 0.00 0.00 0.00
                                                                 1.90 1.90 3.50
Si    c O2    s O2    s  1.261        0.0000    0.0000   109.470 0.00 0.00 0.00
                                                                 1.90 1.90 3.50
--------------------------------------------------------------------------------

********************************************************************************
*  Output for configuration   1                                                *
********************************************************************************


  Components of energy : 

--------------------------------------------------------------------------------
  Interatomic potentials     =        2064.19721431 eV
  Three-body potentials      =           0.45140036 eV
  Monopole - monopole (real) =       -6612.11222241 eV
  Monopole - monopole (recip)=       -3172.70227588 eV
  Monopole - monopole (total)=       -9784.81449829 eV
  Neutralising energy        =          -6.46280899 eV
--------------------------------------------------------------------------------
  Total lattice energy       =       -7726.62869262 eV
--------------------------------------------------------------------------------
  Total lattice energy       =         -745501.5565 kJ/(mole unit cells)
--------------------------------------------------------------------------------


  Number of variables =      939

  Maximum number of calculations  =          5000
  Maximum Hessian update interval =            10
  Maximum step size               =   0.100000000
  Maximum parameter tolerance     =   0.000010000
  Maximum function  tolerance     =   0.000010000
  Maximum gradient  tolerance     =   0.001000000
  Maximum gradient  component     =   0.010000000

  Symmetry not applied to optimisation

  Cell parameters to be optimised using strains

  Newton-Raphson optimiser to be used

  BFGS hessian update to be used

  Dumpfile to be written after every cycle

  Start of bulk optimisation :

  Cycle:      0 Energy:     -7726.628693  Gnorm:      0.016804  CPU:    2.019
  ** Hessian calculated **
  Cycle:      1 Energy:     -7726.629711  Gnorm:      0.005089  CPU:    5.964
  Cycle:      2 Energy:     -7726.630016  Gnorm:      0.003744  CPU:    9.526
  Cycle:      3 Energy:     -7726.630391  Gnorm:      0.003371  CPU:   13.779
  Cycle:      4 Energy:     -7726.630875  Gnorm:      0.003496  CPU:   18.031
  Cycle:      5 Energy:     -7726.631500  Gnorm:      0.004641  CPU:   22.283
  Cycle:      6 Energy:     -7726.632300  Gnorm:      0.005933  CPU:   26.535
  Cycle:      7 Energy:     -7726.633344  Gnorm:      0.006850  CPU:   30.787
  Cycle:      8 Energy:     -7726.634715  Gnorm:      0.008363  CPU:   35.040
  Cycle:      9 Energy:     -7726.636491  Gnorm:      0.009968  CPU:   39.292
  Cycle:     10 Energy:     -7726.638838  Gnorm:      0.010954  CPU:   43.543
  ** Hessian calculated **
  Cycle:     11 Energy:     -7726.642291  Gnorm:      0.010786  CPU:   49.491
  Cycle:     12 Energy:     -7726.648040  Gnorm:      0.010500  CPU:   54.432
  Cycle:     13 Energy:     -7726.656690  Gnorm:      0.010050  CPU:   59.374
  Cycle:     14 Energy:     -7726.667076  Gnorm:      0.009472  CPU:   63.626
  Cycle:     15 Energy:     -7726.683369  Gnorm:      0.008468  CPU:   68.568
  Cycle:     16 Energy:     -7726.701678  Gnorm:      0.007138  CPU:   72.819
  Cycle:     17 Energy:     -7726.722082  Gnorm:      0.005208  CPU:   77.070
  Cycle:     18 Energy:     -7726.738041  Gnorm:      0.002789  CPU:   81.322
  Cycle:     19 Energy:     -7726.741792  Gnorm:      0.001494  CPU:   85.573
  Cycle:     20 Energy:     -7726.742703  Gnorm:      0.000792  CPU:   89.825
  ** Hessian calculated **
  Cycle:     21 Energy:     -7726.742707  Gnorm:      0.000582  CPU:   94.392
  Cycle:     22 Energy:     -7726.742710  Gnorm:      0.000497  CPU:   97.262
  Cycle:     23 Energy:     -7726.742714  Gnorm:      0.000425  CPU:  100.132
  Cycle:     24 Energy:     -7726.742717  Gnorm:      0.000352  CPU:  103.003
  Cycle:     25 Energy:     -7726.742720  Gnorm:      0.000278  CPU:  105.873
  Cycle:     26 Energy:     -7726.742722  Gnorm:      0.000237  CPU:  108.743
  Cycle:     27 Energy:     -7726.742724  Gnorm:      0.000191  CPU:  111.614
  Cycle:     28 Energy:     -7726.742726  Gnorm:      0.000179  CPU:  114.484
  Cycle:     29 Energy:     -7726.742727  Gnorm:      0.000173  CPU:  117.354
  Cycle:     30 Energy:     -7726.742728  Gnorm:      0.000170  CPU:  120.230
  ** Hessian calculated **
  Cycle:     31 Energy:     -7726.742729  Gnorm:      0.000170  CPU:  124.812
  Cycle:     32 Energy:     -7726.742730  Gnorm:      0.000169  CPU:  127.685
  Cycle:     33 Energy:     -7726.742731  Gnorm:      0.000169  CPU:  130.560
  Cycle:     34 Energy:     -7726.742733  Gnorm:      0.000168  CPU:  133.432
  Cycle:     35 Energy:     -7726.742736  Gnorm:      0.000168  CPU:  136.303
  Cycle:     36 Energy:     -7726.742741  Gnorm:      0.000166  CPU:  139.173
  Cycle:     37 Energy:     -7726.742747  Gnorm:      0.000164  CPU:  142.044
  Cycle:     38 Energy:     -7726.742757  Gnorm:      0.000161  CPU:  144.915
  Cycle:     39 Energy:     -7726.742771  Gnorm:      0.000156  CPU:  147.787
  Cycle:     40 Energy:     -7726.742841  Gnorm:      0.000131  CPU:  153.419
  ** Hessian calculated **
  Cycle:     41 Energy:     -7726.742916  Gnorm:      0.000096  CPU:  159.384
  Cycle:     42 Energy:     -7726.742981  Gnorm:      0.000049  CPU:  163.639
  Cycle:     43 Energy:     -7726.742994  Gnorm:      0.000034  CPU:  166.511


  **** Optimisation achieved ****


  Final energy =   -7726.74299997 eV
  Final Gnorm  =       0.00002402

  Components of energy : 

--------------------------------------------------------------------------------
  Interatomic potentials     =        2064.17746972 eV
  Three-body potentials      =           0.46746440 eV
  Monopole - monopole (real) =       -6612.40855575 eV
  Monopole - monopole (recip)=       -3172.51694384 eV
  Monopole - monopole (total)=       -9784.92549959 eV
  Neutralising energy        =          -6.46243450 eV
--------------------------------------------------------------------------------
  Total lattice energy       =       -7726.74299997 eV
--------------------------------------------------------------------------------
  Total lattice energy       =         -745512.5854 kJ/(mole unit cells)
--------------------------------------------------------------------------------

  Final fractional coordinates of atoms :

--------------------------------------------------------------------------------
   No.  Atomic        x           y          z          Radius
        Label       (Frac)      (Frac)     (Frac)       (Angs) 
--------------------------------------------------------------------------------
     1  Ge    c     0.699600    0.375700    0.033890    0.000000
     2  Si    c     0.603514    0.314508    0.365628    0.000000
     3  Si    c     0.673100    0.293565    0.697361    0.000000
     4  Si    c     0.283479    0.613920    0.531314    0.000000
     5  Si    c     0.360356    0.673034    0.860012    0.000000
     6  Si    c     0.304574    0.697243    0.198526    0.000000
     7  Si    c     0.359126    0.690539    0.299211    0.000000
     8  Si    c     0.303482    0.607762    0.962137    0.000000
     9  Si    c     0.288680    0.671304    0.632079    0.000000
    10  Si    c     0.626396    0.297261    0.798240    0.000000
    11  Si    c     0.661578    0.372819    0.466428    0.000000
    12  Si    c     0.666504    0.307861    0.132606    0.000000
    13  Si    c     0.519854    0.404687    0.963922    0.000000
    14  Si    c     0.565824    0.101562    0.302439    0.000000
    15  Si    c     0.880321    0.466287    0.632730    0.000000
    16  Si    c     0.452026    0.573852    0.465752    0.000000
    17  Si    c     0.413248    0.892795    0.798617    0.000000
    18  Si    c     0.096510    0.521632    0.130824    0.000000
    19  Si    c     0.397053    0.517316    0.363685    0.000000
    20  Si    c     0.092788    0.571752    0.027037    0.000000
    21  Si    c     0.461599    0.884995    0.697182    0.000000
    22  Si    c     0.578562    0.462031    0.860331    0.000000
    23  Si    c     0.875828    0.411990    0.530978    0.000000
    24  Si    c     0.509425    0.103392    0.200665    0.000000
    25  Ge    c     0.303839    0.405231    0.853212    0.000000
    26  Si    c     0.582760    0.898127    0.184416    0.000000
    27  Si    c     0.082759    0.691355    0.516514    0.000000
    28  Si    c     0.678102    0.589305    0.350163    0.000000
    29  Si    c     0.392155    0.094489    0.683119    0.000000
    30  Si    c     0.878824    0.283243    0.009226    0.000000
    31  Si    c     0.382076    0.294936    0.480222    0.000000
    32  Si    c     0.879217    0.589756    0.144785    0.000000
    33  Si    c     0.698347    0.094483    0.812960    0.000000
    34  Si    c     0.587083    0.688108    0.977546    0.000000
    35  Si    c     0.089293    0.393105    0.647251    0.000000
    36  Si    c     0.283797    0.891448    0.315586    0.000000
    37  Si    c     0.233661    0.323080    0.948779    0.000000
    38  Si    c     0.641827    0.901000    0.285435    0.000000
    39  Si    c     0.079564    0.744597    0.617467    0.000000
    40  Si    c     0.731991    0.651602    0.450983    0.000000
    41  Si    c     0.339251    0.095366    0.784067    0.000000
    42  Ge    c     0.885796    0.238232    0.114170    0.000000
    43  Si    c     0.321550    0.241036    0.379122    0.000000
    44  Si    c     0.894308    0.658342    0.042527    0.000000
    45  Si    c     0.743069    0.084903    0.711949    0.000000
    46  Si    c     0.647859    0.741397    0.875820    0.000000
    47  Si    c     0.076484    0.333680    0.545946    0.000000
    48  Si    c     0.230173    0.900973    0.214795    0.000000
    49  Si    c     0.959827    0.109699    0.963992    0.000000
    50  Si    c     0.857378    0.834829    0.299449    0.000000
    51  Si    c     0.141257    0.023810    0.632090    0.000000
    52  Si    c     0.013199    0.870395    0.466100    0.000000
    53  Si    c     0.118206    0.153924    0.799509    0.000000
    54  Si    c     0.828501    0.960076    0.133158    0.000000
    55  Si    c     0.104472    0.959911    0.365046    0.000000
    56  Si    c     0.833624    0.873480    0.031103    0.000000
    57  Si    c     0.022632    0.146031    0.697622    0.000000
    58  Si    c     0.874120    0.018901    0.862513    0.000000
    59  Si    c     0.136072    0.115146    0.531119    0.000000
    60  Si    c     0.948433    0.834897    0.198179    0.000000
    61  O2    c     0.909639    0.995852    0.999961    0.000000
    62  O2    c     0.982944    0.915259    0.331129    0.000000
    63  O2    c     0.062219    0.066276    0.664186    0.000000
    64  O2    c     0.055546    0.993333    0.498069    0.000000
    65  O2    c     0.994301    0.059132    0.830099    0.000000
    66  O2    c     0.903934    0.910504    0.164909    0.000000
    67  O2    c     0.320530    0.566604    0.330758    0.000000
    68  O2    c     0.412582    0.758563    0.665029    0.000000
    69  O2    c     0.219191    0.645139    0.995417    0.000000
    70  O2    c     0.667847    0.420763    0.831362    0.000000
    71  O2    c     0.555597    0.230192    0.170135    0.000000
    72  O2    c     0.747146    0.334704    0.498883    0.000000
    73  O3    c     0.565777    0.333319    0.996869    0.000000
    74  O2    c     0.755460    0.416441    0.664927    0.000000
    75  O2    c     0.642935    0.227829    0.334604    0.000000
    76  O2    c     0.404985    0.651203    0.498002    0.000000
    77  O2    c     0.222313    0.577074    0.163831    0.000000
    78  O2    c     0.332543    0.771872    0.831973    0.000000
    79  O2    c     0.112994    0.201086    0.973803    0.000000
    80  O2    c     0.768367    0.899720    0.305401    0.000000
    81  O2    c     0.079441    0.870288    0.637336    0.000000
    82  O2    c     0.858483    0.779017    0.471204    0.000000
    83  O2    c     0.217285    0.098610    0.805218    0.000000
    84  O3    c     0.895466    0.111474    0.138543    0.000000
    85  O2    c     0.194599    0.113290    0.359002    0.000000
    86  O2    c     0.909034    0.794226    0.027020    0.000000
    87  O2    c     0.867689    0.083776    0.691229    0.000000
    88  O2    c     0.774403    0.865943    0.856235    0.000000
    89  O2    c     0.073302    0.206137    0.525925    0.000000
    90  O2    c     0.103695    0.902145    0.194569    0.000000
    91  O2    c     0.904319    0.844283    0.248240    0.000000
    92  O2    c     0.125336    0.061544    0.581286    0.000000
    93  O2    c     0.925308    0.046895    0.914305    0.000000
    94  O2    c     0.062726    0.130927    0.747852    0.000000
    95  O2    c     0.835573    0.920055    0.081961    0.000000
    96  O2    c     0.050825    0.921839    0.415311    0.000000
    97  O2    c     0.891470    0.194731    0.970457    0.000000
    98  O2    c     0.775094    0.684518    0.311562    0.000000
    99  O2    c     0.294007    0.094375    0.644177    0.000000
   100  O2    c     0.083304    0.789289    0.478270    0.000000
   101  O3    c     0.188675    0.299812    0.811245    0.000000
   102  O2    c     0.676650    0.897132    0.145296    0.000000
   103  O2    c     0.187560    0.890943    0.354170    0.000000
   104  O2    c     0.682657    0.784140    0.016967    0.000000
   105  O2    c     0.092354    0.297378    0.685300    0.000000
   106  O2    c     0.795946    0.093291    0.851775    0.000000
   107  O2    c     0.287623    0.198026    0.518710    0.000000
   108  O2    c     0.883523    0.684892    0.184586    0.000000
   109  O2    c     0.302504    0.635646    0.248082    0.000000
   110  O2    c     0.344804    0.671944    0.581578    0.000000
   111  O2    c     0.304051    0.662916    0.911854    0.000000
   112  O2    c     0.679292    0.352979    0.747765    0.000000
   113  O3    c     0.604345    0.299203    0.083739    0.000000
   114  O2    c     0.662006    0.316414    0.416033    0.000000
   115  O2    c     0.361997    0.320282    0.965023    0.000000
   116  O2    c     0.653178    0.032728    0.304618    0.000000
   117  O2    c     0.947947    0.621829    0.635656    0.000000
   118  O2    c     0.609160    0.661544    0.468368    0.000000
   119  O2    c     0.327529    0.962170    0.801263    0.000000
   120  O3    c     0.031445    0.369695    0.131716    0.000000
   121  O2    c     0.309637    0.361349    0.360058    0.000000
   122  O2    c     0.023355    0.657782    0.025112    0.000000
   123  O2    c     0.618246    0.953162    0.693541    0.000000
   124  O2    c     0.657838    0.619073    0.859189    0.000000
   125  O2    c     0.943338    0.324043    0.527289    0.000000
   126  O2    c     0.352241    0.032541    0.196669    0.000000
   127  O3    c     0.747675    0.281816    0.000684    0.000000
   128  O2    c     0.677531    0.455673    0.342309    0.000000
   129  O2    c     0.528175    0.225595    0.674870    0.000000
   130  O2    c     0.215967    0.689553    0.508644    0.000000
   131  O3    c     0.285633    0.537367    0.835433    0.000000
   132  O2    c     0.446959    0.765748    0.175863    0.000000
   133  O2    c     0.283941    0.757891    0.321679    0.000000
   134  O2    c     0.450206    0.683674    0.982852    0.000000
   135  O2    c     0.223263    0.528792    0.654087    0.000000
   136  O2    c     0.702386    0.229599    0.820414    0.000000
   137  O2    c     0.517705    0.297464    0.487956    0.000000
   138  O2    c     0.743218    0.458016    0.150373    0.000000
   139  O3    c     0.766431    0.543690    0.021450    0.000000
   140  O2    c     0.446478    0.238946    0.359721    0.000000
   141  O2    c     0.746431    0.211608    0.692242    0.000000
   142  O2    c     0.202572    0.458105    0.526110    0.000000
   143  O2    c     0.518099    0.736868    0.857835    0.000000
   144  O2    c     0.225027    0.773779    0.194198    0.000000
   145  O2    c     0.515917    0.774594    0.304056    0.000000
   146  O2    c     0.236745    0.453806    0.966395    0.000000
   147  O2    c     0.206373    0.744568    0.636797    0.000000
   148  O2    c     0.470363    0.217076    0.803648    0.000000
   149  O2    c     0.733718    0.528173    0.471142    0.000000
   150  O3    c     0.756617    0.242485    0.136539    0.000000
   151  O3    c     0.201242    0.296884    0.896181    0.000000
   152  O2    c     0.658638    0.901641    0.230921    0.000000
   153  O2    c     0.079442    0.761926    0.562930    0.000000
   154  O2    c     0.750706    0.666088    0.396487    0.000000
   155  O2    c     0.321220    0.096080    0.729381    0.000000
   156  O3    c     0.880530    0.214281    0.056546    0.000000
   157  O2    c     0.305738    0.223844    0.433519    0.000000
   158  O2    c     0.889427    0.662594    0.097888    0.000000
   159  O2    c     0.765591    0.087198    0.766421    0.000000
   160  O2    c     0.657010    0.753992    0.930706    0.000000
   161  O2    c     0.081750    0.318678    0.600322    0.000000
   162  O2    c     0.212406    0.897797    0.269211    0.000000
   163  O2    c     0.566438    0.547897    0.983854    0.000000
   164  O2    c     0.425017    0.014920    0.325066    0.000000
   165  O2    c     0.965778    0.410315    0.655710    0.000000
   166  O2    c     0.396592    0.433822    0.488599    0.000000
   167  O2    c     0.556640    0.972280    0.821970    0.000000
   168  O2    c     0.997589    0.563223    0.151089    0.000000
   169  O2    c     0.538205    0.575497    0.340575    0.000000
   170  O2    c     0.002775    0.429256    0.006456    0.000000
   171  O2    c     0.402176    0.967373    0.674445    0.000000
   172  O3    c     0.442341    0.401799    0.834222    0.000000
   173  O2    c     0.956691    0.551851    0.507219    0.000000
   174  O2    c     0.569875    0.023988    0.176449    0.000000
   175  O2    c     0.563408    0.154194    0.251834    0.000000
   176  O2    c     0.824497    0.412300    0.581778    0.000000
   177  O2    c     0.571456    0.411949    0.912361    0.000000
   178  O2    c     0.410541    0.834649    0.748252    0.000000
   179  O2    c     0.139056    0.571011    0.079147    0.000000
   180  O2    c     0.396835    0.570766    0.414480    0.000000
   181  F     c     0.430805    0.892835    0.248406    0.000000
   182  F     c     0.085902    0.542858    0.580379    0.000000
   183  F     c     0.409916    0.511334    0.901712    0.000000
   184  F     c     0.546990    0.094841    0.747495    0.000000
   185  F     c     0.845699    0.423965    0.071306    0.000000
   186  F     c     0.529944    0.442503    0.413728    0.000000
   187  O2    s     0.906356    0.994338    0.999548    0.000000
   188  O2    s     0.982325    0.911145    0.331336    0.000000
   189  O2    s     0.066818    0.070253    0.664225    0.000000
   190  O2    s     0.059731    0.993066    0.498149    0.000000
   191  O2    s     0.993367    0.064308    0.830642    0.000000
   192  O2    s     0.900539    0.907456    0.165139    0.000000
   193  O2    s     0.332262    0.574447    0.330809    0.000000
   194  O2    s     0.404728    0.762442    0.664891    0.000000
   195  O2    s     0.214512    0.633692    0.995352    0.000000
   196  O2    s     0.654845    0.412442    0.830901    0.000000
   197  O2    s     0.562042    0.224881    0.169489    0.000000
   198  O2    s     0.751368    0.346631    0.498758    0.000000
   199  O3    s     0.570215    0.344235    0.995878    0.000000
   200  O2    s     0.760047    0.409011    0.664906    0.000000
   201  O2    s     0.630882    0.223434    0.334397    0.000000
   202  O2    s     0.397573    0.639349    0.498022    0.000000
   203  O2    s     0.217249    0.583433    0.163860    0.000000
   204  O2    s     0.343820    0.773839    0.831527    0.000000
   205  O2    s     0.108592    0.203405    0.970352    0.000000
   206  O2    s     0.764607    0.892999    0.302716    0.000000
   207  O2    s     0.085941    0.873376    0.634748    0.000000
   208  O2    s     0.861771    0.775479    0.468584    0.000000
   209  O2    s     0.220468    0.103798    0.802391    0.000000
   210  O3    s     0.887833    0.105619    0.136143    0.000000
   211  O2    s     0.198093    0.110163    0.361683    0.000000
   212  O2    s     0.899553    0.788621    0.029040    0.000000
   213  O2    s     0.871071    0.090459    0.694024    0.000000
   214  O2    s     0.771318    0.868618    0.858942    0.000000
   215  O2    s     0.080263    0.209552    0.528493    0.000000
   216  O2    s     0.100149    0.894817    0.197028    0.000000
   217  O2    s     0.904095    0.842158    0.248277    0.000000
   218  O2    s     0.128336    0.063445    0.581230    0.000000
   219  O2    s     0.923573    0.050909    0.914249    0.000000
   220  O2    s     0.063919    0.135104    0.747465    0.000000
   221  O2    s     0.834557    0.919246    0.081924    0.000000
   222  O2    s     0.052743    0.920430    0.415250    0.000000
   223  O2    s     0.897464    0.194918    0.973788    0.000000
   224  O2    s     0.774068    0.690972    0.314184    0.000000
   225  O2    s     0.287654    0.086845    0.646835    0.000000
   226  O2    s     0.075788    0.788041    0.480832    0.000000
   227  O3    s     0.188345    0.290298    0.812690    0.000000
   228  O2    s     0.682707    0.903772    0.148079    0.000000
   229  O2    s     0.188749    0.898234    0.351334    0.000000
   230  O2    s     0.688599    0.783502    0.014319    0.000000
   231  O2    s     0.084849    0.291664    0.682626    0.000000
   232  O2    s     0.794243    0.085583    0.848957    0.000000
   233  O2    s     0.281316    0.199274    0.516037    0.000000
   234  O2    s     0.889981    0.690857    0.181860    0.000000
   235  O2    s     0.308416    0.647469    0.248176    0.000000
   236  O2    s     0.332876    0.665948    0.581534    0.000000
   237  O2    s     0.309304    0.658061    0.912218    0.000000
   238  O2    s     0.673215    0.341124    0.747774    0.000000
   239  O3    s     0.616947    0.305008    0.085575    0.000000
   240  O2    s     0.655868    0.322026    0.415951    0.000000
   241  O2    s     0.364250    0.329109    0.963155    0.000000
   242  O2    s     0.643060    0.026055    0.302388    0.000000
   243  O2    s     0.954786    0.618711    0.633438    0.000000
   244  O2    s     0.605910    0.651454    0.466249    0.000000
   245  O2    s     0.337847    0.968773    0.799163    0.000000
   246  O3    s     0.026559    0.374822    0.130231    0.000000
   247  O2    s     0.319780    0.364851    0.362399    0.000000
   248  O2    s     0.017623    0.648907    0.027067    0.000000
   249  O2    s     0.615201    0.959980    0.695861    0.000000
   250  O2    s     0.648868    0.616540    0.861096    0.000000
   251  O2    s     0.950301    0.334099    0.529620    0.000000
   252  O2    s     0.355476    0.025863    0.199009    0.000000
   253  O3    s     0.758616    0.288242    0.003895    0.000000
   254  O2    s     0.670014    0.455181    0.345539    0.000000
   255  O2    s     0.528729    0.218735    0.678084    0.000000
   256  O2    s     0.208877    0.682019    0.511815    0.000000
   257  O3    s     0.294747    0.542599    0.839270    0.000000
   258  O2    s     0.446514    0.772643    0.179165    0.000000
   259  O2    s     0.291627    0.765015    0.318700    0.000000
   260  O2    s     0.449451    0.676344    0.980157    0.000000
   261  O2    s     0.215974    0.529234    0.651075    0.000000
   262  O2    s     0.694162    0.222281    0.817313    0.000000
   263  O2    s     0.518234    0.305011    0.484868    0.000000
   264  O2    s     0.750351    0.457600    0.148009    0.000000
   265  O3    s     0.775979    0.545003    0.024538    0.000000
   266  O2    s     0.449330    0.247076    0.362373    0.000000
   267  O2    s     0.738301    0.206482    0.694866    0.000000
   268  O2    s     0.197259    0.460793    0.528749    0.000000
   269  O2    s     0.516771    0.730918    0.860018    0.000000
   270  O2    s     0.233817    0.779434    0.196808    0.000000
   271  O2    s     0.513141    0.779607    0.301546    0.000000
   272  O2    s     0.243623    0.457319    0.964209    0.000000
   273  O2    s     0.201003    0.736839    0.634218    0.000000
   274  O2    s     0.472602    0.212169    0.800984    0.000000
   275  O2    s     0.725883    0.525357    0.468481    0.000000
   276  O3    s     0.759428    0.248312    0.134235    0.000000
   277  O3    s     0.211403    0.306776    0.898873    0.000000
   278  O2    s     0.648903    0.901221    0.231789    0.000000
   279  O2    s     0.079796    0.752660    0.563792    0.000000
   280  O2    s     0.741103    0.656490    0.397349    0.000000
   281  O2    s     0.330602    0.095837    0.730211    0.000000
   282  O3    s     0.880757    0.222589    0.057061    0.000000
   283  O2    s     0.315394    0.233110    0.432592    0.000000
   284  O2    s     0.888813    0.654276    0.097386    0.000000
   285  O2    s     0.756172    0.087710    0.765566    0.000000
   286  O2    s     0.648584    0.745648    0.929994    0.000000
   287  O2    s     0.081981    0.328063    0.599399    0.000000
   288  O2    s     0.221744    0.897474    0.268246    0.000000
   289  O2    s     0.563899    0.549396    0.981093    0.000000
   290  O2    s     0.424564    0.010500    0.321653    0.000000
   291  O2    s     0.970357    0.414499    0.652383    0.000000
   292  O2    s     0.401014    0.433483    0.485283    0.000000
   293  O2    s     0.556918    0.977242    0.818568    0.000000
   294  O2    s     0.995041    0.561626    0.148258    0.000000
   295  O2    s     0.538505    0.570746    0.344014    0.000000
   296  O2    s     0.999978    0.430126    0.008983    0.000000
   297  O2    s     0.407465    0.972529    0.677751    0.000000
   298  O3    s     0.446184    0.408388    0.838251    0.000000
   299  O2    s     0.962023    0.552358    0.510665    0.000000
   300  O2    s     0.564901    0.018633    0.179776    0.000000
   301  O2    s     0.557947    0.143296    0.251716    0.000000
   302  O2    s     0.835713    0.417887    0.581725    0.000000
   303  O2    s     0.566882    0.416272    0.912360    0.000000
   304  O2    s     0.416105    0.845798    0.748147    0.000000
   305  O2    s     0.129906    0.566045    0.079087    0.000000
   306  O2    s     0.402508    0.565514    0.414452    0.000000
   307  F     s     0.430359    0.892226    0.248204    0.000000
   308  F     s     0.086346    0.543106    0.580218    0.000000
   309  F     s     0.402668    0.504498    0.898614    0.000000
   310  F     s     0.547382    0.095176    0.747459    0.000000
   311  F     s     0.835494    0.419998    0.068889    0.000000
   312  F     s     0.530144    0.442288    0.413558    0.000000
--------------------------------------------------------------------------------

  Final Cartesian lattice vectors (Angstroms) :

       11.939565   -0.003088   -0.022638
       -6.060944   10.411594    0.004638
       -0.323568   -0.273871   29.389268


  Final cell parameters and derivatives :

--------------------------------------------------------------------------------
       a           11.939587 Angstrom     dE/de1(xx)    -0.001109 eV/strain
       b           12.047255 Angstrom     dE/de2(yy)    -0.001915 eV/strain
       c           29.392325 Angstrom     dE/de3(zz)     0.001483 eV/strain
       alpha       90.122006 Degrees      dE/de4(yz)     0.000460 eV/strain
       beta        90.739250 Degrees      dE/de5(xz)     0.000524 eV/strain
       gamma      120.219948 Degrees      dE/de6(xy)     0.000279 eV/strain
--------------------------------------------------------------------------------

  Primitive cell volume =          3652.728322 Angs**3

  Density of cell =      1.751593 g/cm**3

  Non-primitive cell volume =          3652.728322 Angs**3


  Final internal derivatives :

--------------------------------------------------------------------------------
   No.  Atomic          a             b             c           Radius
        Label          (eV)          (eV)          (eV)        (eV/Angs)
--------------------------------------------------------------------------------
      1 Ge    c       0.000000      0.000000      0.000000      0.000000
      2 Si    c      -0.000110     -0.000587      0.000926      0.000000
      3 Si    c      -0.000618     -0.000694      0.000641      0.000000
      4 Si    c       0.000508     -0.000069      0.001020      0.000000
      5 Si    c       0.000744      0.000478      0.000943      0.000000
      6 Si    c       0.000664      0.000384      0.001007      0.000000
      7 Si    c       0.000182     -0.000344      0.000378      0.000000
      8 Si    c       0.000622      0.000111     -0.000160      0.000000
      9 Si    c      -0.000434     -0.000270     -0.000690      0.000000
     10 Si    c      -0.000464     -0.000136     -0.000730      0.000000
     11 Si    c       0.000566     -0.000155     -0.000403      0.000000
     12 Si    c       0.001069      0.000584     -0.004043      0.000000
     13 Si    c       0.000172     -0.000114     -0.002438      0.000000
     14 Si    c       0.000010      0.000488     -0.001676      0.000000
     15 Si    c       0.000273      0.000165      0.000393      0.000000
     16 Si    c       0.000524      0.000185     -0.000665      0.000000
     17 Si    c      -0.000132     -0.000958     -0.002182      0.000000
     18 Si    c       0.001090     -0.000057      0.000879      0.000000
     19 Si    c       0.000407     -0.000061      0.001444      0.000000
     20 Si    c       0.001293      0.000253      0.002808      0.000000
     21 Si    c       0.000068     -0.000070     -0.001423      0.000000
     22 Si    c       0.000141      0.000315     -0.000333      0.000000
     23 Si    c      -0.000506     -0.000075      0.001718      0.000000
     24 Si    c       0.000080     -0.000097     -0.000819      0.000000
     25 Ge    c      -0.000199      0.000363      0.000858      0.000000
     26 Si    c       0.000070     -0.000122      0.001933      0.000000
     27 Si    c       0.000186      0.000254     -0.000416      0.000000
     28 Si    c       0.000458      0.000331      0.000917      0.000000
     29 Si    c      -0.000175      0.000141      0.000882      0.000000
     30 Si    c       0.000571      0.000698      0.000348      0.000000
     31 Si    c       0.000055     -0.000159     -0.000398      0.000000
     32 Si    c       0.000369      0.000608     -0.000269      0.000000
     33 Si    c      -0.000262     -0.000377      0.000374      0.000000
     34 Si    c       0.000303      0.000007      0.000642      0.000000
     35 Si    c       0.000182     -0.000022     -0.001968      0.000000
     36 Si    c      -0.000036     -0.000286     -0.000802      0.000000
     37 Si    c      -0.000055      0.000484     -0.000224      0.000000
     38 Si    c       0.000240      0.000100      0.000527      0.000000
     39 Si    c      -0.000254     -0.000089     -0.002082      0.000000
     40 Si    c      -0.000005     -0.000146     -0.001140      0.000000
     41 Si    c      -0.000745     -0.000496     -0.000336      0.000000
     42 Ge    c       0.000691     -0.000036     -0.001933      0.000000
     43 Si    c       0.000312      0.000056      0.002072      0.000000
     44 Si    c       0.000678      0.000189      0.001463      0.000000
     45 Si    c      -0.000538     -0.000446      0.001830      0.000000
     46 Si    c       0.000088      0.000368      0.001921      0.000000
     47 Si    c       0.000245     -0.000143      0.000119      0.000000
     48 Si    c       0.000506      0.000163      0.001041      0.000000
     49 Si    c       0.000017      0.000591     -0.000985      0.000000
     50 Si    c       0.000459      0.000212     -0.000314      0.000000
     51 Si    c      -0.000036      0.000039      0.001046      0.000000
     52 Si    c      -0.000313      0.000104      0.000253      0.000000
     53 Si    c       0.000082      0.000878     -0.001294      0.000000
     54 Si    c       0.000085     -0.000156     -0.001391      0.000000
     55 Si    c       0.000150      0.000350     -0.000086      0.000000
     56 Si    c       0.000112      0.000409      0.000046      0.000000
     57 Si    c      -0.000347      0.000050      0.001444      0.000000
     58 Si    c      -0.000488      0.000294      0.000342      0.000000
     59 Si    c      -0.000076     -0.000152      0.001474      0.000000
     60 Si    c       0.000536      0.000499     -0.000708      0.000000
     61 O2    c       0.000070     -0.000103     -0.000388      0.000000
     62 O2    c       0.000113      0.000562      0.000392      0.000000
     63 O2    c      -0.000057      0.000368      0.000406      0.000000
     64 O2    c      -0.000224      0.000131      0.000404      0.000000
     65 O2    c       0.000011      0.000396      0.000152      0.000000
     66 O2    c       0.000599     -0.000215      0.000447      0.000000
     67 O2    c       0.000707     -0.000101      0.000788      0.000000
     68 O2    c      -0.000613     -0.000144      0.000252      0.000000
     69 O2    c       0.001458      0.000228      0.001077      0.000000
     70 O2    c      -0.000051     -0.000410     -0.000950      0.000000
     71 O2    c       0.001019      0.000013      0.001857      0.000000
     72 O2    c      -0.000062      0.000347     -0.000018      0.000000
     73 O3    c       0.000762     -0.000698     -0.000164      0.000000
     74 O2    c       0.000085     -0.000352     -0.000990      0.000000
     75 O2    c      -0.000290      0.000215     -0.000198      0.000000
     76 O2    c       0.000243     -0.000487      0.000326      0.000000
     77 O2    c       0.000729      0.000030      0.000391      0.000000
     78 O2    c       0.000359     -0.000566      0.000217      0.000000
     79 O2    c       0.000152      0.000347      0.000838      0.000000
     80 O2    c       0.000072      0.000267     -0.000126      0.000000
     81 O2    c       0.000093     -0.000731      0.000497      0.000000
     82 O2    c      -0.000151     -0.000243      0.000806      0.000000
     83 O2    c      -0.000778     -0.000211      0.000098      0.000000
     84 O3    c       0.000489      0.000123      0.000847      0.000000
     85 O2    c       0.000392      0.000293     -0.000077      0.000000
     86 O2    c       0.000876     -0.000038     -0.001455      0.000000
     87 O2    c      -0.000270     -0.000047     -0.000188      0.000000
     88 O2    c       0.000136      0.000257     -0.000355      0.000000
     89 O2    c       0.000289      0.000310     -0.000398      0.000000
     90 O2    c       0.000888     -0.000035     -0.000866      0.000000
     91 O2    c       0.000390      0.000371      0.000329      0.000000
     92 O2    c      -0.000215      0.000269     -0.000170      0.000000
     93 O2    c      -0.000040      0.000421     -0.000719      0.000000
     94 O2    c      -0.000054     -0.000012      0.000595      0.000000
     95 O2    c       0.000283     -0.000304     -0.000305      0.000000
     96 O2    c      -0.000059      0.000041      0.000068      0.000000
     97 O2    c       0.001668      0.000535     -0.000010      0.000000
     98 O2    c       0.000139      0.000340      0.000166      0.000000
     99 O2    c       0.000476     -0.000419      0.000179      0.000000
    100 O2    c       0.000245     -0.000341     -0.000068      0.000000
    101 O3    c       0.000686      0.000803      0.000741      0.000000
    102 O2    c      -0.000142      0.000513      0.000690      0.000000
    103 O2    c      -0.000064     -0.000340     -0.000392      0.000000
    104 O2    c       0.000413     -0.000483      0.000261      0.000000
    105 O2    c      -0.000598      0.000496     -0.000517      0.000000
    106 O2    c      -0.000514     -0.000046     -0.000327      0.000000
    107 O2    c      -0.000150      0.000124     -0.000116      0.000000
    108 O2    c       0.000566      0.000079      0.001038      0.000000
    109 O2    c       0.000128      0.000131      0.001136      0.000000
    110 O2    c      -0.000034      0.000001     -0.000580      0.000000
    111 O2    c       0.000769     -0.000084      0.001099      0.000000
    112 O2    c      -0.000117     -0.000578     -0.000422      0.000000
    113 O3    c       0.002861      0.000955      0.004485      0.000000
    114 O2    c      -0.000048     -0.000043     -0.000175      0.000000
    115 O2    c       0.000199      0.000139      0.000538      0.000000
    116 O2    c       0.000029     -0.000436      0.000640      0.000000
    117 O2    c      -0.000158      0.000196     -0.000288      0.000000
    118 O2    c       0.000280     -0.000147      0.001107      0.000000
    119 O2    c      -0.000529     -0.000346      0.000351      0.000000
    120 O3    c       0.000507      0.000347     -0.000969      0.000000
    121 O2    c       0.000195      0.000443     -0.000197      0.000000
    122 O2    c       0.001190      0.001078     -0.000078      0.000000
    123 O2    c      -0.000186     -0.000071      0.000203      0.000000
    124 O2    c       0.000237      0.000126      0.000025      0.000000
    125 O2    c       0.000323     -0.000132     -0.000716      0.000000
    126 O2    c       0.000368     -0.000032     -0.000133      0.000000
    127 O3    c       0.003098      0.001673      0.001940      0.000000
    128 O2    c       0.000107     -0.000004      0.000169      0.000000
    129 O2    c      -0.000122     -0.000351     -0.000232      0.000000
    130 O2    c       0.000060     -0.000069     -0.000128      0.000000
    131 O3    c       0.000761      0.000785      0.001541      0.000000
    132 O2    c       0.000456      0.000326     -0.000143      0.000000
    133 O2    c       0.000152      0.000181      0.000267      0.000000
    134 O2    c       0.000705     -0.000340      0.000010      0.000000
    135 O2    c      -0.000293     -0.000303      0.000502      0.000000
    136 O2    c      -0.000735     -0.000463     -0.000377      0.000000
    137 O2    c       0.000090      0.000222      0.000154      0.000000
    138 O2    c       0.000854      0.000276      0.002245      0.000000
    139 O3    c       0.000794      0.001285     -0.001023      0.000000
    140 O2    c       0.000659     -0.000083     -0.000847      0.000000
    141 O2    c      -0.000393     -0.000190     -0.000210      0.000000
    142 O2    c       0.000193      0.000022     -0.000326      0.000000
    143 O2    c       0.000599      0.000215     -0.000122      0.000000
    144 O2    c       0.000317      0.000180     -0.000772      0.000000
    145 O2    c       0.000053      0.000107      0.000485      0.000000
    146 O2    c       0.000577      0.000046      0.000522      0.000000
    147 O2    c      -0.000176      0.000418      0.000776      0.000000
    148 O2    c      -0.000409     -0.000353     -0.000281      0.000000
    149 O2    c       0.000049     -0.000575      0.000684      0.000000
    150 O3    c       0.000345     -0.000817      0.000854      0.000000
    151 O3    c       0.000364      0.000358      0.001198      0.000000
    152 O2    c       0.000003      0.000320     -0.000557      0.000000
    153 O2    c      -0.000174      0.000137      0.000631      0.000000
    154 O2    c       0.000038     -0.000011      0.000403      0.000000
    155 O2    c      -0.000172     -0.000376     -0.001313      0.000000
    156 O3    c       0.001043      0.001022      0.000530      0.000000
    157 O2    c       0.000186      0.000241      0.000167      0.000000
    158 O2    c       0.001260      0.000475      0.001136      0.000000
    159 O2    c      -0.000251     -0.000340     -0.000231      0.000000
    160 O2    c       0.000259     -0.000016     -0.000159      0.000000
    161 O2    c      -0.000252     -0.000137      0.000601      0.000000
    162 O2    c       0.000263     -0.000121     -0.000495      0.000000
    163 O2    c       0.000275     -0.000071     -0.001151      0.000000
    164 O2    c      -0.000111     -0.000146     -0.000095      0.000000
    165 O2    c      -0.000615     -0.000539     -0.000188      0.000000
    166 O2    c       0.000123     -0.000323     -0.000139      0.000000
    167 O2    c      -0.000444     -0.000365     -0.000134      0.000000
    168 O2    c       0.001528      0.000699     -0.000471      0.000000
    169 O2    c       0.000627      0.000264      0.000220      0.000000
    170 O2    c       0.001249      0.000472      0.000763      0.000000
    171 O2    c      -0.000437     -0.000304      0.000210      0.000000
    172 O3    c       0.000258      0.000071      0.000361      0.000000
    173 O2    c      -0.000044      0.000137      0.000084      0.000000
    174 O2    c       0.000632     -0.000076      0.000098      0.000000
    175 O2    c      -0.000011     -0.000022     -0.000346      0.000000
    176 O2    c      -0.000116      0.000016      0.000168      0.000000
    177 O2    c      -0.000081      0.000071     -0.000301      0.000000
    178 O2    c      -0.000282     -0.000165     -0.000235      0.000000
    179 O2    c       0.000648      0.000350      0.000847      0.000000
    180 O2    c       0.000387      0.000028      0.000258      0.000000
    181 F     c       0.000099      0.000242      0.000192      0.000000
    182 F     c      -0.000174     -0.000111      0.000180      0.000000
    183 F     c       0.000118     -0.000009      0.000057      0.000000
    184 F     c      -0.000324     -0.000363      0.000189      0.000000
    185 F     c      -0.000089     -0.000847      0.000412      0.000000
    186 F     c      -0.000019      0.000060      0.000163      0.000000
    187 O2    s       0.000188     -0.000804     -0.000300      0.000000
    188 O2    s       0.000168      0.000869     -0.000180      0.000000
    189 O2    s       0.000218     -0.000025      0.000662      0.000000
    190 O2    s      -0.000328     -0.000206      0.000570      0.000000
    191 O2    s      -0.000021      0.000216      0.000477      0.000000
    192 O2    s       0.000175      0.000494      0.000110      0.000000
    193 O2    s       0.000926      0.000056      0.000493      0.000000
    194 O2    s      -0.000236      0.000555      0.000414      0.000000
    195 O2    s       0.001875      0.000989      0.000181      0.000000
    196 O2    s      -0.000354     -0.000118     -0.001345      0.000000
    197 O2    s       0.000425     -0.000609      0.003009      0.000000
    198 O2    s      -0.000610      0.000121     -0.001001      0.000000
    199 O3    s      -0.000842     -0.000535     -0.000115      0.000000
    200 O2    s       0.000293     -0.000186     -0.001413      0.000000
    201 O2    s      -0.000329      0.000713      0.000586      0.000000
    202 O2    s       0.000211     -0.000109      0.000394      0.000000
    203 O2    s       0.000091      0.000070      0.000761      0.000000
    204 O2    s       0.000161     -0.000746      0.001106      0.000000
    205 O2    s       0.001157     -0.000406      0.000104      0.000000
    206 O2    s      -0.000144      0.000140     -0.001074      0.000000
    207 O2    s       0.000127     -0.000216      0.000125      0.000000
    208 O2    s       0.000478     -0.000472      0.000332      0.000000
    209 O2    s      -0.000202     -0.000230     -0.000535      0.000000
    210 O3    s       0.001352     -0.000130      0.000988      0.000000
    211 O2    s       0.000370     -0.000175      0.000555      0.000000
    212 O2    s       0.000987     -0.000272     -0.000664      0.000000
    213 O2    s      -0.000217     -0.000102      0.000816      0.000000
    214 O2    s       0.000537      0.000143      0.000390      0.000000
    215 O2    s       0.000203      0.000616      0.000185      0.000000
    216 O2    s       0.000818     -0.000047      0.000305      0.000000
    217 O2    s       0.000714      0.000667      0.000948      0.000000
    218 O2    s      -0.000077      0.000333     -0.001375      0.000000
    219 O2    s       0.000630     -0.000045     -0.000356      0.000000
    220 O2    s      -0.000010      0.000242      0.000718      0.000000
    221 O2    s       0.000723     -0.000430     -0.000161      0.000000
    222 O2    s       0.000106     -0.000204      0.000149      0.000000
    223 O2    s       0.000586      0.001447     -0.000292      0.000000
    224 O2    s       0.000867      0.000696      0.000391      0.000000
    225 O2    s       0.000358     -0.000381      0.000418      0.000000
    226 O2    s       0.000416     -0.000488      0.000388      0.000000
    227 O3    s       0.000715     -0.000242     -0.001312      0.000000
    228 O2    s       0.000418     -0.000071      0.000979      0.000000
    229 O2    s      -0.000112     -0.000412     -0.001012      0.000000
    230 O2    s       0.000861     -0.000524      0.000783      0.000000
    231 O2    s      -0.000755      0.000443     -0.000455      0.000000
    232 O2    s      -0.000612      0.000138     -0.000069      0.000000
    233 O2    s      -0.000155     -0.000406     -0.000156      0.000000
    234 O2    s       0.001725     -0.000559      0.001509      0.000000
    235 O2    s       0.000316      0.000146      0.000539      0.000000
    236 O2    s      -0.000310      0.000114     -0.000458      0.000000
    237 O2    s       0.000393      0.000935      0.001383      0.000000
    238 O2    s      -0.000917     -0.000594     -0.000325      0.000000
    239 O3    s       0.000128      0.000410      0.005239      0.000000
    240 O2    s       0.000067     -0.000247      0.000294      0.000000
    241 O2    s       0.000315     -0.000051     -0.000296      0.000000
    242 O2    s       0.000230     -0.000342      0.000267      0.000000
    243 O2    s       0.000047     -0.000279     -0.001465      0.000000
    244 O2    s      -0.000160     -0.000373      0.000704      0.000000
    245 O2    s      -0.000832     -0.000233     -0.000401      0.000000
    246 O3    s       0.001134      0.001081      0.000029      0.000000
    247 O2    s       0.000816      0.000905      0.000468      0.000000
    248 O2    s       0.001393      0.000653      0.000770      0.000000
    249 O2    s      -0.000498     -0.000219      0.000678      0.000000
    250 O2    s       0.000310     -0.000634      0.000581      0.000000
    251 O2    s       0.000261     -0.000127     -0.000265      0.000000
    252 O2    s       0.000246     -0.000031      0.001171      0.000000
    253 O3    s       0.003898      0.000297     -0.001271      0.000000
    254 O2    s       0.000806      0.000535      0.000882      0.000000
    255 O2    s      -0.000476     -0.000562      0.000700      0.000000
    256 O2    s      -0.000104      0.000071      0.000330      0.000000
    257 O3    s       0.000317      0.000416      0.001542      0.000000
    258 O2    s       0.000766      0.000258      0.002222      0.000000
    259 O2    s      -0.000047      0.000291      0.000206      0.000000
    260 O2    s       0.001428      0.000099      0.000346      0.000000
    261 O2    s      -0.000818     -0.000209     -0.001084      0.000000
    262 O2    s      -0.000923     -0.000707     -0.000765      0.000000
    263 O2    s      -0.000549     -0.000502     -0.000359      0.000000
    264 O2    s       0.001948      0.000626      0.002053      0.000000
    265 O3    s       0.000003      0.002306     -0.000668      0.000000
    266 O2    s       0.000701     -0.000092      0.000092      0.000000
    267 O2    s      -0.000800     -0.000371      0.000323      0.000000
    268 O2    s       0.000050      0.000482      0.000712      0.000000
    269 O2    s       0.000356      0.000432      0.000607      0.000000
    270 O2    s       0.000593      0.000037      0.000154      0.000000
    271 O2    s       0.000108     -0.000135     -0.000186      0.000000
    272 O2    s       0.000770      0.000139      0.000616      0.000000
    273 O2    s       0.000025     -0.000156     -0.000383      0.000000
    274 O2    s      -0.000168     -0.000058     -0.001042      0.000000
    275 O2    s       0.000337     -0.000743     -0.000505      0.000000
    276 O3    s       0.000888     -0.000285     -0.000340      0.000000
    277 O3    s       0.001387     -0.000344      0.000427      0.000000
    278 O2    s      -0.000170      0.000024     -0.001447      0.000000
    279 O2    s       0.000177      0.000131      0.001403      0.000000
    280 O2    s       0.000793     -0.000287      0.000849      0.000000
    281 O2    s      -0.000001     -0.000656     -0.002182      0.000000
    282 O3    s       0.001519      0.001324      0.002150      0.000000
    283 O2    s       0.000456     -0.000213     -0.001066      0.000000
    284 O2    s       0.001638      0.000756      0.001681      0.000000
    285 O2    s      -0.000527     -0.000589     -0.001009      0.000000
    286 O2    s       0.001052     -0.000020     -0.000668      0.000000
    287 O2    s      -0.000403      0.000558      0.001380      0.000000
    288 O2    s      -0.000041      0.000049     -0.000891      0.000000
    289 O2    s       0.000910     -0.000090     -0.001712      0.000000
    290 O2    s      -0.000305     -0.000016     -0.000662      0.000000
    291 O2    s      -0.000421     -0.000006     -0.001813      0.000000
    292 O2    s       0.000187     -0.000427     -0.000692      0.000000
    293 O2    s      -0.000411      0.000164     -0.000520      0.000000
    294 O2    s       0.001220      0.000494     -0.000226      0.000000
    295 O2    s       0.000597      0.000546      0.000709      0.000000
    296 O2    s       0.001755      0.000943      0.001413      0.000000
    297 O2    s      -0.000083     -0.000236      0.000775      0.000000
    298 O3    s       0.000418     -0.000419      0.000719      0.000000
    299 O2    s       0.000085      0.000066      0.000719      0.000000
    300 O2    s       0.000062      0.000114      0.002150      0.000000
    301 O2    s       0.000385     -0.000173      0.001460      0.000000
    302 O2    s      -0.000222     -0.000126     -0.001472      0.000000
    303 O2    s      -0.000412     -0.000243      0.000573      0.000000
    304 O2    s      -0.000894     -0.000161      0.001243      0.000000
    305 O2    s       0.000510      0.001536     -0.000592      0.000000
    306 O2    s       0.000532      0.000382     -0.000089      0.000000
    307 F     s       0.000148      0.000019      0.000015      0.000000
    308 F     s      -0.000094     -0.000014      0.000212      0.000000
    309 F     s       0.000495     -0.000502      0.000422      0.000000
    310 F     s      -0.000465     -0.000296      0.000178      0.000000
    311 F     s       0.000338     -0.000370      0.000941      0.000000
    312 F     s       0.000121     -0.000085     -0.000038      0.000000
--------------------------------------------------------------------------------
  Maximum abs         0.003898      0.002306      0.005239      0.000000
--------------------------------------------------------------------------------


  Time to end of optimisation =     169.3910 seconds


  Peak dynamic memory used =      19.13 MB 


  Timing analysis for GULP :

--------------------------------------------------------------------------------
  Task / Subroutine                                          Time (Seconds)
--------------------------------------------------------------------------------
  Calculation of reciprocal space energy and derivatives          4.1216
  Calculation of real space energy and derivatives              148.3672
  Calculation of three-body energy and derivatives               14.8020
  Calculation of matrix inversion                                 1.8625
  Global summation overhead                                       0.0002
--------------------------------------------------------------------------------
  Total CPU time                                                169.3911
--------------------------------------------------------------------------------


  Dump file written as out.res                                                 
  CIF file written as out.cif                                                 


  Job Finished at 17:46.18  4th November   2016                               

