********************************************************************************
*                       GENERAL UTILITY LATTICE PROGRAM                        *
*                                 Julian Gale                                  *
*                      Nanochemistry Research Institute                        *
*                           Department of Chemistry                            *
*                    Curtin University, Western Australia                      *
********************************************************************************
* Version = 4.2.0 * Last modified =  20th January 2014                         *
********************************************************************************
*  optimise     - perform optimisation run                                     *
*  conp         - constant pressure calculation                                *
*  qok          - running with non charge neutral cell is OK                   *
********************************************************************************

  Job Started  at 04:28.25  5th November   2016                               

  Number of CPUs =     1


  Total number of configurations input =   1

********************************************************************************
*  Input for Configuration =   1                                               *
********************************************************************************

  Formula = Ge3Si57O120F6                                               

  Number of irreducible atoms/shells =     312


  Total number atoms/shells =     312

  Dimensionality = 3               :  Bulk   


  Charge on solid   =  -6.000000 =>neutralising background added


  Cartesian lattice vectors (Angstroms) :

       11.960859    0.000000    0.000000
       -6.065081   10.363840    0.000000
        0.010916   -0.486630   29.438510

  Cell parameters (Angstroms/Degrees):

  a =      11.9609    alpha =  90.8281
  b =      12.0081    beta  =  89.9788
  c =      29.4425    gamma = 120.3368

  Initial cell volume =        3649.210363 Angs**3

  Temperature of configuration =  0.000     K 

  Pressure of configuration =         0.000 GPa 

  Fractional coordinates of asymmetric unit :

--------------------------------------------------------------------------------
   No.  Atomic       x           y          z         Charge      Occupancy
        Label      (Frac)      (Frac)     (Frac)        (e)         (Frac)  
--------------------------------------------------------------------------------
      1 Ge    c    0.699600    0.375700    0.033890     4.00000    1.000000    
      2 Si    c    0.628745 *  0.321454 *  0.366073 *   4.00000    1.000000    
      3 Si    c    0.675771 *  0.294361 *  0.700370 *   4.00000    1.000000    
      4 Si    c    0.283447 *  0.611944 *  0.531203 *   4.00000    1.000000    
      5 Si    c    0.374005 *  0.672573 *  0.863375 *   4.00000    1.000000    
      6 Si    c    0.313825 *  0.689802 *  0.193667 *   4.00000    1.000000    
      7 Si    c    0.380302 *  0.692306 *  0.295441 *   4.00000    1.000000    
      8 Si    c    0.316583 *  0.620333 *  0.963375 *   4.00000    1.000000    
      9 Si    c    0.295007 *  0.673468 *  0.631619 *   4.00000    1.000000    
     10 Si    c    0.620700 *  0.294214 *  0.800885 *   4.00000    1.000000    
     11 Si    c    0.679678 *  0.375759 *  0.469181 *   4.00000    1.000000    
     12 Si    c    0.676408 *  0.320696 *  0.132432 *   4.00000    1.000000    
     13 Si    c    0.527633 *  0.418270 *  0.967526 *   4.00000    1.000000    
     14 Si    c    0.589527 *  0.107654 *  0.300711 *   4.00000    1.000000    
     15 Si    c    0.885181 *  0.464776 *  0.635709 *   4.00000    1.000000    
     16 Si    c    0.463976 *  0.586444 *  0.465728 *   4.00000    1.000000    
     17 Si    c    0.414954 *  0.882469 *  0.798841 *   4.00000    1.000000    
     18 Si    c    0.093431 *  0.523367 *  0.128994 *   4.00000    1.000000    
     19 Si    c    0.419684 *  0.525890 *  0.361691 *   4.00000    1.000000    
     20 Si    c    0.097792 *  0.576674 *  0.026180 *   4.00000    1.000000    
     21 Si    c    0.469232 *  0.885591 *  0.697029 *   4.00000    1.000000    
     22 Si    c    0.579929 *  0.467594 *  0.865194 *   4.00000    1.000000    
     23 Si    c    0.880418 *  0.404025 *  0.534369 *   4.00000    1.000000    
     24 Si    c    0.530068 *  0.115358 *  0.198564 *   4.00000    1.000000    
     25 Si    c    0.298476 *  0.395256 *  0.849179 *   4.00000    1.000000    
     26 Ge    c    0.587199 *  0.900746 *  0.188307 *   4.00000    1.000000    
     27 Si    c    0.080905 *  0.685979 *  0.516873 *   4.00000    1.000000    
     28 Si    c    0.706708 *  0.600195 *  0.346464 *   4.00000    1.000000    
     29 Si    c    0.397097 *  0.093018 *  0.684033 *   4.00000    1.000000    
     30 Si    c    0.882694 *  0.286959 *  0.011229 *   4.00000    1.000000    
     31 Si    c    0.396315 *  0.303631 *  0.481405 *   4.00000    1.000000    
     32 Si    c    0.886168 *  0.604085 *  0.142306 *   4.00000    1.000000    
     33 Si    c    0.697650 *  0.093663 *  0.814131 *   4.00000    1.000000    
     34 Si    c    0.595487 *  0.700227 *  0.979578 *   4.00000    1.000000    
     35 Si    c    0.096616 *  0.395633 *  0.648391 *   4.00000    1.000000    
     36 Si    c    0.302226 *  0.894707 *  0.313538 *   4.00000    1.000000    
     37 Si    c    0.247743 *  0.340941 *  0.949449 *   4.00000    1.000000    
     38 Si    c    0.670042 *  0.906382 *  0.284271 *   4.00000    1.000000    
     39 Si    c    0.083744 *  0.743457 *  0.618051 *   4.00000    1.000000    
     40 Ge    c    0.729761 *  0.639952 *  0.446642 *   4.00000    1.000000    
     41 Si    c    0.338372 *  0.083868 *  0.784689 *   4.00000    1.000000    
     42 Si    c    0.885481 *  0.241622 *  0.114466 *   4.00000    1.000000    
     43 Si    c    0.340559 *  0.246294 *  0.379084 *   4.00000    1.000000    
     44 Si    c    0.895955 *  0.660518 *  0.039556 *   4.00000    1.000000    
     45 Si    c    0.749066 *  0.087570 *  0.713289 *   4.00000    1.000000    
     46 Si    c    0.655150 *  0.746255 *  0.878878 *   4.00000    1.000000    
     47 Si    c    0.083128 *  0.330092 *  0.547773 *   4.00000    1.000000    
     48 Si    c    0.246277 *  0.905726 *  0.212193 *   4.00000    1.000000    
     49 Si    c    0.970621 *  0.118470 *  0.963636 *   4.00000    1.000000    
     50 Si    c    0.882654 *  0.843490 *  0.297892 *   4.00000    1.000000    
     51 Si    c    0.149631 *  0.025048 *  0.632007 *   4.00000    1.000000    
     52 Si    c    0.016355 *  0.867034 *  0.465119 *   4.00000    1.000000    
     53 Si    c    0.119898 *  0.144644 *  0.798020 *   4.00000    1.000000    
     54 Si    c    0.835649 *  0.967034 *  0.132877 *   4.00000    1.000000    
     55 Si    c    0.124012 *  0.961535 *  0.365430 *   4.00000    1.000000    
     56 Si    c    0.845790 *  0.883608 *  0.030654 *   4.00000    1.000000    
     57 Si    c    0.029083 *  0.148394 *  0.697189 *   4.00000    1.000000    
     58 Si    c    0.876706 *  0.023094 *  0.862963 *   4.00000    1.000000    
     59 Si    c    0.147767 *  0.114912 *  0.530949 *   4.00000    1.000000    
     60 Si    c    0.968536 *  0.855743 *  0.195456 *   4.00000    1.000000    
     61 O2    c    0.927810 *  0.004571 *  0.998834 *   0.87073    1.000000    
     62 O2    c    0.006598 *  0.917894 *  0.330559 *   0.87073    1.000000    
     63 O2    c    0.068014 *  0.069805 *  0.662419 *   0.87073    1.000000    
     64 O2    c    0.072825 *  0.995005 *  0.497042 *   0.87073    1.000000    
     65 O2    c    0.995100 *  0.063498 *  0.828929 *   0.87073    1.000000    
     66 O2    c    0.932652 *  0.941501 *  0.164403 *   0.87073    1.000000    
     67 O2    c    0.342635 *  0.570244 *  0.327758 *   0.87073    1.000000    
     68 O2    c    0.420646 *  0.760772 *  0.663544 *   0.87073    1.000000    
     69 O2    c    0.226030 *  0.653889 *  0.995591 *   0.87073    1.000000    
     70 O2    c    0.658099 *  0.417471 *  0.833832 *   0.87073    1.000000    
     71 O2    c    0.570308 *  0.247301 *  0.171996 *   0.87073    1.000000    
     72 O2    c    0.752130 *  0.324151 *  0.502147 *   0.87073    1.000000    
     73 O3    c    0.565287 *  0.337615 *  0.999047 *   1.33043    1.000000    
     74 O2    c    0.761466 *  0.418376 *  0.668588 *   0.87073    1.000000    
     75 O2    c    0.663214 *  0.231029 *  0.334815 *   0.87073    1.000000    
     76 O2    c    0.401534 *  0.653633 *  0.495859 *   0.87073    1.000000    
     77 O2    c    0.214082 *  0.565516 *  0.163288 *   0.87073    1.000000    
     78 O2    c    0.336957 *  0.756686 *  0.830256 *   0.87073    1.000000    
     79 O2    c    0.123970 *  0.213628 *  0.970026 *   0.87073    1.000000    
     80 O2    c    0.790508 *  0.903318 *  0.308828 *   0.87073    1.000000    
     81 O2    c    0.085336 *  0.871066 *  0.637940 *   0.87073    1.000000    
     82 O3    c    0.866243 *  0.786917 *  0.468207 *   1.33043    1.000000    
     83 O2    c    0.211152 *  0.082564 *  0.804558 *   0.87073    1.000000    
     84 O2    c    0.886984 *  0.121296 *  0.137335 *   0.87073    1.000000    
     85 O2    c    0.217296 *  0.116351 *  0.359248 *   0.87073    1.000000    
     86 O2    c    0.912832 *  0.797036 *  0.023793 *   0.87073    1.000000    
     87 O2    c    0.874452 *  0.086891 *  0.692527 *   0.87073    1.000000    
     88 O2    c    0.782158 *  0.869266 *  0.857739 *   0.87073    1.000000    
     89 O2    c    0.081378 *  0.202877 *  0.527425 *   0.87073    1.000000    
     90 O2    c    0.123118 *  0.909966 *  0.192030 *   0.87073    1.000000    
     91 O2    c    0.934404 *  0.868406 *  0.247053 *   0.87073    1.000000    
     92 O2    c    0.140638 *  0.061365 *  0.580687 *   0.87073    1.000000    
     93 O2    c    0.935090 *  0.059874 *  0.913250 *   0.87073    1.000000    
     94 O2    c    0.070699 *  0.130564 *  0.746692 *   0.87073    1.000000    
     95 O2    c    0.858255 *  0.933951 *  0.081863 *   0.87073    1.000000    
     96 O2    c    0.072755 *  0.924294 *  0.415472 *   0.87073    1.000000    
     97 O2    c    0.896889 *  0.197012 *  0.973254 *   0.87073    1.000000    
     98 O2    c    0.797949 *  0.688823 *  0.304948 *   0.87073    1.000000    
     99 O2    c    0.301028 *  0.095358 *  0.645458 *   0.87073    1.000000    
    100 O2    c    0.078789 *  0.778300 *  0.477943 *   0.87073    1.000000    
    101 O2    c    0.200875 *  0.296500 *  0.810286 *   0.87073    1.000000    
    102 O3    c    0.689764 *  0.890072 *  0.146318 *   1.33043    1.000000    
    103 O2    c    0.209301 *  0.894488 *  0.353252 *   0.87073    1.000000    
    104 O2    c    0.693237 *  0.801283 *  0.018032 *   0.87073    1.000000    
    105 O2    c    0.099825 *  0.300900 *  0.686642 *   0.87073    1.000000    
    106 O2    c    0.795795 *  0.094489 *  0.852513 *   0.87073    1.000000    
    107 O2    c    0.299769 *  0.205592 *  0.518802 *   0.87073    1.000000    
    108 O2    c    0.893678 *  0.704931 *  0.181076 *   0.87073    1.000000    
    109 O2    c    0.322596 *  0.639645 *  0.244769 *   0.87073    1.000000    
    110 O2    c    0.348869 *  0.671399 *  0.580828 *   0.87073    1.000000    
    111 O2    c    0.314329 *  0.675377 *  0.913146 *   0.87073    1.000000    
    112 O2    c    0.677507 *  0.352213 *  0.750900 *   0.87073    1.000000    
    113 O3    c    0.607330 *  0.305817 *  0.085039 *   1.33043    1.000000    
    114 O2    c    0.682284 *  0.326202 *  0.416933 *   0.87073    1.000000    
    115 O2    c    0.369714 *  0.333028 *  0.967617 *   0.87073    1.000000    
    116 O2    c    0.674552 *  0.037455 *  0.303080 *   0.87073    1.000000    
    117 O2    c    0.954031 *  0.621206 *  0.637864 *   0.87073    1.000000    
    118 O3    c    0.616285 *  0.677960 *  0.470276 *   1.33043    1.000000    
    119 O2    c    0.327966 *  0.951481 *  0.801954 *   0.87073    1.000000    
    120 O2    c    0.019789 *  0.368516 *  0.130185 *   0.87073    1.000000    
    121 O2    c    0.335733 *  0.369010 *  0.359519 *   0.87073    1.000000    
    122 O2    c    0.028352 *  0.662316 *  0.024337 *   0.87073    1.000000    
    123 O2    c    0.625969 *  0.954806 *  0.694200 *   0.87073    1.000000    
    124 O2    c    0.665192 *  0.623520 *  0.860996 *   0.87073    1.000000    
    125 O2    c    0.947617 *  0.315813 *  0.530646 *   0.87073    1.000000    
    126 O2    c    0.372233 *  0.038304 *  0.197450 *   0.87073    1.000000    
    127 O3    c    0.749495 *  0.280237 *  0.001901 *   1.33043    1.000000    
    128 O2    c    0.701096 *  0.461617 *  0.342502 *   0.87073    1.000000    
    129 O2    c    0.532354 *  0.226947 *  0.677174 *   0.87073    1.000000    
    130 O2    c    0.215219 *  0.686339 *  0.509494 *   0.87073    1.000000    
    131 O2    c    0.299416 *  0.528780 *  0.840252 *   0.87073    1.000000    
    132 O3    c    0.450079 *  0.751939 *  0.169725 *   1.33043    1.000000    
    133 O2    c    0.307337 *  0.763545 *  0.316998 *   0.87073    1.000000    
    134 O2    c    0.460242 *  0.700067 *  0.986430 *   0.87073    1.000000    
    135 O2    c    0.230001 *  0.532172 *  0.654810 *   0.87073    1.000000    
    136 O2    c    0.696674 *  0.226810 *  0.822621 *   0.87073    1.000000    
    137 O2    c    0.530871 *  0.304779 *  0.487064 *   0.87073    1.000000    
    138 O2    c    0.752415 *  0.471210 *  0.150505 *   0.87073    1.000000    
    139 O3    c    0.770291 *  0.545006 *  0.018189 *   1.33043    1.000000    
    140 O2    c    0.472719 *  0.253678 *  0.363183 *   0.87073    1.000000    
    141 O2    c    0.751156 *  0.214127 *  0.694432 *   0.87073    1.000000    
    142 O2    c    0.206670 *  0.455040 *  0.526457 *   0.87073    1.000000    
    143 O2    c    0.530819 *  0.748646 *  0.858844 *   0.87073    1.000000    
    144 O2    c    0.247901 *  0.780541 *  0.193025 *   0.87073    1.000000    
    145 O2    c    0.536024 *  0.779293 *  0.299922 *   0.87073    1.000000    
    146 O2    c    0.242358 *  0.464815 *  0.968895 *   0.87073    1.000000    
    147 O2    c    0.212695 *  0.746984 *  0.636133 *   0.87073    1.000000    
    148 O2    c    0.464082 *  0.210240 *  0.805174 *   0.87073    1.000000    
    149 O3    c    0.758086 *  0.528771 *  0.475837 *   1.33043    1.000000    
    150 O2    c    0.766962 *  0.254596 *  0.133832 *   0.87073    1.000000    
    151 O2    c    0.225275 *  0.321879 *  0.895018 *   0.87073    1.000000    
    152 O3    c    0.695873 *  0.907419 *  0.231635 *   1.33043    1.000000    
    153 O2    c    0.077705 *  0.756573 *  0.563722 *   0.87073    1.000000    
    154 O3    c    0.784540 *  0.683810 *  0.389744 *   1.33043    1.000000    
    155 O2    c    0.321589 *  0.087152 *  0.730310 *   0.87073    1.000000    
    156 O2    c    0.882297 *  0.223128 *  0.060045 *   0.87073    1.000000    
    157 O2    c    0.327461 *  0.240331 *  0.433184 *   0.87073    1.000000    
    158 O2    c    0.889648 *  0.669918 *  0.095028 *   0.87073    1.000000    
    159 O2    c    0.768671 *  0.090111 *  0.767662 *   0.87073    1.000000    
    160 O2    c    0.671748 *  0.768459 *  0.933326 *   0.87073    1.000000    
    161 O2    c    0.090600 *  0.317946 *  0.602064 *   0.87073    1.000000    
    162 O2    c    0.234854 *  0.899910 *  0.266913 *   0.87073    1.000000    
    163 O2    c    0.578625 *  0.561517 *  0.989463 *   0.87073    1.000000    
    164 O2    c    0.445418 *  0.016808 *  0.320317 *   0.87073    1.000000    
    165 O2    c    0.971721 *  0.410065 *  0.657867 *   0.87073    1.000000    
    166 O2    c    0.415296 *  0.445066 *  0.487863 *   0.87073    1.000000    
    167 O2    c    0.557261 *  0.968119 *  0.821947 *   0.87073    1.000000    
    168 O2    c    0.006813 *  0.580888 *  0.148786 *   0.87073    1.000000    
    169 O2    c    0.562067 *  0.579519 *  0.340196 *   0.87073    1.000000    
    170 O2    c    0.006222 *  0.432534 *  0.006158 *   0.87073    1.000000    
    171 O2    c    0.410837 *  0.968011 *  0.674221 *   0.87073    1.000000    
    172 O2    c    0.437875 *  0.407637 *  0.841618 *   0.87073    1.000000    
    173 O2    c    0.959413 *  0.542106 *  0.509567 *   0.87073    1.000000    
    174 O3    c    0.590791 *  0.043267 *  0.171174 *   1.33043    1.000000    
    175 O2    c    0.586158 *  0.158269 *  0.250540 *   0.87073    1.000000    
    176 O2    c    0.828897 *  0.407285 *  0.585112 *   0.87073    1.000000    
    177 O2    c    0.581741 *  0.421552 *  0.916291 *   0.87073    1.000000    
    178 O2    c    0.415511 *  0.831208 *  0.747409 *   0.87073    1.000000    
    179 O2    c    0.142810 *  0.574122 *  0.078295 *   0.87073    1.000000    
    180 O2    c    0.416869 *  0.577554 *  0.412476 *   0.87073    1.000000    
    181 F     c    0.480302 *  0.899250 *  0.237297 *   0.56000    1.000000    
    182 F     c    0.091014 *  0.538226 *  0.582282 *   0.56000    1.000000    
    183 F     c    0.443343 *  0.550886 *  0.913568 *   0.56000    1.000000    
    184 F     c    0.548309 *  0.094158 *  0.748284 *   0.56000    1.000000    
    185 F     c    0.846928 *  0.433440 *  0.070266 *   0.56000    1.000000    
    186 F     c    0.584102 *  0.488726 *  0.419339 *   0.56000    1.000000    
    187 O2    s    0.923390 *  0.003904 *  0.998411 *  -2.87073    1.000000    
    188 O2    s    0.006097 *  0.914521 *  0.330866 *  -2.87073    1.000000    
    189 O2    s    0.072854 *  0.073492 *  0.662861 *  -2.87073    1.000000    
    190 O2    s    0.075491 *  0.995252 *  0.497563 *  -2.87073    1.000000    
    191 O2    s    0.995847 *  0.068074 *  0.829268 *  -2.87073    1.000000    
    192 O2    s    0.927005 *  0.934471 *  0.164732 *  -2.87073    1.000000    
    193 O2    s    0.354370 *  0.578324 *  0.327865 *  -2.87073    1.000000    
    194 O2    s    0.412571 *  0.764517 *  0.663652 *  -2.87073    1.000000    
    195 O2    s    0.221579 *  0.642402 *  0.995594 *  -2.87073    1.000000    
    196 O2    s    0.646231 *  0.409757 *  0.833596 *  -2.87073    1.000000    
    197 O2    s    0.576825 *  0.241029 *  0.170760 *  -2.87073    1.000000    
    198 O2    s    0.757434 *  0.337288 *  0.501962 *  -2.87073    1.000000    
    199 O3    s    0.571133 *  0.349066 *  0.998232 *  -3.33043    1.000000    
    200 O2    s    0.765630 *  0.410568 *  0.668407 *  -2.87073    1.000000    
    201 O2    s    0.651919 *  0.227590 *  0.334522 *  -2.87073    1.000000    
    202 O2    s    0.396076 *  0.642021 *  0.496253 *  -2.87073    1.000000    
    203 O2    s    0.211793 *  0.574117 *  0.162875 *  -2.87073    1.000000    
    204 O2    s    0.348807 *  0.761219 *  0.830358 *  -2.87073    1.000000    
    205 O2    s    0.120015 *  0.216392 *  0.967229 *  -2.87073    1.000000    
    206 O2    s    0.787854 *  0.897426 *  0.305273 *  -2.87073    1.000000    
    207 O2    s    0.091947 *  0.874132 *  0.635285 *  -2.87073    1.000000    
    208 O3    s    0.874395 *  0.786400 *  0.466467 *  -3.33043    1.000000    
    209 O2    s    0.214652 *  0.089262 *  0.801834 *  -2.87073    1.000000    
    210 O2    s    0.881753 *  0.118822 *  0.134478 *  -2.87073    1.000000    
    211 O2    s    0.221004 *  0.114490 *  0.361977 *  -2.87073    1.000000    
    212 O2    s    0.903975 *  0.792128 *  0.026134 *  -2.87073    1.000000    
    213 O2    s    0.877995 *  0.093532 *  0.695145 *  -2.87073    1.000000    
    214 O2    s    0.779206 *  0.873102 *  0.860454 *  -2.87073    1.000000    
    215 O2    s    0.088613 *  0.206697 *  0.529876 *  -2.87073    1.000000    
    216 O2    s    0.120319 *  0.903899 *  0.194520 *  -2.87073    1.000000    
    217 O2    s    0.932373 *  0.864151 *  0.247061 *  -2.87073    1.000000    
    218 O2    s    0.142450 *  0.063394 *  0.580785 *  -2.87073    1.000000    
    219 O2    s    0.932509 *  0.062341 *  0.913268 *  -2.87073    1.000000    
    220 O2    s    0.071461 *  0.134176 *  0.746807 *  -2.87073    1.000000    
    221 O2    s    0.854370 *  0.931877 *  0.081645 *  -2.87073    1.000000    
    222 O2    s    0.073005 *  0.922789 *  0.414659 *  -2.87073    1.000000    
    223 O2    s    0.903403 *  0.198080 *  0.976261 *  -2.87073    1.000000    
    224 O2    s    0.797675 *  0.695967 *  0.308260 *  -2.87073    1.000000    
    225 O2    s    0.294596 *  0.087593 *  0.647943 *  -2.87073    1.000000    
    226 O2    s    0.072727 *  0.777547 *  0.480733 *  -2.87073    1.000000    
    227 O2    s    0.202118 *  0.290243 *  0.812931 *  -2.87073    1.000000    
    228 O3    s    0.699090 *  0.899337 *  0.147631 *  -3.33043    1.000000    
    229 O2    s    0.210492 *  0.901390 *  0.350249 *  -2.87073    1.000000    
    230 O2    s    0.699354 *  0.799709 *  0.015465 *  -2.87073    1.000000    
    231 O2    s    0.092100 *  0.294582 *  0.683852 *  -2.87073    1.000000    
    232 O2    s    0.794315 *  0.086906 *  0.849705 *  -2.87073    1.000000    
    233 O2    s    0.294383 *  0.206740 *  0.516051 *  -2.87073    1.000000    
    234 O2    s    0.900875 *  0.710543 *  0.178590 *  -2.87073    1.000000    
    235 O2    s    0.327769 *  0.649895 *  0.245169 *  -2.87073    1.000000    
    236 O2    s    0.336736 *  0.665520 *  0.580932 *  -2.87073    1.000000    
    237 O2    s    0.320537 *  0.669521 *  0.913240 *  -2.87073    1.000000    
    238 O2    s    0.671538 *  0.340331 *  0.750782 *  -2.87073    1.000000    
    239 O3    s    0.620495 *  0.311837 *  0.086711 *  -3.33043    1.000000    
    240 O2    s    0.676391 *  0.330541 *  0.416586 *  -2.87073    1.000000    
    241 O2    s    0.372021 *  0.342540 *  0.965558 *  -2.87073    1.000000    
    242 O2    s    0.665139 *  0.031775 *  0.300945 *  -2.87073    1.000000    
    243 O2    s    0.960576 *  0.617963 *  0.635554 *  -2.87073    1.000000    
    244 O3    s    0.608592 *  0.665733 *  0.468086 *  -3.33043    1.000000    
    245 O2    s    0.337988 *  0.958314 *  0.799808 *  -2.87073    1.000000    
    246 O2    s    0.013776 *  0.372102 *  0.128409 *  -2.87073    1.000000    
    247 O2    s    0.344766 *  0.372065 *  0.361791 *  -2.87073    1.000000    
    248 O2    s    0.022458 *  0.653103 *  0.026058 *  -2.87073    1.000000    
    249 O2    s    0.622657 *  0.961560 *  0.696504 *  -2.87073    1.000000    
    250 O2    s    0.655304 *  0.620339 *  0.863321 *  -2.87073    1.000000    
    251 O2    s    0.954853 *  0.326453 *  0.532840 *  -2.87073    1.000000    
    252 O2    s    0.374596 *  0.031696 *  0.199185 *  -2.87073    1.000000    
    253 O3    s    0.760250 *  0.287355 *  0.005101 *  -3.33043    1.000000    
    254 O2    s    0.694110 *  0.460909 *  0.345387 *  -2.87073    1.000000    
    255 O2    s    0.532851 *  0.219781 *  0.680307 *  -2.87073    1.000000    
    256 O2    s    0.208160 *  0.678510 *  0.512584 *  -2.87073    1.000000    
    257 O2    s    0.306951 *  0.529567 *  0.843583 *  -2.87073    1.000000    
    258 O3    s    0.445129 *  0.755658 *  0.173586 *  -3.33043    1.000000    
    259 O2    s    0.314299 *  0.770262 *  0.314387 *  -2.87073    1.000000    
    260 O2    s    0.459348 *  0.691961 *  0.983347 *  -2.87073    1.000000    
    261 O2    s    0.222501 *  0.532136 *  0.651723 *  -2.87073    1.000000    
    262 O2    s    0.689000 *  0.219734 *  0.819472 *  -2.87073    1.000000    
    263 O2    s    0.531535 *  0.311912 *  0.484593 *  -2.87073    1.000000    
    264 O2    s    0.759341 *  0.470761 *  0.147815 *  -2.87073    1.000000    
    265 O3    s    0.779939 *  0.547345 *  0.021456 *  -3.33043    1.000000    
    266 O2    s    0.474776 *  0.260048 *  0.365197 *  -2.87073    1.000000    
    267 O2    s    0.743010 *  0.208696 *  0.697052 *  -2.87073    1.000000    
    268 O2    s    0.201258 *  0.457739 *  0.529195 *  -2.87073    1.000000    
    269 O2    s    0.527924 *  0.740377 *  0.861458 *  -2.87073    1.000000    
    270 O2    s    0.254390 *  0.785256 *  0.195174 *  -2.87073    1.000000    
    271 O2    s    0.533021 *  0.783032 *  0.297851 *  -2.87073    1.000000    
    272 O2    s    0.250701 *  0.467853 *  0.966282 *  -2.87073    1.000000    
    273 O2    s    0.207158 *  0.738836 *  0.633717 *  -2.87073    1.000000    
    274 O2    s    0.466770 *  0.205159 *  0.802522 *  -2.87073    1.000000    
    275 O3    s    0.747831 *  0.521378 *  0.473026 *  -3.33043    1.000000    
    276 O2    s    0.771006 *  0.259959 *  0.131558 *  -2.87073    1.000000    
    277 O2    s    0.235263 *  0.331566 *  0.895912 *  -2.87073    1.000000    
    278 O3    s    0.685784 *  0.906891 *  0.234298 *  -3.33043    1.000000    
    279 O2    s    0.078655 *  0.747773 *  0.564583 *  -2.87073    1.000000    
    280 O3    s    0.772733 *  0.672118 *  0.389185 *  -3.33043    1.000000    
    281 O2    s    0.331318 *  0.087419 *  0.731159 *  -2.87073    1.000000    
    282 O2    s    0.882648 *  0.231371 *  0.061044 *  -2.87073    1.000000    
    283 O2    s    0.336161 *  0.247678 *  0.432260 *  -2.87073    1.000000    
    284 O2    s    0.889830 *  0.661646 *  0.094846 *  -2.87073    1.000000    
    285 O2    s    0.759214 *  0.090207 *  0.766726 *  -2.87073    1.000000    
    286 O2    s    0.662113 *  0.759081 *  0.932360 *  -2.87073    1.000000    
    287 O2    s    0.090428 *  0.327300 *  0.601076 *  -2.87073    1.000000    
    288 O2    s    0.243235 *  0.899951 *  0.266164 *  -2.87073    1.000000    
    289 O2    s    0.575039 *  0.562222 *  0.986136 *  -2.87073    1.000000    
    290 O2    s    0.444996 *  0.012979 *  0.317502 *  -2.87073    1.000000    
    291 O2    s    0.976297 *  0.414423 *  0.654510 *  -2.87073    1.000000    
    292 O2    s    0.418241 *  0.443554 *  0.484938 *  -2.87073    1.000000    
    293 O2    s    0.557519 *  0.972887 *  0.818674 *  -2.87073    1.000000    
    294 O2    s    0.003146 *  0.577154 *  0.145984 *  -2.87073    1.000000    
    295 O2    s    0.561819 *  0.575839 *  0.343127 *  -2.87073    1.000000    
    296 O2    s    0.003369 *  0.433294 *  0.008849 *  -2.87073    1.000000    
    297 O2    s    0.415599 *  0.973077 *  0.677658 *  -2.87073    1.000000    
    298 O2    s    0.437638 *  0.412690 *  0.844877 *  -2.87073    1.000000    
    299 O2    s    0.964467 *  0.543142 *  0.512955 *  -2.87073    1.000000    
    300 O3    s    0.584163 *  0.040028 *  0.175195 *  -3.33043    1.000000    
    301 O2    s    0.580954 *  0.148502 *  0.250774 *  -2.87073    1.000000    
    302 O2    s    0.840087 *  0.412862 *  0.585014 *  -2.87073    1.000000    
    303 O2    s    0.576136 *  0.426194 *  0.915960 *  -2.87073    1.000000    
    304 O2    s    0.421026 *  0.842145 *  0.747484 *  -2.87073    1.000000    
    305 O2    s    0.133086 *  0.569029 *  0.078437 *  -2.87073    1.000000    
    306 O2    s    0.421713 *  0.572917 *  0.412195 *  -2.87073    1.000000    
    307 F     s    0.486676 *  0.899209 *  0.234426 *  -1.56000    1.000000    
    308 F     s    0.091599 *  0.538210 *  0.582177 *  -1.56000    1.000000    
    309 F     s    0.442638 *  0.551495 *  0.913456 *  -1.56000    1.000000    
    310 F     s    0.548632 *  0.094717 *  0.748178 *  -1.56000    1.000000    
    311 F     s    0.836151 *  0.429267 *  0.067797 *  -1.56000    1.000000    
    312 F     s    0.592639 *  0.497370 *  0.420758 *  -1.56000    1.000000    
--------------------------------------------------------------------------------



********************************************************************************
*  General input information                                                   *
********************************************************************************

  Species output for all configurations : 

--------------------------------------------------------------------------------
  Species    Type    Atomic    Atomic    Charge       Radii (Angs)     Library
                     Number     Mass       (e)     Cova   Ionic  VDW   Symbol
--------------------------------------------------------------------------------
    Si       Core       14      28.09   4.000000   1.200  0.000  2.100          
    O1       Core        8      16.00   1.733957   0.730  0.000  1.360          
    O1       Shell       8       0.00  -3.733957   0.730  0.000  1.360          
    O2       Core        8      16.00   0.870733   0.730  0.000  1.360          
    O2       Shell       8       0.00  -2.870733   0.730  0.000  1.360          
    O3       Core        8      16.00   1.330431   0.730  0.000  1.360          
    O3       Shell       8       0.00  -3.330431   0.730  0.000  1.360          
    F        Core        9      19.00   0.560000   0.710  0.000  1.300          
    F        Shell       9       0.00  -1.560000   0.710  0.000  1.300          
    Ge       Core       32      72.61   4.000000   1.170  0.000  1.750          
--------------------------------------------------------------------------------


  Lattice summation method               =    Ewald          (3-D)
                                         =    Parry          (2-D)
                                         =    Saunders et al (1-D)
  Accuracy factor for lattice sums       =   12.000


  Time limit = Infinity

  Maximum range for interatomic potentials =        16.000000 Angstroms

  Taper potentials to zero over   1.0000 Angstroms using polynomial

  General interatomic potentials :

--------------------------------------------------------------------------------
Atom  Types   Potential         A         B         C         D     Cutoffs(Ang)
  1     2                                                            Min    Max 
--------------------------------------------------------------------------------
Si   c O1   s Buckingham    0.132E+04 0.318      10.1      0.00     0.000 16.000
Si   c O2   s Buckingham    0.132E+04 0.318      10.1      0.00     0.000 16.000
Si   c O3   s Buckingham    0.132E+04 0.318      10.1      0.00     0.000 16.000
Ge   c O1   s Buckingham    0.150E+04 0.326      16.8      0.00     0.000 16.000
Ge   c O2   s Buckingham    0.150E+04 0.326      16.8      0.00     0.000 16.000
Ge   c O3   s Buckingham    0.150E+04 0.326      16.8      0.00     0.000 16.000
O1   s O1   s Buckingham    0.228E+05 0.149      10.9      0.00     0.000 16.000
O1   s O2   s Buckingham    0.228E+05 0.149      10.9      0.00     0.000 16.000
O1   s O3   s Buckingham    0.228E+05 0.149      10.9      0.00     0.000 16.000
O2   s O2   s Buckingham    0.228E+05 0.149      10.9      0.00     0.000 16.000
O2   s O3   s Buckingham    0.228E+05 0.149      10.9      0.00     0.000 16.000
O3   s O3   s Buckingham    0.228E+05 0.149      10.9      0.00     0.000 16.000
Si   c F    s Buckingham     977.     0.282      0.00      0.00     0.000 16.000
Ge   c F    s Buckingham     681.     0.320      0.00      0.00     0.000 16.000
F    s F    s Buckingham     540.     0.262      0.00      0.00     0.000 16.000
O1   s F    s Buckingham    0.168E+04 0.268      0.00      0.00     0.000 16.000
O2   s F    s Buckingham    0.168E+04 0.268      0.00      0.00     0.000 16.000
O3   s F    s Buckingham    0.168E+04 0.268      0.00      0.00     0.000 16.000
O2   c O2   s Spring (c-s)   76.0      0.00      0.00      0.00     0.000  0.800
O3   c O3   s Spring (c-s)   128.      0.00      0.00      0.00     0.000  0.800
O1   c O1   s Spring (c-s)   180.      0.00      0.00      0.00     0.000  0.800
F    c F    s Spring (c-s)   33.5      0.00      0.00      0.00     0.000  0.800
--------------------------------------------------------------------------------

  General Three-body potentials :

  Harmonic form:

--------------------------------------------------------------------------------
Atom    Atom    Atom           Force Constants            Theta     Cutoffs  
  1       2       3     (eVrad**-2/eVrad**-3/eVrad**-4)   (deg)  1-2  1-3  2-3
--------------------------------------------------------------------------------
Si    c O1    s O1    s  1.261        0.0000    0.0000   109.470 0.00 0.00 0.00
                                                                 1.90 1.90 3.50
Si    c O1    s O2    s  1.261        0.0000    0.0000   109.470 0.00 0.00 0.00
                                                                 1.90 1.90 3.50
Si    c O2    s O2    s  1.261        0.0000    0.0000   109.470 0.00 0.00 0.00
                                                                 1.90 1.90 3.50
--------------------------------------------------------------------------------

********************************************************************************
*  Output for configuration   1                                                *
********************************************************************************


  Components of energy : 

--------------------------------------------------------------------------------
  Interatomic potentials     =        2066.24962877 eV
  Three-body potentials      =           0.51048657 eV
  Monopole - monopole (real) =       -6613.85154310 eV
  Monopole - monopole (recip)=       -3173.53303273 eV
  Monopole - monopole (total)=       -9787.38457583 eV
  Neutralising energy        =          -6.46451050 eV
--------------------------------------------------------------------------------
  Total lattice energy       =       -7727.08897099 eV
--------------------------------------------------------------------------------
  Total lattice energy       =         -745545.9663 kJ/(mole unit cells)
--------------------------------------------------------------------------------


  Number of variables =      939

  Maximum number of calculations  =          5000
  Maximum Hessian update interval =            10
  Maximum step size               =   0.100000000
  Maximum parameter tolerance     =   0.000010000
  Maximum function  tolerance     =   0.000010000
  Maximum gradient  tolerance     =   0.001000000
  Maximum gradient  component     =   0.010000000

  Symmetry not applied to optimisation

  Cell parameters to be optimised using strains

  Newton-Raphson optimiser to be used

  BFGS hessian update to be used

  Dumpfile to be written after every cycle

  Start of bulk optimisation :

  Cycle:      0 Energy:     -7727.088971  Gnorm:      0.000382  CPU:    2.026
  ** Hessian calculated **
  Cycle:      1 Energy:     -7727.100237  Gnorm:      0.000336  CPU:    6.587
  Cycle:      2 Energy:     -7727.113222  Gnorm:      0.000438  CPU:   10.772
  Cycle:      3 Energy:     -7727.126326  Gnorm:      0.000849  CPU:   14.958
  Cycle:      4 Energy:     -7727.131209  Gnorm:      0.000836  CPU:   19.143
  Cycle:      5 Energy:     -7727.132420  Gnorm:      0.000542  CPU:   23.325
  Cycle:      6 Energy:     -7727.132726  Gnorm:      0.000309  CPU:   27.507
  Cycle:      7 Energy:     -7727.132804  Gnorm:      0.000165  CPU:   31.692
  Cycle:      8 Energy:     -7727.132817  Gnorm:      0.000117  CPU:   34.530
  Cycle:      9 Energy:     -7727.132824  Gnorm:      0.000083  CPU:   37.360
  Cycle:     10 Energy:     -7727.132827  Gnorm:      0.000058  CPU:   40.196
  ** Hessian calculated **
  Cycle:     11 Energy:     -7727.132827  Gnorm:      0.000032  CPU:   44.734


  **** Optimisation achieved ****


  Final energy =   -7727.13282684 eV
  Final Gnorm  =       0.00002302

  Components of energy : 

--------------------------------------------------------------------------------
  Interatomic potentials     =        2066.37033752 eV
  Three-body potentials      =           0.50515054 eV
  Monopole - monopole (real) =       -6615.28360395 eV
  Monopole - monopole (recip)=       -3172.26278761 eV
  Monopole - monopole (total)=       -9787.54639156 eV
  Neutralising energy        =          -6.46192334 eV
--------------------------------------------------------------------------------
  Total lattice energy       =       -7727.13282684 eV
--------------------------------------------------------------------------------
  Total lattice energy       =         -745550.1977 kJ/(mole unit cells)
--------------------------------------------------------------------------------

  Final fractional coordinates of atoms :

--------------------------------------------------------------------------------
   No.  Atomic        x           y          z          Radius
        Label       (Frac)      (Frac)     (Frac)       (Angs) 
--------------------------------------------------------------------------------
     1  Ge    c     0.699600    0.375700    0.033890    0.000000
     2  Si    c     0.613650    0.307354    0.365896    0.000000
     3  Si    c     0.659036    0.275110    0.699859    0.000000
     4  Si    c     0.267800    0.594563    0.531785    0.000000
     5  Si    c     0.362572    0.657832    0.864045    0.000000
     6  Si    c     0.302284    0.677871    0.194583    0.000000
     7  Si    c     0.367757    0.680317    0.296410    0.000000
     8  Si    c     0.308900    0.606852    0.964295    0.000000
     9  Si    c     0.278045    0.655167    0.632233    0.000000
    10  Si    c     0.605919    0.277903    0.800456    0.000000
    11  Si    c     0.664207    0.358983    0.469068    0.000000
    12  Si    c     0.666566    0.311332    0.132041    0.000000
    13  Si    c     0.519056    0.404771    0.967061    0.000000
    14  Si    c     0.576331    0.095403    0.300247    0.000000
    15  Si    c     0.868301    0.445995    0.635220    0.000000
    16  Si    c     0.449206    0.569922    0.466588    0.000000
    17  Si    c     0.400382    0.866464    0.799486    0.000000
    18  Si    c     0.083263    0.511491    0.130242    0.000000
    19  Si    c     0.405235    0.511897    0.362465    0.000000
    20  Si    c     0.093104    0.568630    0.027611    0.000000
    21  Si    c     0.452713    0.866865    0.697654    0.000000
    22  Si    c     0.568170    0.453446    0.864527    0.000000
    23  Si    c     0.864969    0.386376    0.533933    0.000000
    24  Si    c     0.518112    0.103882    0.197944    0.000000
    25  Si    c     0.286763    0.380841    0.849159    0.000000
    26  Ge    c     0.574855    0.888672    0.188694    0.000000
    27  Si    c     0.065426    0.668398    0.516876    0.000000
    28  Si    c     0.691956    0.586493    0.346759    0.000000
    29  Si    c     0.380452    0.074008    0.684211    0.000000
    30  Si    c     0.877345    0.280271    0.011419    0.000000
    31  Si    c     0.381153    0.286779    0.481756    0.000000
    32  Si    c     0.877339    0.593684    0.143285    0.000000
    33  Si    c     0.682762    0.077331    0.814317    0.000000
    34  Si    c     0.587975    0.686651    0.979743    0.000000
    35  Si    c     0.079489    0.376978    0.648320    0.000000
    36  Si    c     0.289503    0.882718    0.313677    0.000000
    37  Si    c     0.239292    0.327526    0.949698    0.000000
    38  Si    c     0.657024    0.894032    0.284686    0.000000
    39  Si    c     0.066697    0.724851    0.618048    0.000000
    40  Ge    c     0.714735    0.623691    0.447042    0.000000
    41  Si    c     0.323649    0.067485    0.784941    0.000000
    42  Si    c     0.875002    0.230782    0.114603    0.000000
    43  Si    c     0.325723    0.232000    0.379340    0.000000
    44  Si    c     0.895210    0.657397    0.040809    0.000000
    45  Si    c     0.732549    0.068603    0.713436    0.000000
    46  Si    c     0.643928    0.731822    0.878779    0.000000
    47  Si    c     0.067542    0.312521    0.547741    0.000000
    48  Si    c     0.234629    0.894082    0.212231    0.000000
    49  Si    c     0.960974    0.108460    0.963681    0.000000
    50  Si    c     0.868890    0.830351    0.298334    0.000000
    51  Si    c     0.132868    0.006389    0.632314    0.000000
    52  Si    c     0.001519    0.850307    0.465348    0.000000
    53  Si    c     0.106702    0.130326    0.798345    0.000000
    54  Si    c     0.823642    0.955583    0.133427    0.000000
    55  Si    c     0.109958    0.947504    0.365836    0.000000
    56  Si    c     0.837285    0.874076    0.031255    0.000000
    57  Si    c     0.012808    0.130085    0.697553    0.000000
    58  Si    c     0.863689    0.009538    0.863428    0.000000
    59  Si    c     0.132449    0.097549    0.531216    0.000000
    60  Si    c     0.956812    0.844159    0.196080    0.000000
    61  O2    c     0.915502    0.995561    0.999459    0.000000
    62  O2    c     0.992171    0.903187    0.331209    0.000000
    63  O2    c     0.051793    0.050916    0.663123    0.000000
    64  O2    c     0.057703    0.977440    0.497548    0.000000
    65  O2    c     0.982611    0.050930    0.829652    0.000000
    66  O2    c     0.920294    0.929454    0.164939    0.000000
    67  O2    c     0.329131    0.558026    0.328788    0.000000
    68  O2    c     0.403012    0.741588    0.664426    0.000000
    69  O2    c     0.221671    0.643254    0.997122    0.000000
    70  O2    c     0.644771    0.402319    0.832815    0.000000
    71  O2    c     0.558633    0.235568    0.170987    0.000000
    72  O2    c     0.737073    0.306854    0.501641    0.000000
    73  O3    c     0.563414    0.330411    0.998748    0.000000
    74  O2    c     0.743993    0.398737    0.667818    0.000000
    75  O2    c     0.649153    0.218477    0.334328    0.000000
    76  O2    c     0.386828    0.636800    0.496836    0.000000
    77  O2    c     0.202740    0.552437    0.164854    0.000000
    78  O2    c     0.323668    0.741366    0.831326    0.000000
    79  O2    c     0.114831    0.199802    0.969823    0.000000
    80  O2    c     0.777508    0.891031    0.309235    0.000000
    81  O2    c     0.067866    0.852222    0.637855    0.000000
    82  O3    c     0.851531    0.770269    0.468443    0.000000
    83  O2    c     0.197103    0.067303    0.804890    0.000000
    84  O2    c     0.874982    0.109766    0.137633    0.000000
    85  O2    c     0.202143    0.102427    0.359663    0.000000
    86  O2    c     0.911581    0.793824    0.025311    0.000000
    87  O2    c     0.858096    0.067575    0.693017    0.000000
    88  O2    c     0.770728    0.855701    0.857935    0.000000
    89  O2    c     0.066377    0.185748    0.527368    0.000000
    90  O2    c     0.111321    0.898565    0.192348    0.000000
    91  O2    c     0.922148    0.856359    0.247651    0.000000
    92  O2    c     0.124544    0.044416    0.581133    0.000000
    93  O2    c     0.921649    0.047526    0.913740    0.000000
    94  O2    c     0.056099    0.115042    0.747173    0.000000
    95  O2    c     0.845906    0.922918    0.082377    0.000000
    96  O2    c     0.058804    0.908939    0.415871    0.000000
    97  O2    c     0.891895    0.191453    0.973139    0.000000
    98  O2    c     0.783078    0.675719    0.305260    0.000000
    99  O2    c     0.284018    0.075657    0.645683    0.000000
   100  O2    c     0.063692    0.761125    0.477949    0.000000
   101  O2    c     0.188624    0.282182    0.810436    0.000000
   102  O3    c     0.677893    0.878491    0.146823    0.000000
   103  O2    c     0.196443    0.882080    0.353378    0.000000
   104  O2    c     0.685848    0.786818    0.018166    0.000000
   105  O2    c     0.082557    0.282122    0.686567    0.000000
   106  O2    c     0.781403    0.079357    0.852723    0.000000
   107  O2    c     0.284431    0.187888    0.519007    0.000000
   108  O2    c     0.882926    0.693278    0.182084    0.000000
   109  O2    c     0.310906    0.628073    0.245727    0.000000
   110  O2    c     0.332291    0.653496    0.581492    0.000000
   111  O2    c     0.304496    0.660847    0.914072    0.000000
   112  O2    c     0.661450    0.333998    0.750174    0.000000
   113  O3    c     0.602660    0.302542    0.084331    0.000000
   114  O2    c     0.666754    0.310641    0.416698    0.000000
   115  O2    c     0.361132    0.318776    0.967696    0.000000
   116  O2    c     0.661675    0.025564    0.302876    0.000000
   117  O2    c     0.936830    0.602304    0.637615    0.000000
   118  O3    c     0.601399    0.661164    0.471104    0.000000
   119  O2    c     0.313122    0.935218    0.802542    0.000000
   120  O2    c     0.008883    0.356728    0.131013    0.000000
   121  O2    c     0.321034    0.355126    0.359996    0.000000
   122  O2    c     0.026652    0.657380    0.025786    0.000000
   123  O2    c     0.609365    0.935758    0.694602    0.000000
   124  O2    c     0.653777    0.609420    0.860380    0.000000
   125  O2    c     0.932330    0.298294    0.530348    0.000000
   126  O2    c     0.360273    0.026438    0.197043    0.000000
   127  O3    c     0.746799    0.277749    0.001922    0.000000
   128  O2    c     0.686008    0.447877    0.342551    0.000000
   129  O2    c     0.515595    0.207463    0.676849    0.000000
   130  O2    c     0.199936    0.669063    0.509812    0.000000
   131  O2    c     0.287546    0.514480    0.840767    0.000000
   132  O3    c     0.438160    0.739698    0.170390    0.000000
   133  O2    c     0.294577    0.751637    0.317578    0.000000
   134  O2    c     0.452912    0.686473    0.986779    0.000000
   135  O2    c     0.212435    0.513406    0.655118    0.000000
   136  O2    c     0.681895    0.210604    0.822273    0.000000
   137  O2    c     0.515606    0.287639    0.487135    0.000000
   138  O2    c     0.743242    0.461109    0.150928    0.000000
   139  O3    c     0.769699    0.543428    0.018467    0.000000
   140  O2    c     0.457670    0.239516    0.363102    0.000000
   141  O2    c     0.734274    0.194664    0.694150    0.000000
   142  O2    c     0.191379    0.437832    0.526756    0.000000
   143  O2    c     0.519248    0.734152    0.859094    0.000000
   144  O2    c     0.236385    0.768747    0.193373    0.000000
   145  O2    c     0.523278    0.767581    0.300864    0.000000
   146  O2    c     0.234639    0.451264    0.969737    0.000000
   147  O2    c     0.195273    0.728210    0.636428    0.000000
   148  O2    c     0.449513    0.193978    0.805068    0.000000
   149  O3    c     0.742642    0.511793    0.476006    0.000000
   150  O2    c     0.756104    0.244013    0.133272    0.000000
   151  O2    c     0.215471    0.308131    0.895349    0.000000
   152  O3    c     0.682812    0.894256    0.232078    0.000000
   153  O2    c     0.061377    0.738358    0.563710    0.000000
   154  O3    c     0.769438    0.668836    0.390165    0.000000
   155  O2    c     0.305859    0.069533    0.730569    0.000000
   156  O2    c     0.874584    0.214463    0.060152    0.000000
   157  O2    c     0.312685    0.224935    0.433435    0.000000
   158  O2    c     0.884537    0.662560    0.096168    0.000000
   159  O2    c     0.752614    0.072215    0.767795    0.000000
   160  O2    c     0.662363    0.754116    0.933159    0.000000
   161  O2    c     0.074199    0.299740    0.602039    0.000000
   162  O2    c     0.222830    0.888166    0.266940    0.000000
   163  O2    c     0.570410    0.547724    0.989209    0.000000
   164  O2    c     0.432544    0.004748    0.320093    0.000000
   165  O2    c     0.954288    0.390901    0.657596    0.000000
   166  O2    c     0.400392    0.428173    0.488521    0.000000
   167  O2    c     0.542538    0.952283    0.822501    0.000000
   168  O2    c     0.997103    0.569421    0.150075    0.000000
   169  O2    c     0.547360    0.565876    0.340755    0.000000
   170  O2    c     0.001407    0.425737    0.007087    0.000000
   171  O2    c     0.393832    0.948730    0.674697    0.000000
   172  O2    c     0.426150    0.393847    0.841094    0.000000
   173  O2    c     0.944352    0.524689    0.509250    0.000000
   174  O3    c     0.578692    0.031084    0.171066    0.000000
   175  O2    c     0.573441    0.146364    0.250020    0.000000
   176  O2    c     0.812754    0.389151    0.584582    0.000000
   177  O2    c     0.570863    0.407130    0.915505    0.000000
   178  O2    c     0.399958    0.813646    0.748251    0.000000
   179  O2    c     0.135387    0.564097    0.079881    0.000000
   180  O2    c     0.402259    0.562187    0.413389    0.000000
   181  F     c     0.468139    0.887575    0.237538    0.000000
   182  F     c     0.074383    0.519870    0.582266    0.000000
   183  F     c     0.433458    0.536183    0.913583    0.000000
   184  F     c     0.531856    0.075700    0.748325    0.000000
   185  F     c     0.843451    0.428802    0.070933    0.000000
   186  F     c     0.569083    0.473212    0.419656    0.000000
   187  O2    s     0.911724    0.994604    0.998989    0.000000
   188  O2    s     0.991795    0.900065    0.331467    0.000000
   189  O2    s     0.056559    0.054690    0.663483    0.000000
   190  O2    s     0.060392    0.977823    0.498015    0.000000
   191  O2    s     0.983228    0.055231    0.829920    0.000000
   192  O2    s     0.914762    0.922554    0.165279    0.000000
   193  O2    s     0.340879    0.565958    0.328862    0.000000
   194  O2    s     0.395132    0.745463    0.664476    0.000000
   195  O2    s     0.216750    0.631703    0.997075    0.000000
   196  O2    s     0.632926    0.394586    0.832669    0.000000
   197  O2    s     0.565254    0.229570    0.169865    0.000000
   198  O2    s     0.742301    0.320005    0.501505    0.000000
   199  O3    s     0.568327    0.341828    0.997805    0.000000
   200  O2    s     0.748306    0.391043    0.667692    0.000000
   201  O2    s     0.637815    0.214900    0.334069    0.000000
   202  O2    s     0.381272    0.625161    0.497176    0.000000
   203  O2    s     0.200540    0.561291    0.164333    0.000000
   204  O2    s     0.335594    0.745909    0.831341    0.000000
   205  O2    s     0.110887    0.202996    0.967108    0.000000
   206  O2    s     0.774784    0.885055    0.305689    0.000000
   207  O2    s     0.074591    0.855334    0.635252    0.000000
   208  O3    s     0.859653    0.769777    0.466715    0.000000
   209  O2    s     0.200619    0.073989    0.802159    0.000000
   210  O2    s     0.869910    0.107352    0.134784    0.000000
   211  O2    s     0.205990    0.100520    0.362370    0.000000
   212  O2    s     0.902102    0.788100    0.027532    0.000000
   213  O2    s     0.861620    0.074343    0.695581    0.000000
   214  O2    s     0.767631    0.859446    0.860647    0.000000
   215  O2    s     0.073521    0.189504    0.529855    0.000000
   216  O2    s     0.108552    0.892471    0.194833    0.000000
   217  O2    s     0.920014    0.852045    0.247638    0.000000
   218  O2    s     0.126371    0.046204    0.581197    0.000000
   219  O2    s     0.919567    0.050133    0.913717    0.000000
   220  O2    s     0.056836    0.118471    0.747262    0.000000
   221  O2    s     0.842484    0.920946    0.082157    0.000000
   222  O2    s     0.058946    0.907452    0.415044    0.000000
   223  O2    s     0.897886    0.191908    0.976193    0.000000
   224  O2    s     0.782933    0.682804    0.308579    0.000000
   225  O2    s     0.277639    0.068059    0.648177    0.000000
   226  O2    s     0.057627    0.760374    0.480760    0.000000
   227  O2    s     0.189823    0.275948    0.813072    0.000000
   228  O3    s     0.687206    0.887759    0.148131    0.000000
   229  O2    s     0.197526    0.888890    0.350402    0.000000
   230  O2    s     0.691913    0.785868    0.015640    0.000000
   231  O2    s     0.074914    0.275831    0.683812    0.000000
   232  O2    s     0.780022    0.071811    0.849941    0.000000
   233  O2    s     0.279084    0.189162    0.516285    0.000000
   234  O2    s     0.890222    0.699011    0.179546    0.000000
   235  O2    s     0.316036    0.638312    0.246114    0.000000
   236  O2    s     0.320213    0.647637    0.581586    0.000000
   237  O2    s     0.310774    0.655054    0.914138    0.000000
   238  O2    s     0.655518    0.322169    0.750119    0.000000
   239  O3    s     0.615559    0.308054    0.086284    0.000000
   240  O2    s     0.660908    0.315031    0.416379    0.000000
   241  O2    s     0.363470    0.328366    0.965626    0.000000
   242  O2    s     0.652228    0.019797    0.300774    0.000000
   243  O2    s     0.943431    0.599122    0.635307    0.000000
   244  O3    s     0.593723    0.649018    0.468889    0.000000
   245  O2    s     0.323168    0.942055    0.800370    0.000000
   246  O2    s     0.003048    0.360476    0.129213    0.000000
   247  O2    s     0.330064    0.358127    0.362270    0.000000
   248  O2    s     0.020388    0.648150    0.027495    0.000000
   249  O2    s     0.606085    0.942530    0.696892    0.000000
   250  O2    s     0.643923    0.606226    0.862743    0.000000
   251  O2    s     0.939512    0.308911    0.532552    0.000000
   252  O2    s     0.362663    0.019931    0.198794    0.000000
   253  O3    s     0.757788    0.284530    0.005131    0.000000
   254  O2    s     0.679051    0.447149    0.345440    0.000000
   255  O2    s     0.516106    0.200366    0.680017    0.000000
   256  O2    s     0.192818    0.661198    0.512895    0.000000
   257  O2    s     0.295133    0.515157    0.844056    0.000000
   258  O3    s     0.433255    0.743491    0.174255    0.000000
   259  O2    s     0.301587    0.758330    0.314955    0.000000
   260  O2    s     0.451947    0.678352    0.983725    0.000000
   261  O2    s     0.205063    0.513463    0.652019    0.000000
   262  O2    s     0.674199    0.203497    0.819168    0.000000
   263  O2    s     0.516264    0.294833    0.484679    0.000000
   264  O2    s     0.750258    0.460875    0.148238    0.000000
   265  O3    s     0.778955    0.544956    0.021849    0.000000
   266  O2    s     0.459726    0.245866    0.365139    0.000000
   267  O2    s     0.726194    0.189303    0.696790    0.000000
   268  O2    s     0.185891    0.440459    0.529487    0.000000
   269  O2    s     0.516437    0.725888    0.861708    0.000000
   270  O2    s     0.242825    0.773485    0.195534    0.000000
   271  O2    s     0.520260    0.771219    0.298745    0.000000
   272  O2    s     0.242895    0.454344    0.967080    0.000000
   273  O2    s     0.189853    0.720127    0.634014    0.000000
   274  O2    s     0.452183    0.188901    0.802426    0.000000
   275  O3    s     0.732430    0.504499    0.473186    0.000000
   276  O2    s     0.760340    0.249435    0.131092    0.000000
   277  O2    s     0.225425    0.317812    0.896185    0.000000
   278  O3    s     0.672779    0.893887    0.234738    0.000000
   279  O2    s     0.062344    0.729593    0.564581    0.000000
   280  O3    s     0.757655    0.657167    0.389576    0.000000
   281  O2    s     0.315601    0.069786    0.731411    0.000000
   282  O2    s     0.874883    0.222637    0.061179    0.000000
   283  O2    s     0.321349    0.232262    0.432525    0.000000
   284  O2    s     0.884755    0.654428    0.095887    0.000000
   285  O2    s     0.743215    0.072362    0.766870    0.000000
   286  O2    s     0.652685    0.744771    0.932260    0.000000
   287  O2    s     0.074043    0.309121    0.601045    0.000000
   288  O2    s     0.231196    0.888196    0.266211    0.000000
   289  O2    s     0.566908    0.548710    0.985905    0.000000
   290  O2    s     0.432075    0.000884    0.317291    0.000000
   291  O2    s     0.958970    0.395354    0.654239    0.000000
   292  O2    s     0.403321    0.426698    0.485586    0.000000
   293  O2    s     0.542839    0.957022    0.819197    0.000000
   294  O2    s     0.993442    0.565768    0.147233    0.000000
   295  O2    s     0.547140    0.562158    0.343679    0.000000
   296  O2    s     0.998629    0.426542    0.009777    0.000000
   297  O2    s     0.398688    0.953878    0.678117    0.000000
   298  O2    s     0.425886    0.398793    0.844389    0.000000
   299  O2    s     0.949317    0.525678    0.512659    0.000000
   300  O3    s     0.572046    0.027986    0.175080    0.000000
   301  O2    s     0.568287    0.136643    0.250254    0.000000
   302  O2    s     0.823962    0.394730    0.584502    0.000000
   303  O2    s     0.565382    0.411913    0.915193    0.000000
   304  O2    s     0.405487    0.824625    0.748266    0.000000
   305  O2    s     0.125627    0.559024    0.079932    0.000000
   306  O2    s     0.407110    0.557571    0.413076    0.000000
   307  F     s     0.474567    0.887498    0.234653    0.000000
   308  F     s     0.074933    0.519827    0.582154    0.000000
   309  F     s     0.432754    0.536741    0.913462    0.000000
   310  F     s     0.532106    0.076180    0.748207    0.000000
   311  F     s     0.832660    0.424991    0.068304    0.000000
   312  F     s     0.577612    0.481812    0.421084    0.000000
--------------------------------------------------------------------------------

  Final Cartesian lattice vectors (Angstroms) :

       11.966547    0.005753    0.000308
       -6.062981   10.367678    0.013076
        0.011445   -0.449357   29.440119


  Final cell parameters and derivatives :

--------------------------------------------------------------------------------
       a           11.966548 Angstrom     dE/de1(xx)     0.001887 eV/strain
       b           12.010356 Angstrom     dE/de2(yy)     0.001362 eV/strain
       c           29.443550 Angstrom     dE/de3(zz)     0.001982 eV/strain
       alpha       90.703720 Degrees      dE/de4(yz)    -0.000314 eV/strain
       beta        89.976676 Degrees      dE/de5(xz)     0.000308 eV/strain
       gamma      120.291377 Degrees      dE/de6(xy)     0.000112 eV/strain
--------------------------------------------------------------------------------

  Primitive cell volume =          3653.595212 Angs**3

  Density of cell =      1.751177 g/cm**3

  Non-primitive cell volume =          3653.595212 Angs**3


  Final internal derivatives :

--------------------------------------------------------------------------------
   No.  Atomic          a             b             c           Radius
        Label          (eV)          (eV)          (eV)        (eV/Angs)
--------------------------------------------------------------------------------
      1 Ge    c       0.000000      0.000000      0.000000      0.000000
      2 Si    c      -0.000045      0.000186      0.000228      0.000000
      3 Si    c       0.000021      0.000093     -0.000718      0.000000
      4 Si    c       0.000049      0.000134      0.000061      0.000000
      5 Si    c       0.000279      0.000026      0.000029      0.000000
      6 Si    c       0.000233      0.000073      0.000237      0.000000
      7 Si    c       0.000140      0.000041     -0.000109      0.000000
      8 Si    c       0.000902     -0.000327     -0.000875      0.000000
      9 Si    c       0.000143      0.000157     -0.000178      0.000000
     10 Si    c      -0.000094     -0.000321     -0.000222      0.000000
     11 Si    c       0.000099      0.000049      0.000226      0.000000
     12 Si    c       0.000336     -0.000254      0.005670      0.000000
     13 Si    c      -0.003170      0.004048     -0.009663      0.000000
     14 Si    c      -0.000078      0.000065     -0.000275      0.000000
     15 Si    c       0.000061      0.000035     -0.000163      0.000000
     16 Si    c       0.000147      0.000095     -0.000011      0.000000
     17 Si    c       0.000143      0.000278      0.000495      0.000000
     18 Si    c       0.000511      0.000028      0.001443      0.000000
     19 Si    c       0.000081      0.000169     -0.000123      0.000000
     20 Si    c      -0.000116     -0.000431      0.000357      0.000000
     21 Si    c       0.000192      0.000169     -0.000192      0.000000
     22 Si    c      -0.000474      0.000601     -0.000535      0.000000
     23 Si    c       0.000017      0.000068     -0.000283      0.000000
     24 Si    c      -0.000090     -0.000018      0.000394      0.000000
     25 Si    c       0.000263     -0.000104     -0.000274      0.000000
     26 Ge    c       0.000134     -0.000048      0.000126      0.000000
     27 Si    c       0.000091      0.000203     -0.000248      0.000000
     28 Si    c       0.000042      0.000228     -0.000069      0.000000
     29 Si    c      -0.000032      0.000146     -0.000461      0.000000
     30 Si    c       0.000842     -0.000260     -0.000151      0.000000
     31 Si    c       0.000071      0.000033      0.000009      0.000000
     32 Si    c       0.000177      0.000326      0.001728      0.000000
     33 Si    c      -0.000037     -0.000008      0.000320      0.000000
     34 Si    c      -0.000339      0.000193     -0.000557      0.000000
     35 Si    c       0.000039     -0.000056      0.000002      0.000000
     36 Si    c       0.000050      0.000157     -0.000359      0.000000
     37 Si    c      -0.000271      0.000196     -0.000254      0.000000
     38 Si    c       0.000178     -0.000048     -0.000222      0.000000
     39 Si    c       0.000101      0.000071     -0.000291      0.000000
     40 Ge    c       0.000098      0.000133     -0.000044      0.000000
     41 Si    c       0.000051      0.000145      0.000268      0.000000
     42 Si    c       0.000657     -0.000643      0.001012      0.000000
     43 Si    c       0.000092      0.000046      0.000113      0.000000
     44 Si    c      -0.000924     -0.000692     -0.003248      0.000000
     45 Si    c       0.000021      0.000047     -0.000195      0.000000
     46 Si    c      -0.000002      0.000131     -0.000114      0.000000
     47 Si    c       0.000004      0.000100      0.000050      0.000000
     48 Si    c      -0.000091      0.000150      0.000195      0.000000
     49 Si    c      -0.000275     -0.000199     -0.000421      0.000000
     50 Si    c       0.000065      0.000083      0.000010      0.000000
     51 Si    c       0.000192      0.000184     -0.000139      0.000000
     52 Si    c      -0.000031     -0.000011     -0.000043      0.000000
     53 Si    c       0.000291      0.000002      0.000474      0.000000
     54 Si    c      -0.000106      0.000145      0.000621      0.000000
     55 Si    c      -0.000044      0.000144     -0.000080      0.000000
     56 Si    c      -0.000064      0.001503      0.002588      0.000000
     57 Si    c      -0.000040      0.000185     -0.000911      0.000000
     58 Si    c       0.000137      0.000161     -0.000524      0.000000
     59 Si    c       0.000107      0.000170      0.000023      0.000000
     60 Si    c       0.000075      0.000179     -0.000097      0.000000
     61 O2    c       0.000993      0.000146     -0.000913      0.000000
     62 O2    c       0.000084      0.000098     -0.000003      0.000000
     63 O2    c       0.000040      0.000102      0.000055      0.000000
     64 O2    c       0.000066      0.000177      0.000055      0.000000
     65 O2    c       0.000005     -0.000101      0.000068      0.000000
     66 O2    c      -0.000036      0.000065      0.000111      0.000000
     67 O2    c       0.000092      0.000201     -0.000148      0.000000
     68 O2    c      -0.000046      0.000067     -0.000082      0.000000
     69 O2    c       0.000008      0.000493      0.000076      0.000000
     70 O2    c       0.000129      0.000200     -0.000149      0.000000
     71 O2    c      -0.000270     -0.000465      0.001647      0.000000
     72 O2    c       0.000178      0.000175      0.000164      0.000000
     73 O3    c      -0.002806     -0.003740     -0.000634      0.000000
     74 O2    c       0.000141      0.000002      0.000078      0.000000
     75 O2    c       0.000046     -0.000042     -0.000176      0.000000
     76 O2    c       0.000132     -0.000012     -0.000094      0.000000
     77 O2    c       0.000014     -0.000042     -0.000210      0.000000
     78 O2    c      -0.000028      0.000225     -0.000438      0.000000
     79 O2    c       0.001529      0.000146      0.000308      0.000000
     80 O2    c      -0.000032      0.000094     -0.000249      0.000000
     81 O2    c       0.000094     -0.000051     -0.000127      0.000000
     82 O3    c       0.000287      0.000105     -0.000198      0.000000
     83 O2    c       0.000041      0.000159     -0.000204      0.000000
     84 O2    c       0.000076     -0.000114     -0.000142      0.000000
     85 O2    c       0.000118      0.000151      0.000150      0.000000
     86 O2    c       0.003424     -0.003399     -0.001515      0.000000
     87 O2    c       0.000002      0.000093      0.000045      0.000000
     88 O2    c       0.000139     -0.000027      0.000090      0.000000
     89 O2    c       0.000130      0.000122      0.000173      0.000000
     90 O2    c       0.000032     -0.000001      0.000382      0.000000
     91 O2    c       0.000111     -0.000019     -0.000229      0.000000
     92 O2    c       0.000021      0.000121     -0.000038      0.000000
     93 O2    c       0.000188     -0.000404     -0.002983      0.000000
     94 O2    c       0.000196     -0.000057      0.000709      0.000000
     95 O2    c      -0.000281      0.000872      0.004542      0.000000
     96 O2    c       0.000027      0.000088      0.000133      0.000000
     97 O2    c      -0.001690      0.001507      0.000012      0.000000
     98 O2    c       0.000000      0.000043      0.000326      0.000000
     99 O2    c       0.000020      0.000056      0.000218      0.000000
    100 O2    c       0.000026      0.000083      0.000364      0.000000
    101 O2    c       0.000126     -0.000017      0.000090      0.000000
    102 O3    c       0.000245      0.000301     -0.000051      0.000000
    103 O2    c       0.000249     -0.000037     -0.000256      0.000000
    104 O2    c      -0.003589      0.000622     -0.001169      0.000000
    105 O2    c       0.000032      0.000252     -0.000399      0.000000
    106 O2    c      -0.000032      0.000146     -0.000183      0.000000
    107 O2    c      -0.000033      0.000123     -0.000232      0.000000
    108 O2    c       0.000117      0.000154      0.000474      0.000000
    109 O2    c       0.000035      0.000183      0.000051      0.000000
    110 O2    c      -0.000035      0.000053      0.000049      0.000000
    111 O2    c       0.000249     -0.000130     -0.000181      0.000000
    112 O2    c       0.000075      0.000127     -0.000272      0.000000
    113 O3    c      -0.002470     -0.000779     -0.002762      0.000000
    114 O2    c      -0.000018      0.000127     -0.000227      0.000000
    115 O2    c      -0.001654      0.000387     -0.000247      0.000000
    116 O2    c      -0.000066      0.000229      0.000069      0.000000
    117 O2    c       0.000113      0.000078     -0.000163      0.000000
    118 O3    c      -0.000183      0.000013     -0.000132      0.000000
    119 O2    c       0.000117      0.000120     -0.000195      0.000000
    120 O2    c       0.000494     -0.000030      0.000322      0.000000
    121 O2    c       0.000126      0.000008      0.000152      0.000000
    122 O2    c      -0.000132      0.000935     -0.000654      0.000000
    123 O2    c      -0.000031      0.000139      0.000144      0.000000
    124 O2    c      -0.000103      0.000054      0.000490      0.000000
    125 O2    c       0.000136      0.000216      0.000186      0.000000
    126 O2    c       0.000097     -0.000016      0.000181      0.000000
    127 O3    c      -0.000695     -0.000487     -0.000773      0.000000
    128 O2    c       0.000011      0.000122      0.000113      0.000000
    129 O2    c       0.000162      0.000039      0.000307      0.000000
    130 O2    c       0.000019      0.000044      0.000207      0.000000
    131 O2    c       0.000182      0.000075      0.000296      0.000000
    132 O3    c      -0.000028      0.000160      0.000269      0.000000
    133 O2    c       0.000092      0.000157     -0.000072      0.000000
    134 O2    c       0.000663     -0.000368     -0.000212      0.000000
    135 O2    c       0.000046      0.000158     -0.000239      0.000000
    136 O2    c       0.000035      0.000154     -0.000156      0.000000
    137 O2    c       0.000071      0.000174     -0.000214      0.000000
    138 O2    c      -0.000083      0.000487      0.000369      0.000000
    139 O3    c      -0.001541     -0.000947     -0.001360      0.000000
    140 O2    c       0.000138      0.000118      0.000087      0.000000
    141 O2    c      -0.000015      0.000094      0.000152      0.000000
    142 O2    c       0.000044      0.000130      0.000139      0.000000
    143 O2    c       0.000156     -0.000139      0.000337      0.000000
    144 O2    c       0.000058      0.000150      0.000155      0.000000
    145 O2    c      -0.000076      0.000131     -0.000032      0.000000
    146 O2    c       0.000276     -0.000003      0.000067      0.000000
    147 O2    c      -0.000028      0.000060     -0.000175      0.000000
    148 O2    c       0.000115      0.000114     -0.000186      0.000000
    149 O3    c      -0.000042      0.000162     -0.000311      0.000000
    150 O2    c       0.000208     -0.000218      0.000423      0.000000
    151 O2    c       0.000253     -0.000037      0.000481      0.000000
    152 O3    c      -0.000068      0.000103     -0.000140      0.000000
    153 O2    c       0.000090     -0.000008      0.000311      0.000000
    154 O3    c      -0.000073      0.000018     -0.000037      0.000000
    155 O2    c       0.000084      0.000074      0.000185      0.000000
    156 O2    c       0.000470     -0.000522     -0.000304      0.000000
    157 O2    c       0.000115      0.000112     -0.000123      0.000000
    158 O2    c      -0.000233      0.000914      0.000609      0.000000
    159 O2    c       0.000030      0.000121     -0.000349      0.000000
    160 O2    c       0.000017      0.000046      0.000413      0.000000
    161 O2    c       0.000043      0.000192     -0.000285      0.000000
    162 O2    c       0.000157      0.000044     -0.000042      0.000000
    163 O2    c      -0.000055      0.001233      0.000373      0.000000
    164 O2    c       0.000093      0.000057     -0.000120      0.000000
    165 O2    c       0.000111      0.000137     -0.000309      0.000000
    166 O2    c       0.000048      0.000197     -0.000158      0.000000
    167 O2    c       0.000001      0.000118     -0.000312      0.000000
    168 O2    c       0.000195     -0.000012      0.000533      0.000000
    169 O2    c       0.000136      0.000007      0.000248      0.000000
    170 O2    c       0.000543     -0.000346     -0.000546      0.000000
    171 O2    c       0.000088      0.000107      0.000196      0.000000
    172 O2    c       0.000173      0.000156      0.000790      0.000000
    173 O2    c       0.000087      0.000033      0.000285      0.000000
    174 O3    c       0.000042     -0.000013      0.000230      0.000000
    175 O2    c      -0.000008      0.000012      0.000009      0.000000
    176 O2    c       0.000179      0.000101      0.000032      0.000000
    177 O2    c      -0.000354      0.000726     -0.002087      0.000000
    178 O2    c       0.000065      0.000070     -0.000273      0.000000
    179 O2    c       0.000599     -0.000150     -0.000011      0.000000
    180 O2    c       0.000121      0.000050      0.000355      0.000000
    181 F     c       0.000149      0.000043     -0.000117      0.000000
    182 F     c       0.000076      0.000102     -0.000005      0.000000
    183 F     c       0.000301     -0.000120      0.000179      0.000000
    184 F     c       0.000054      0.000096     -0.000081      0.000000
    185 F     c       0.000354      0.000066     -0.000014      0.000000
    186 F     c       0.000107      0.000104      0.000035      0.000000
    187 O2    s       0.001363      0.000179     -0.000168      0.000000
    188 O2    s       0.000105      0.000168      0.000116      0.000000
    189 O2    s       0.000059      0.000103     -0.000358      0.000000
    190 O2    s       0.000131      0.000113      0.000096      0.000000
    191 O2    s       0.000029      0.000189     -0.000067      0.000000
    192 O2    s       0.000095      0.000008      0.000234      0.000000
    193 O2    s       0.000245      0.000115     -0.000191      0.000000
    194 O2    s      -0.000091      0.000332     -0.000115      0.000000
    195 O2    s       0.000006      0.000173     -0.000779      0.000000
    196 O2    s       0.000084      0.000085      0.000619      0.000000
    197 O2    s       0.000048     -0.000205      0.002181      0.000000
    198 O2    s       0.000050      0.000224      0.000174      0.000000
    199 O3    s       0.001379      0.003515      0.002413      0.000000
    200 O2    s       0.000220     -0.000084      0.000047      0.000000
    201 O2    s       0.000005      0.000056     -0.000207      0.000000
    202 O2    s       0.000112      0.000142     -0.000099      0.000000
    203 O2    s       0.000122      0.000279      0.000315      0.000000
    204 O2    s       0.000131      0.000118      0.000023      0.000000
    205 O2    s       0.001396      0.000305     -0.000732      0.000000
    206 O2    s       0.000016      0.000109     -0.000331      0.000000
    207 O2    s       0.000225     -0.000042     -0.000136      0.000000
    208 O3    s       0.000229     -0.000056     -0.000050      0.000000
    209 O2    s       0.000116      0.000125      0.000011      0.000000
    210 O2    s       0.000018     -0.000055      0.000611      0.000000
    211 O2    s       0.000114      0.000141      0.000107      0.000000
    212 O2    s       0.002361     -0.001888     -0.001830      0.000000
    213 O2    s      -0.000086      0.000202     -0.000210      0.000000
    214 O2    s       0.000019      0.000070     -0.000237      0.000000
    215 O2    s       0.000127      0.000078      0.000242      0.000000
    216 O2    s       0.000099      0.000050      0.000216      0.000000
    217 O2    s       0.000066      0.000158     -0.000108      0.000000
    218 O2    s       0.000121      0.000160     -0.000098      0.000000
    219 O2    s       0.000063     -0.000358     -0.001951      0.000000
    220 O2    s       0.000082      0.000222      0.000430      0.000000
    221 O2    s       0.000133      0.001243      0.003249      0.000000
    222 O2    s       0.000048      0.000051      0.000076      0.000000
    223 O2    s      -0.001371      0.001439      0.000115      0.000000
    224 O2    s      -0.000052      0.000110      0.000347      0.000000
    225 O2    s       0.000118      0.000051      0.000027      0.000000
    226 O2    s       0.000028      0.000106      0.000265      0.000000
    227 O2    s      -0.000012      0.000251      0.000027      0.000000
    228 O3    s       0.000038      0.000048      0.000514      0.000000
    229 O2    s       0.000133      0.000087     -0.000339      0.000000
    230 O2    s      -0.002905      0.000437     -0.000942      0.000000
    231 O2    s      -0.000139      0.000259     -0.000332      0.000000
    232 O2    s      -0.000059      0.000178     -0.000218      0.000000
    233 O2    s       0.000039      0.000109     -0.000121      0.000000
    234 O2    s       0.000107      0.000264      0.000734      0.000000
    235 O2    s       0.000102      0.000233      0.000155      0.000000
    236 O2    s      -0.000101      0.000270      0.000119      0.000000
    237 O2    s       0.000032      0.000230     -0.000571      0.000000
    238 O2    s       0.000195     -0.000057     -0.000168      0.000000
    239 O3    s       0.001306      0.001015     -0.001027      0.000000
    240 O2    s      -0.000062      0.000260      0.000053      0.000000
    241 O2    s       0.000123      0.000368     -0.000612      0.000000
    242 O2    s      -0.000093      0.000198     -0.000234      0.000000
    243 O2    s       0.000261     -0.000044     -0.000112      0.000000
    244 O3    s       0.000092      0.000108     -0.000003      0.000000
    245 O2    s       0.000180      0.000120     -0.000161      0.000000
    246 O2    s      -0.000120      0.000290      0.000374      0.000000
    247 O2    s       0.000226      0.000000      0.000138      0.000000
    248 O2    s       0.000206     -0.000391      0.000178      0.000000
    249 O2    s      -0.000080      0.000333      0.000016      0.000000
    250 O2    s       0.000260     -0.000171     -0.000556      0.000000
    251 O2    s       0.000041      0.000190      0.000264      0.000000
    252 O2    s       0.000211      0.000042      0.000259      0.000000
    253 O3    s       0.000723      0.000327      0.000232      0.000000
    254 O2    s      -0.000030      0.000157      0.000251      0.000000
    255 O2    s       0.000196     -0.000029      0.000066      0.000000
    256 O2    s       0.000066      0.000101      0.000353      0.000000
    257 O2    s      -0.000112      0.000166     -0.000387      0.000000
    258 O3    s       0.000037      0.000241      0.000519      0.000000
    259 O2    s       0.000105      0.000151     -0.000378      0.000000
    260 O2    s       0.000083      0.000165      0.000006      0.000000
    261 O2    s      -0.000127      0.000209     -0.000172      0.000000
    262 O2    s      -0.000072      0.000151     -0.000144      0.000000
    263 O2    s       0.000002      0.000200     -0.000075      0.000000
    264 O2    s       0.000073      0.000154      0.000511      0.000000
    265 O3    s       0.001616     -0.001943      0.002720      0.000000
    266 O2    s       0.000036      0.000194      0.000221      0.000000
    267 O2    s      -0.000021      0.000132      0.000113      0.000000
    268 O2    s      -0.000081      0.000197      0.000248      0.000000
    269 O2    s      -0.000043      0.000249     -0.000251      0.000000
    270 O2    s       0.000114      0.000190      0.000197      0.000000
    271 O2    s      -0.000062      0.000126     -0.000283      0.000000
    272 O2    s      -0.000014      0.000339     -0.000680      0.000000
    273 O2    s       0.000080      0.000031     -0.000321      0.000000
    274 O2    s       0.000204     -0.000098      0.000128      0.000000
    275 O3    s      -0.000089      0.000151     -0.000183      0.000000
    276 O2    s       0.000021     -0.000207      0.000795      0.000000
    277 O2    s      -0.000141      0.000353      0.000246      0.000000
    278 O3    s      -0.000057      0.000240      0.000051      0.000000
    279 O2    s       0.000228      0.000008      0.000104      0.000000
    280 O3    s      -0.000001      0.000023     -0.000011      0.000000
    281 O2    s       0.000268     -0.000038      0.000030      0.000000
    282 O2    s      -0.000520      0.000566      0.000344      0.000000
    283 O2    s       0.000139      0.000136     -0.000059      0.000000
    284 O2    s       0.000465     -0.000751      0.001060      0.000000
    285 O2    s      -0.000058      0.000190     -0.000197      0.000000
    286 O2    s      -0.000231     -0.000041      0.000237      0.000000
    287 O2    s      -0.000086      0.000274      0.000071      0.000000
    288 O2    s       0.000324      0.000048     -0.000003      0.000000
    289 O2    s      -0.000809     -0.000853     -0.002269      0.000000
    290 O2    s       0.000098      0.000087     -0.000550      0.000000
    291 O2    s       0.000036      0.000146     -0.000295      0.000000
    292 O2    s       0.000149      0.000084     -0.000228      0.000000
    293 O2    s      -0.000002      0.000150     -0.000018      0.000000
    294 O2    s       0.000155      0.000036     -0.000397      0.000000
    295 O2    s       0.000100      0.000073      0.000242      0.000000
    296 O2    s      -0.000759      0.000534      0.000343      0.000000
    297 O2    s       0.000164      0.000059      0.000209      0.000000
    298 O2    s       0.000264     -0.000081     -0.000621      0.000000
    299 O2    s       0.000135      0.000075      0.000275      0.000000
    300 O3    s       0.000093      0.000102      0.000611      0.000000
    301 O2    s       0.000159     -0.000043      0.000134      0.000000
    302 O2    s       0.000223      0.000075      0.000081      0.000000
    303 O2    s       0.000478      0.000162     -0.000899      0.000000
    304 O2    s       0.000051      0.000331     -0.000016      0.000000
    305 O2    s      -0.000419      0.000398      0.000550      0.000000
    306 O2    s       0.000220      0.000043      0.000110      0.000000
    307 F     s       0.000219      0.000028     -0.000352      0.000000
    308 F     s       0.000043      0.000122      0.000023      0.000000
    309 F     s       0.000028      0.000085      0.000360      0.000000
    310 F     s       0.000087      0.000127     -0.000141      0.000000
    311 F     s      -0.000191      0.000001     -0.000427      0.000000
    312 F     s       0.000167      0.000117      0.000126      0.000000
--------------------------------------------------------------------------------
  Maximum abs         0.003589      0.004048      0.009663      0.000000
--------------------------------------------------------------------------------


  Time to end of optimisation =      47.5690 seconds


  Peak dynamic memory used =      19.13 MB 


  Timing analysis for GULP :

--------------------------------------------------------------------------------
  Task / Subroutine                                          Time (Seconds)
--------------------------------------------------------------------------------
  Calculation of reciprocal space energy and derivatives          1.3182
  Calculation of real space energy and derivatives               41.2452
  Calculation of three-body energy and derivatives                4.1681
  Calculation of matrix inversion                                 0.7448
  Global summation overhead                                       0.0001
--------------------------------------------------------------------------------
  Total CPU time                                                 47.5691
--------------------------------------------------------------------------------


  Dump file written as out.res                                                 
  CIF file written as out.cif                                                 


  Job Finished at 04:29.13  5th November   2016                               

