********************************************************************************
*                       GENERAL UTILITY LATTICE PROGRAM                        *
*                                 Julian Gale                                  *
*                      Nanochemistry Research Institute                        *
*                           Department of Chemistry                            *
*                    Curtin University, Western Australia                      *
********************************************************************************
* Version = 4.2.0 * Last modified =  20th January 2014                         *
********************************************************************************
*  optimise     - perform optimisation run                                     *
*  conp         - constant pressure calculation                                *
*  qok          - running with non charge neutral cell is OK                   *
********************************************************************************

  Job Started  at 12:53.00  6th November   2016                               

  Number of CPUs =     1


  Total number of configurations input =   1

********************************************************************************
*  Input for Configuration =   1                                               *
********************************************************************************

  Formula = Ge3Si57O120F6                                               

  Number of irreducible atoms/shells =     312


  Total number atoms/shells =     312

  Dimensionality = 3               :  Bulk   


  Charge on solid   =  -6.000000 =>neutralising background added


  Cartesian lattice vectors (Angstroms) :

       11.953704    0.000000    0.000000
       -6.061370   10.361784    0.000000
       -0.320440   -0.015695   29.462225

  Cell parameters (Angstroms/Degrees):

  a =      11.9537    alpha =  89.7117
  b =      12.0044    beta  =  90.6231
  c =      29.4640    gamma = 120.3265

  Initial cell volume =        3649.241239 Angs**3

  Temperature of configuration =  0.000     K 

  Pressure of configuration =         0.000 GPa 

  Fractional coordinates of asymmetric unit :

--------------------------------------------------------------------------------
   No.  Atomic       x           y          z         Charge      Occupancy
        Label      (Frac)      (Frac)     (Frac)        (e)         (Frac)  
--------------------------------------------------------------------------------
      1 Ge    c    0.699600    0.375700    0.033890     4.00000    1.000000    
      2 Si    c    0.622714 *  0.322390 *  0.364627 *   4.00000    1.000000    
      3 Si    c    0.681068 *  0.309792 *  0.693794 *   4.00000    1.000000    
      4 Si    c    0.298179 *  0.616965 *  0.527619 *   4.00000    1.000000    
      5 Si    c    0.368617 *  0.677032 *  0.860822 *   4.00000    1.000000    
      6 Si    c    0.318910 *  0.704992 *  0.196023 *   4.00000    1.000000    
      7 Si    c    0.374963 *  0.697823 *  0.296371 *   4.00000    1.000000    
      8 Si    c    0.311777 *  0.627137 *  0.963122 *   4.00000    1.000000    
      9 Si    c    0.302944 *  0.669030 *  0.628226 *   4.00000    1.000000    
     10 Si    c    0.616018 *  0.301556 *  0.795708 *   4.00000    1.000000    
     11 Si    c    0.676671 *  0.379539 *  0.465153 *   4.00000    1.000000    
     12 Si    c    0.684565 *  0.317991 *  0.132436 *   4.00000    1.000000    
     13 Si    c    0.526825 *  0.413819 *  0.965671 *   4.00000    1.000000    
     14 Si    c    0.583024 *  0.108909 *  0.301784 *   4.00000    1.000000    
     15 Si    c    0.899150 *  0.475591 *  0.631172 *   4.00000    1.000000    
     16 Si    c    0.469283 *  0.581306 *  0.462280 *   4.00000    1.000000    
     17 Si    c    0.407792 *  0.886087 *  0.793855 *   4.00000    1.000000    
     18 Si    c    0.106602 *  0.535961 *  0.128820 *   4.00000    1.000000    
     19 Si    c    0.416794 *  0.526333 *  0.360657 *   4.00000    1.000000    
     20 Si    c    0.101650 *  0.589721 *  0.025889 *   4.00000    1.000000    
     21 Si    c    0.465633 *  0.881308 *  0.691379 *   4.00000    1.000000    
     22 Si    c    0.575740 *  0.469174 *  0.861808 *   4.00000    1.000000    
     23 Si    c    0.888859 *  0.417657 *  0.530153 *   4.00000    1.000000    
     24 Si    c    0.527349 *  0.111606 *  0.200621 *   4.00000    1.000000    
     25 Si    c    0.289666 *  0.396504 *  0.843653 *   4.00000    1.000000    
     26 Si    c    0.599500 *  0.906253 *  0.182949 *   4.00000    1.000000    
     27 Si    c    0.099176 *  0.698370 *  0.514620 *   4.00000    1.000000    
     28 Si    c    0.698433 *  0.598672 *  0.347926 *   4.00000    1.000000    
     29 Ge    c    0.409492 *  0.097775 *  0.685838 *   4.00000    1.000000    
     30 Si    c    0.892957 *  0.299508 *  0.010312 *   4.00000    1.000000    
     31 Si    c    0.396745 *  0.300912 *  0.478344 *   4.00000    1.000000    
     32 Si    c    0.889959 *  0.603951 *  0.142432 *   4.00000    1.000000    
     33 Si    c    0.695074 *  0.098875 *  0.810197 *   4.00000    1.000000    
     34 Si    c    0.593929 *  0.698303 *  0.979004 *   4.00000    1.000000    
     35 Si    c    0.100203 *  0.393161 *  0.644209 *   4.00000    1.000000    
     36 Si    c    0.299770 *  0.898372 *  0.313550 *   4.00000    1.000000    
     37 Ge    c    0.261512 *  0.361199 *  0.943399 *   4.00000    1.000000    
     38 Si    c    0.658440 *  0.908215 *  0.283691 *   4.00000    1.000000    
     39 Si    c    0.101826 *  0.753841 *  0.615456 *   4.00000    1.000000    
     40 Si    c    0.748938 *  0.659467 *  0.448480 *   4.00000    1.000000    
     41 Si    c    0.326558 *  0.088115 *  0.781309 *   4.00000    1.000000    
     42 Si    c    0.902564 *  0.253097 *  0.113451 *   4.00000    1.000000    
     43 Si    c    0.340518 *  0.248777 *  0.377378 *   4.00000    1.000000    
     44 Si    c    0.893549 *  0.663289 *  0.040070 *   4.00000    1.000000    
     45 Si    c    0.748260 *  0.091874 *  0.708659 *   4.00000    1.000000    
     46 Si    c    0.655324 *  0.749829 *  0.877096 *   4.00000    1.000000    
     47 Si    c    0.087579 *  0.336163 *  0.543433 *   4.00000    1.000000    
     48 Si    c    0.246438 *  0.911117 *  0.213089 *   4.00000    1.000000    
     49 Si    c    0.978756 *  0.130321 *  0.962177 *   4.00000    1.000000    
     50 Si    c    0.876725 *  0.846159 *  0.297066 *   4.00000    1.000000    
     51 Si    c    0.159479 *  0.033220 *  0.631046 *   4.00000    1.000000    
     52 Si    c    0.029652 *  0.877629 *  0.463765 *   4.00000    1.000000    
     53 Si    c    0.113451 *  0.149330 *  0.795521 *   4.00000    1.000000    
     54 Si    c    0.845602 *  0.976068 *  0.130439 *   4.00000    1.000000    
     55 Si    c    0.121757 *  0.967931 *  0.362742 *   4.00000    1.000000    
     56 Si    c    0.845067 *  0.887813 *  0.028586 *   4.00000    1.000000    
     57 Si    c    0.026302 *  0.143553 *  0.693810 *   4.00000    1.000000    
     58 Si    c    0.873881 *  0.031098 *  0.862396 *   4.00000    1.000000    
     59 Si    c    0.149718 *  0.119664 *  0.529575 *   4.00000    1.000000    
     60 Si    c    0.966747 *  0.852520 *  0.195364 *   4.00000    1.000000    
     61 O2    c    0.922592 *  0.009465 *  0.996722 *   0.87073    1.000000    
     62 O2    c    0.001655 *  0.926717 *  0.328742 *   0.87073    1.000000    
     63 O2    c    0.063950 *  0.062179 *  0.661180 *   0.87073    1.000000    
     64 O2    c    0.071892 *  0.999139 *  0.496049 *   0.87073    1.000000    
     65 O2    c    0.991239 *  0.074969 *  0.828175 *   0.87073    1.000000    
     66 O2    c    0.929511 *  0.936931 *  0.162800 *   0.87073    1.000000    
     67 O2    c    0.338058 *  0.572774 *  0.327716 *   0.87073    1.000000    
     68 O2    c    0.426900 *  0.752498 *  0.661781 *   0.87073    1.000000    
     69 O2    c    0.229524 *  0.671695 *  0.994798 *   0.87073    1.000000    
     70 O2    c    0.653184 *  0.421840 *  0.829473 *   0.87073    1.000000    
     71 O2    c    0.577507 *  0.241081 *  0.170904 *   0.87073    1.000000    
     72 O2    c    0.760260 *  0.341062 *  0.498502 *   0.87073    1.000000    
     73 O3    c    0.572198 *  0.336069 *  0.996274 *   1.33043    1.000000    
     74 O2    c    0.779661 *  0.436300 *  0.665420 *   0.87073    1.000000    
     75 O2    c    0.661089 *  0.234363 *  0.334104 *   0.87073    1.000000    
     76 O2    c    0.419555 *  0.656972 *  0.494139 *   0.87073    1.000000    
     77 O2    c    0.232161 *  0.585293 *  0.161570 *   0.87073    1.000000    
     78 O2    c    0.334707 *  0.763171 *  0.827384 *   0.87073    1.000000    
     79 O3    c    0.128012 *  0.214936 *  0.966017 *   1.33043    1.000000    
     80 O2    c    0.784899 *  0.907553 *  0.303753 *   0.87073    1.000000    
     81 O2    c    0.104525 *  0.878673 *  0.636513 *   0.87073    1.000000    
     82 O2    c    0.874867 *  0.786518 *  0.468887 *   0.87073    1.000000    
     83 O2    c    0.206052 *  0.089640 *  0.806069 *   0.87073    1.000000    
     84 O2    c    0.906892 *  0.130464 *  0.134858 *   0.87073    1.000000    
     85 O2    c    0.214398 *  0.121774 *  0.356819 *   0.87073    1.000000    
     86 O2    c    0.911603 *  0.801005 *  0.023575 *   0.87073    1.000000    
     87 O2    c    0.871943 *  0.089524 *  0.688452 *   0.87073    1.000000    
     88 O2    c    0.779864 *  0.875996 *  0.856819 *   0.87073    1.000000    
     89 O2    c    0.085095 *  0.209321 *  0.523346 *   0.87073    1.000000    
     90 O2    c    0.121623 *  0.914069 *  0.192393 *   0.87073    1.000000    
     91 O2    c    0.923742 *  0.860465 *  0.245723 *   0.87073    1.000000    
     92 O2    c    0.137077 *  0.065582 *  0.579653 *   0.87073    1.000000    
     93 O2    c    0.926339 *  0.066368 *  0.912686 *   0.87073    1.000000    
     94 O2    c    0.057709 *  0.122647 *  0.744909 *   0.87073    1.000000    
     95 O2    c    0.853928 *  0.936212 *  0.079744 *   0.87073    1.000000    
     96 O2    c    0.067653 *  0.929892 *  0.413028 *   0.87073    1.000000    
     97 O2    c    0.910383 *  0.214570 *  0.972140 *   0.87073    1.000000    
     98 O2    c    0.796651 *  0.694503 *  0.309248 *   0.87073    1.000000    
     99 O3    c    0.306073 *  0.109137 *  0.643779 *   1.33043    1.000000    
    100 O2    c    0.099039 *  0.795523 *  0.476010 *   0.87073    1.000000    
    101 O2    c    0.198736 *  0.304357 *  0.802131 *   0.87073    1.000000    
    102 O2    c    0.694745 *  0.905415 *  0.144247 *   0.87073    1.000000    
    103 O2    c    0.202552 *  0.896515 *  0.351987 *   0.87073    1.000000    
    104 O2    c    0.691667 *  0.799976 *  0.016406 *   0.87073    1.000000    
    105 O2    c    0.101177 *  0.296169 *  0.682647 *   0.87073    1.000000    
    106 O2    c    0.788246 *  0.097598 *  0.849939 *   0.87073    1.000000    
    107 O2    c    0.301631 *  0.204637 *  0.517108 *   0.87073    1.000000    
    108 O2    c    0.895530 *  0.702251 *  0.181167 *   0.87073    1.000000    
    109 O2    c    0.317954 *  0.643115 *  0.245517 *   0.87073    1.000000    
    110 O2    c    0.359432 *  0.672170 *  0.577852 *   0.87073    1.000000    
    111 O2    c    0.313291 *  0.677548 *  0.910962 *   0.87073    1.000000    
    112 O2    c    0.673267 *  0.356144 *  0.745730 *   0.87073    1.000000    
    113 O3    c    0.611943 *  0.303764 *  0.085224 *   1.33043    1.000000    
    114 O2    c    0.679313 *  0.323444 *  0.415158 *   0.87073    1.000000    
    115 O3    c    0.372747 *  0.324892 *  0.967777 *   1.33043    1.000000    
    116 O2    c    0.669897 *  0.039566 *  0.303342 *   0.87073    1.000000    
    117 O2    c    0.968684 *  0.631077 *  0.633347 *   0.87073    1.000000    
    118 O2    c    0.626144 *  0.669901 *  0.465575 *   0.87073    1.000000    
    119 O2    c    0.322228 *  0.955534 *  0.797500 *   0.87073    1.000000    
    120 O2    c    0.034347 *  0.380093 *  0.130655 *   0.87073    1.000000    
    121 O2    c    0.329824 *  0.369829 *  0.357962 *   0.87073    1.000000    
    122 O2    c    0.028615 *  0.671745 *  0.024726 *   0.87073    1.000000    
    123 O2    c    0.623575 *  0.958416 *  0.692390 *   0.87073    1.000000    
    124 O2    c    0.659914 *  0.625733 *  0.858741 *   0.87073    1.000000    
    125 O2    c    0.954920 *  0.328390 *  0.525685 *   0.87073    1.000000    
    126 O2    c    0.370741 *  0.043527 *  0.195837 *   0.87073    1.000000    
    127 O3    c    0.755996 *  0.285997 *  0.002265 *   1.33043    1.000000    
    128 O2    c    0.697982 *  0.464417 *  0.341053 *   0.87073    1.000000    
    129 O3    c    0.544040 *  0.248842 *  0.669493 *   1.33043    1.000000    
    130 O2    c    0.230168 *  0.693386 *  0.506077 *   0.87073    1.000000    
    131 O2    c    0.296402 *  0.534989 *  0.837884 *   0.87073    1.000000    
    132 O2    c    0.462566 *  0.774188 *  0.173912 *   0.87073    1.000000    
    133 O2    c    0.298899 *  0.763585 *  0.319220 *   0.87073    1.000000    
    134 O2    c    0.459594 *  0.700009 *  0.983285 *   0.87073    1.000000    
    135 O2    c    0.236649 *  0.526232 *  0.650808 *   0.87073    1.000000    
    136 O2    c    0.689457 *  0.229387 *  0.816163 *   0.87073    1.000000    
    137 O2    c    0.532235 *  0.303661 *  0.486426 *   0.87073    1.000000    
    138 O2    c    0.759137 *  0.467603 *  0.150703 *   0.87073    1.000000    
    139 O3    c    0.767639 *  0.548098 *  0.019129 *   1.33043    1.000000    
    140 O2    c    0.466047 *  0.247096 *  0.358645 *   0.87073    1.000000    
    141 O2    c    0.743683 *  0.216110 *  0.690958 *   0.87073    1.000000    
    142 O2    c    0.214434 *  0.460801 *  0.523267 *   0.87073    1.000000    
    143 O2    c    0.524650 *  0.744357 *  0.859740 *   0.87073    1.000000    
    144 O2    c    0.242348 *  0.784465 *  0.192532 *   0.87073    1.000000    
    145 O2    c    0.531570 *  0.780820 *  0.301928 *   0.87073    1.000000    
    146 O3    c    0.230950 *  0.474746 *  0.970289 *   1.33043    1.000000    
    147 O2    c    0.224763 *  0.745900 *  0.634198 *   0.87073    1.000000    
    148 O2    c    0.460353 *  0.213598 *  0.799076 *   0.87073    1.000000    
    149 O2    c    0.750014 *  0.535575 *  0.469284 *   0.87073    1.000000    
    150 O2    c    0.778285 *  0.255050 *  0.132766 *   0.87073    1.000000    
    151 O3    c    0.208683 *  0.315517 *  0.886359 *   1.33043    1.000000    
    152 O2    c    0.674496 *  0.908248 *  0.229268 *   0.87073    1.000000    
    153 O2    c    0.101777 *  0.771124 *  0.560958 *   0.87073    1.000000    
    154 O2    c    0.769647 *  0.675370 *  0.394131 *   0.87073    1.000000    
    155 O3    c    0.300490 *  0.090588 *  0.728753 *   1.33043    1.000000    
    156 O2    c    0.901398 *  0.238260 *  0.059280 *   0.87073    1.000000    
    157 O2    c    0.322614 *  0.230213 *  0.431652 *   0.87073    1.000000    
    158 O2    c    0.888958 *  0.671423 *  0.095464 *   0.87073    1.000000    
    159 O2    c    0.762220 *  0.096957 *  0.763397 *   0.87073    1.000000    
    160 O2    c    0.665576 *  0.758821 *  0.931390 *   0.87073    1.000000    
    161 O2    c    0.090681 *  0.317519 *  0.597731 *   0.87073    1.000000    
    162 O2    c    0.228867 *  0.906607 *  0.267445 *   0.87073    1.000000    
    163 O2    c    0.571549 *  0.556553 *  0.987325 *   0.87073    1.000000    
    164 O2    c    0.441003 *  0.021365 *  0.323916 *   0.87073    1.000000    
    165 O2    c    0.978265 *  0.412152 *  0.654105 *   0.87073    1.000000    
    166 O2    c    0.411857 *  0.440767 *  0.485744 *   0.87073    1.000000    
    167 O2    c    0.552121 *  0.975594 *  0.814562 *   0.87073    1.000000    
    168 O2    c    0.014357 *  0.586202 *  0.148212 *   0.87073    1.000000    
    169 O2    c    0.558755 *  0.584614 *  0.337948 *   0.87073    1.000000    
    170 O2    c    0.011414 *  0.447871 *  0.004898 *   0.87073    1.000000    
    171 O3    c    0.406662 *  0.957429 *  0.665824 *   1.33043    1.000000    
    172 O2    c    0.433483 *  0.414530 *  0.839194 *   0.87073    1.000000    
    173 O2    c    0.971163 *  0.559081 *  0.506927 *   0.87073    1.000000    
    174 O2    c    0.587417 *  0.033082 *  0.175651 *   0.87073    1.000000    
    175 O2    c    0.581145 *  0.162944 *  0.251431 *   0.87073    1.000000    
    176 O2    c    0.838472 *  0.417700 *  0.581235 *   0.87073    1.000000    
    177 O2    c    0.577611 *  0.422969 *  0.913120 *   0.87073    1.000000    
    178 O2    c    0.409357 *  0.836062 *  0.743111 *   0.87073    1.000000    
    179 O2    c    0.150507 *  0.585157 *  0.077409 *   0.87073    1.000000    
    180 O2    c    0.416336 *  0.580436 *  0.411105 *   0.87073    1.000000    
    181 F     c    0.448206 *  0.901961 *  0.247290 *   0.56000    1.000000    
    182 F     c    0.099220 *  0.543401 *  0.579471 *   0.56000    1.000000    
    183 F     c    0.408520 *  0.514596 *  0.916404 *   0.56000    1.000000    
    184 F     c    0.514745 *  0.095737 *  0.734612 *   0.56000    1.000000    
    185 F     c    0.850409 *  0.437899 *  0.069898 *   0.56000    1.000000    
    186 F     c    0.548868 *  0.451597 *  0.412073 *   0.56000    1.000000    
    187 O2    s    0.919447 *  0.008059 *  0.996783 *  -2.87073    1.000000    
    188 O2    s    0.000966 *  0.922219 *  0.328962 *  -2.87073    1.000000    
    189 O2    s    0.069479 *  0.068382 *  0.661781 *  -2.87073    1.000000    
    190 O2    s    0.075746 *  0.998728 *  0.496104 *  -2.87073    1.000000    
    191 O2    s    0.991451 *  0.078244 *  0.828429 *  -2.87073    1.000000    
    192 O2    s    0.924427 *  0.931951 *  0.162842 *  -2.87073    1.000000    
    193 O2    s    0.349873 *  0.580974 *  0.327810 *  -2.87073    1.000000    
    194 O2    s    0.418457 *  0.757169 *  0.661415 *  -2.87073    1.000000    
    195 O2    s    0.224719 *  0.659128 *  0.994817 *  -2.87073    1.000000    
    196 O2    s    0.641436 *  0.414207 *  0.829263 *  -2.87073    1.000000    
    197 O2    s    0.583506 *  0.235449 *  0.169978 *  -2.87073    1.000000    
    198 O2    s    0.764816 *  0.353008 *  0.498286 *  -2.87073    1.000000    
    199 O3    s    0.577359 *  0.347577 *  0.995976 *  -3.33043    1.000000    
    200 O2    s    0.781484 *  0.426839 *  0.664941 *  -2.87073    1.000000    
    201 O2    s    0.649064 *  0.230253 *  0.333854 *  -2.87073    1.000000    
    202 O2    s    0.412204 *  0.644995 *  0.494291 *  -2.87073    1.000000    
    203 O2    s    0.227657 *  0.592137 *  0.161601 *  -2.87073    1.000000    
    204 O2    s    0.345901 *  0.766892 *  0.827417 *  -2.87073    1.000000    
    205 O3    s    0.119217 *  0.214560 *  0.964154 *  -3.33043    1.000000    
    206 O2    s    0.781439 *  0.901101 *  0.300974 *  -2.87073    1.000000    
    207 O2    s    0.109707 *  0.880671 *  0.633730 *  -2.87073    1.000000    
    208 O2    s    0.878219 *  0.782962 *  0.466249 *  -2.87073    1.000000    
    209 O2    s    0.208611 *  0.095650 *  0.802540 *  -2.87073    1.000000    
    210 O2    s    0.900019 *  0.126920 *  0.132218 *  -2.87073    1.000000    
    211 O2    s    0.217582 *  0.118515 *  0.359552 *  -2.87073    1.000000    
    212 O2    s    0.902518 *  0.796436 *  0.025745 *  -2.87073    1.000000    
    213 O2    s    0.874691 *  0.095389 *  0.691155 *  -2.87073    1.000000    
    214 O2    s    0.776146 *  0.878385 *  0.859542 *  -2.87073    1.000000    
    215 O2    s    0.092080 *  0.213079 *  0.526050 *  -2.87073    1.000000    
    216 O2    s    0.118001 *  0.907181 *  0.194847 *  -2.87073    1.000000    
    217 O2    s    0.923338 *  0.857952 *  0.245762 *  -2.87073    1.000000    
    218 O2    s    0.140886 *  0.068395 *  0.579289 *  -2.87073    1.000000    
    219 O2    s    0.925544 *  0.068830 *  0.911876 *  -2.87073    1.000000    
    220 O2    s    0.060460 *  0.128006 *  0.744925 *  -2.87073    1.000000    
    221 O2    s    0.851968 *  0.935429 *  0.079907 *  -2.87073    1.000000    
    222 O2    s    0.069553 *  0.928354 *  0.412976 *  -2.87073    1.000000    
    223 O2    s    0.915587 *  0.214986 *  0.975215 *  -2.87073    1.000000    
    224 O2    s    0.795242 *  0.700937 *  0.311871 *  -2.87073    1.000000    
    225 O3    s    0.296341 *  0.099794 *  0.645105 *  -3.33043    1.000000    
    226 O2    s    0.091704 *  0.794317 *  0.478642 *  -2.87073    1.000000    
    227 O2    s    0.198934 *  0.297488 *  0.805516 *  -2.87073    1.000000    
    228 O2    s    0.700955 *  0.912987 *  0.146767 *  -2.87073    1.000000    
    229 O2    s    0.204033 *  0.904176 *  0.349179 *  -2.87073    1.000000    
    230 O2    s    0.697083 *  0.798285 *  0.013726 *  -2.87073    1.000000    
    231 O2    s    0.093195 *  0.290021 *  0.679888 *  -2.87073    1.000000    
    232 O2    s    0.787114 *  0.090864 *  0.846984 *  -2.87073    1.000000    
    233 O2    s    0.295572 *  0.205750 *  0.514368 *  -2.87073    1.000000    
    234 O2    s    0.902508 *  0.708059 *  0.178662 *  -2.87073    1.000000    
    235 O2    s    0.323757 *  0.654917 *  0.245559 *  -2.87073    1.000000    
    236 O2    s    0.347412 *  0.666219 *  0.577892 *  -2.87073    1.000000    
    237 O2    s    0.318789 *  0.672542 *  0.910859 *  -2.87073    1.000000    
    238 O2    s    0.667992 *  0.345979 *  0.746006 *  -2.87073    1.000000    
    239 O3    s    0.625122 *  0.310012 *  0.086539 *  -3.33043    1.000000    
    240 O2    s    0.673180 *  0.329102 *  0.415030 *  -2.87073    1.000000    
    241 O3    s    0.379509 *  0.336746 *  0.965641 *  -3.33043    1.000000    
    242 O2    s    0.659760 *  0.032962 *  0.301133 *  -2.87073    1.000000    
    243 O2    s    0.975333 *  0.627485 *  0.631218 *  -2.87073    1.000000    
    244 O2    s    0.622805 *  0.659641 *  0.463430 *  -2.87073    1.000000    
    245 O2    s    0.331675 *  0.961484 *  0.795476 *  -2.87073    1.000000    
    246 O2    s    0.028226 *  0.383225 *  0.128677 *  -2.87073    1.000000    
    247 O2    s    0.339892 *  0.373308 *  0.360273 *  -2.87073    1.000000    
    248 O2    s    0.022906 *  0.662097 *  0.026383 *  -2.87073    1.000000    
    249 O2    s    0.620928 *  0.964952 *  0.694061 *  -2.87073    1.000000    
    250 O2    s    0.650816 *  0.622912 *  0.861008 *  -2.87073    1.000000    
    251 O2    s    0.962044 *  0.338375 *  0.528014 *  -2.87073    1.000000    
    252 O2    s    0.373674 *  0.036447 *  0.198169 *  -2.87073    1.000000    
    253 O3    s    0.766813 *  0.293312 *  0.005305 *  -3.33043    1.000000    
    254 O2    s    0.690330 *  0.463896 *  0.344207 *  -2.87073    1.000000    
    255 O3    s    0.549003 *  0.244636 *  0.673233 *  -3.33043    1.000000    
    256 O2    s    0.223360 *  0.686025 *  0.509232 *  -2.87073    1.000000    
    257 O2    s    0.303257 *  0.535813 *  0.840911 *  -2.87073    1.000000    
    258 O2    s    0.461950 *  0.780755 *  0.177158 *  -2.87073    1.000000    
    259 O2    s    0.306761 *  0.770967 *  0.316257 *  -2.87073    1.000000    
    260 O2    s    0.458585 *  0.692464 *  0.980769 *  -2.87073    1.000000    
    261 O2    s    0.229025 *  0.526869 *  0.647735 *  -2.87073    1.000000    
    262 O2    s    0.682488 *  0.222854 *  0.813399 *  -2.87073    1.000000    
    263 O2    s    0.532917 *  0.311255 *  0.483329 *  -2.87073    1.000000    
    264 O2    s    0.765816 *  0.467551 *  0.147987 *  -2.87073    1.000000    
    265 O3    s    0.777701 *  0.550870 *  0.022280 *  -3.33043    1.000000    
    266 O2    s    0.468833 *  0.255194 *  0.361253 *  -2.87073    1.000000    
    267 O2    s    0.737829 *  0.211563 *  0.693184 *  -2.87073    1.000000    
    268 O2    s    0.209469 *  0.463748 *  0.525858 *  -2.87073    1.000000    
    269 O2    s    0.522318 *  0.737758 *  0.861744 *  -2.87073    1.000000    
    270 O2    s    0.250806 *  0.789739 *  0.195081 *  -2.87073    1.000000    
    271 O2    s    0.528988 *  0.786105 *  0.299382 *  -2.87073    1.000000    
    272 O3    s    0.241479 *  0.482005 *  0.967664 *  -3.33043    1.000000    
    273 O2    s    0.219515 *  0.738555 *  0.631587 *  -2.87073    1.000000    
    274 O2    s    0.463372 *  0.210114 *  0.796907 *  -2.87073    1.000000    
    275 O2    s    0.742090 *  0.532666 *  0.466617 *  -2.87073    1.000000    
    276 O2    s    0.782596 *  0.261232 *  0.130603 *  -2.87073    1.000000    
    277 O3    s    0.220604 *  0.327009 *  0.885998 *  -3.33043    1.000000    
    278 O2    s    0.664895 *  0.908027 *  0.230131 *  -2.87073    1.000000    
    279 O2    s    0.101521 *  0.761621 *  0.561763 *  -2.87073    1.000000    
    280 O2    s    0.760004 *  0.665656 *  0.394999 *  -2.87073    1.000000    
    281 O3    s    0.310521 *  0.090765 *  0.731443 *  -3.33043    1.000000    
    282 O2    s    0.900688 *  0.245829 *  0.060397 *  -2.87073    1.000000    
    283 O2    s    0.332258 *  0.239568 *  0.430748 *  -2.87073    1.000000    
    284 O2    s    0.889430 *  0.663142 *  0.095180 *  -2.87073    1.000000    
    285 O2    s    0.753583 *  0.096645 *  0.762701 *  -2.87073    1.000000    
    286 O2    s    0.656942 *  0.751484 *  0.930404 *  -2.87073    1.000000    
    287 O2    s    0.091345 *  0.327442 *  0.596875 *  -2.87073    1.000000    
    288 O2    s    0.238074 *  0.906229 *  0.266441 *  -2.87073    1.000000    
    289 O2    s    0.569417 *  0.558444 *  0.984282 *  -2.87073    1.000000    
    290 O2    s    0.440695 *  0.017113 *  0.320466 *  -2.87073    1.000000    
    291 O2    s    0.983273 *  0.416834 *  0.650673 *  -2.87073    1.000000    
    292 O2    s    0.416431 *  0.440417 *  0.482468 *  -2.87073    1.000000    
    293 O2    s    0.552563 *  0.979737 *  0.811898 *  -2.87073    1.000000    
    294 O2    s    0.010860 *  0.582596 *  0.145516 *  -2.87073    1.000000    
    295 O2    s    0.558923 *  0.579870 *  0.341384 *  -2.87073    1.000000    
    296 O2    s    0.008977 *  0.448269 *  0.007743 *  -2.87073    1.000000    
    297 O3    s    0.413145 *  0.960033 *  0.669891 *  -3.33043    1.000000    
    298 O2    s    0.433697 *  0.418550 *  0.842058 *  -2.87073    1.000000    
    299 O2    s    0.976529 *  0.559335 *  0.510182 *  -2.87073    1.000000    
    300 O2    s    0.582370 *  0.027384 *  0.179006 *  -2.87073    1.000000    
    301 O2    s    0.575597 *  0.151740 *  0.251355 *  -2.87073    1.000000    
    302 O2    s    0.849925 *  0.423627 *  0.581101 *  -2.87073    1.000000    
    303 O2    s    0.572603 *  0.427139 *  0.912564 *  -2.87073    1.000000    
    304 O2    s    0.414591 *  0.845759 *  0.743489 *  -2.87073    1.000000    
    305 O2    s    0.140958 *  0.580417 *  0.077651 *  -2.87073    1.000000    
    306 O2    s    0.421854 *  0.574909 *  0.411153 *  -2.87073    1.000000    
    307 F     s    0.447890 *  0.901538 *  0.247157 *  -1.56000    1.000000    
    308 F     s    0.099523 *  0.543311 *  0.579508 *  -1.56000    1.000000    
    309 F     s    0.400393 *  0.506812 *  0.917650 *  -1.56000    1.000000    
    310 F     s    0.508089 *  0.095941 *  0.731674 *  -1.56000    1.000000    
    311 F     s    0.839886 *  0.433640 *  0.067607 *  -1.56000    1.000000    
    312 F     s    0.549162 *  0.451500 *  0.411959 *  -1.56000    1.000000    
--------------------------------------------------------------------------------



********************************************************************************
*  General input information                                                   *
********************************************************************************

  Species output for all configurations : 

--------------------------------------------------------------------------------
  Species    Type    Atomic    Atomic    Charge       Radii (Angs)     Library
                     Number     Mass       (e)     Cova   Ionic  VDW   Symbol
--------------------------------------------------------------------------------
    Si       Core       14      28.09   4.000000   1.200  0.000  2.100          
    O1       Core        8      16.00   1.733957   0.730  0.000  1.360          
    O1       Shell       8       0.00  -3.733957   0.730  0.000  1.360          
    O2       Core        8      16.00   0.870733   0.730  0.000  1.360          
    O2       Shell       8       0.00  -2.870733   0.730  0.000  1.360          
    O3       Core        8      16.00   1.330431   0.730  0.000  1.360          
    O3       Shell       8       0.00  -3.330431   0.730  0.000  1.360          
    F        Core        9      19.00   0.560000   0.710  0.000  1.300          
    F        Shell       9       0.00  -1.560000   0.710  0.000  1.300          
    Ge       Core       32      72.61   4.000000   1.170  0.000  1.750          
--------------------------------------------------------------------------------


  Lattice summation method               =    Ewald          (3-D)
                                         =    Parry          (2-D)
                                         =    Saunders et al (1-D)
  Accuracy factor for lattice sums       =   12.000


  Time limit = Infinity

  Maximum range for interatomic potentials =        16.000000 Angstroms

  Taper potentials to zero over   1.0000 Angstroms using polynomial

  General interatomic potentials :

--------------------------------------------------------------------------------
Atom  Types   Potential         A         B         C         D     Cutoffs(Ang)
  1     2                                                            Min    Max 
--------------------------------------------------------------------------------
Si   c O1   s Buckingham    0.132E+04 0.318      10.1      0.00     0.000 16.000
Si   c O2   s Buckingham    0.132E+04 0.318      10.1      0.00     0.000 16.000
Si   c O3   s Buckingham    0.132E+04 0.318      10.1      0.00     0.000 16.000
Ge   c O1   s Buckingham    0.150E+04 0.326      16.8      0.00     0.000 16.000
Ge   c O2   s Buckingham    0.150E+04 0.326      16.8      0.00     0.000 16.000
Ge   c O3   s Buckingham    0.150E+04 0.326      16.8      0.00     0.000 16.000
O1   s O1   s Buckingham    0.228E+05 0.149      10.9      0.00     0.000 16.000
O1   s O2   s Buckingham    0.228E+05 0.149      10.9      0.00     0.000 16.000
O1   s O3   s Buckingham    0.228E+05 0.149      10.9      0.00     0.000 16.000
O2   s O2   s Buckingham    0.228E+05 0.149      10.9      0.00     0.000 16.000
O2   s O3   s Buckingham    0.228E+05 0.149      10.9      0.00     0.000 16.000
O3   s O3   s Buckingham    0.228E+05 0.149      10.9      0.00     0.000 16.000
Si   c F    s Buckingham     977.     0.282      0.00      0.00     0.000 16.000
Ge   c F    s Buckingham     681.     0.320      0.00      0.00     0.000 16.000
F    s F    s Buckingham     540.     0.262      0.00      0.00     0.000 16.000
O1   s F    s Buckingham    0.168E+04 0.268      0.00      0.00     0.000 16.000
O2   s F    s Buckingham    0.168E+04 0.268      0.00      0.00     0.000 16.000
O3   s F    s Buckingham    0.168E+04 0.268      0.00      0.00     0.000 16.000
O2   c O2   s Spring (c-s)   76.0      0.00      0.00      0.00     0.000  0.800
O3   c O3   s Spring (c-s)   128.      0.00      0.00      0.00     0.000  0.800
O1   c O1   s Spring (c-s)   180.      0.00      0.00      0.00     0.000  0.800
F    c F    s Spring (c-s)   33.5      0.00      0.00      0.00     0.000  0.800
--------------------------------------------------------------------------------

  General Three-body potentials :

  Harmonic form:

--------------------------------------------------------------------------------
Atom    Atom    Atom           Force Constants            Theta     Cutoffs  
  1       2       3     (eVrad**-2/eVrad**-3/eVrad**-4)   (deg)  1-2  1-3  2-3
--------------------------------------------------------------------------------
Si    c O1    s O1    s  1.261        0.0000    0.0000   109.470 0.00 0.00 0.00
                                                                 1.90 1.90 3.50
Si    c O1    s O2    s  1.261        0.0000    0.0000   109.470 0.00 0.00 0.00
                                                                 1.90 1.90 3.50
Si    c O2    s O2    s  1.261        0.0000    0.0000   109.470 0.00 0.00 0.00
                                                                 1.90 1.90 3.50
--------------------------------------------------------------------------------

********************************************************************************
*  Output for configuration   1                                                *
********************************************************************************


  Components of energy : 

--------------------------------------------------------------------------------
  Interatomic potentials     =        2066.10974486 eV
  Three-body potentials      =           0.48565256 eV
  Monopole - monopole (real) =       -6613.62100206 eV
  Monopole - monopole (recip)=       -3173.53546940 eV
  Monopole - monopole (total)=       -9787.15647146 eV
  Neutralising energy        =          -6.46449227 eV
--------------------------------------------------------------------------------
  Total lattice energy       =       -7727.02556630 eV
--------------------------------------------------------------------------------
  Total lattice energy       =         -745539.8487 kJ/(mole unit cells)
--------------------------------------------------------------------------------


  Number of variables =      939

  Maximum number of calculations  =          5000
  Maximum Hessian update interval =            10
  Maximum step size               =   0.100000000
  Maximum parameter tolerance     =   0.000010000
  Maximum function  tolerance     =   0.000010000
  Maximum gradient  tolerance     =   0.001000000
  Maximum gradient  component     =   0.010000000

  Symmetry not applied to optimisation

  Cell parameters to be optimised using strains

  Newton-Raphson optimiser to be used

  BFGS hessian update to be used

  Dumpfile to be written after every cycle

  Start of bulk optimisation :

  Cycle:      0 Energy:     -7727.025566  Gnorm:      0.016792  CPU:    2.022
  ** Hessian calculated **
  Cycle:      1 Energy:     -7727.026094  Gnorm:      0.005836  CPU:    5.264
  Cycle:      2 Energy:     -7727.026182  Gnorm:      0.003758  CPU:    8.127
  Cycle:      3 Energy:     -7727.026243  Gnorm:      0.002393  CPU:   10.990
  Cycle:      4 Energy:     -7727.026304  Gnorm:      0.001515  CPU:   13.857
  Cycle:      5 Energy:     -7727.026382  Gnorm:      0.001273  CPU:   16.724
  Cycle:      6 Energy:     -7727.026680  Gnorm:      0.004091  CPU:   21.651
  Cycle:      7 Energy:     -7727.027064  Gnorm:      0.008020  CPU:   25.892
  Cycle:      8 Energy:     -7727.027562  Gnorm:      0.012670  CPU:   30.132
  Cycle:      9 Energy:     -7727.028226  Gnorm:      0.018193  CPU:   34.373
  Cycle:     10 Energy:     -7727.029125  Gnorm:      0.024176  CPU:   38.613
  ** Hessian calculated **
  Cycle:     11 Energy:     -7727.030237  Gnorm:      0.009506  CPU:   43.187
  Cycle:     12 Energy:     -7727.030442  Gnorm:      0.006057  CPU:   46.052
  Cycle:     13 Energy:     -7727.030640  Gnorm:      0.002547  CPU:   50.293
  Cycle:     14 Energy:     -7727.030758  Gnorm:      0.002366  CPU:   53.846
  Cycle:     15 Energy:     -7727.030902  Gnorm:      0.004090  CPU:   58.086
  Cycle:     16 Energy:     -7727.031095  Gnorm:      0.005776  CPU:   62.325
  Cycle:     17 Energy:     -7727.031364  Gnorm:      0.007136  CPU:   66.566
  Cycle:     18 Energy:     -7727.031744  Gnorm:      0.007834  CPU:   70.809
  Cycle:     19 Energy:     -7727.032278  Gnorm:      0.007937  CPU:   75.048
  Cycle:     20 Energy:     -7727.033007  Gnorm:      0.007074  CPU:   79.293
  ** Hessian calculated **
  Cycle:     21 Energy:     -7727.034189  Gnorm:      0.007051  CPU:   85.246
  Cycle:     22 Energy:     -7727.036189  Gnorm:      0.007011  CPU:   90.180
  Cycle:     23 Energy:     -7727.039285  Gnorm:      0.006949  CPU:   95.107
  Cycle:     24 Energy:     -7727.043935  Gnorm:      0.006854  CPU:  100.034
  Cycle:     25 Energy:     -7727.049678  Gnorm:      0.006736  CPU:  104.274
  Cycle:     26 Energy:     -7727.059228  Gnorm:      0.006533  CPU:  109.200
  Cycle:     27 Energy:     -7727.073538  Gnorm:      0.006217  CPU:  114.128
  Cycle:     28 Energy:     -7727.090609  Gnorm:      0.005818  CPU:  118.371
  Cycle:     29 Energy:     -7727.117122  Gnorm:      0.005142  CPU:  123.303
  Cycle:     30 Energy:     -7727.146434  Gnorm:      0.004306  CPU:  127.546
  ** Hessian calculated **
  Cycle:     31 Energy:     -7727.180182  Gnorm:      0.003073  CPU:  133.495
  Cycle:     32 Energy:     -7727.199593  Gnorm:      0.002413  CPU:  137.740
  Cycle:     33 Energy:     -7727.204319  Gnorm:      0.001589  CPU:  141.984
  Cycle:     34 Energy:     -7727.205508  Gnorm:      0.000912  CPU:  146.229
  Cycle:     35 Energy:     -7727.205812  Gnorm:      0.000494  CPU:  150.478
  Cycle:     36 Energy:     -7727.205889  Gnorm:      0.000258  CPU:  154.724
  Cycle:     37 Energy:     -7727.205902  Gnorm:      0.000183  CPU:  157.593
  Cycle:     38 Energy:     -7727.205909  Gnorm:      0.000129  CPU:  160.462
  Cycle:     39 Energy:     -7727.205912  Gnorm:      0.000090  CPU:  163.332
  Cycle:     40 Energy:     -7727.205913  Gnorm:      0.000063  CPU:  166.201
  ** Hessian calculated **


  **** Optimisation achieved ****


  Final energy =   -7727.20591337 eV
  Final Gnorm  =       0.00003064

  Components of energy : 

--------------------------------------------------------------------------------
  Interatomic potentials     =        2066.82892217 eV
  Three-body potentials      =           0.48868241 eV
  Monopole - monopole (real) =       -6615.65363174 eV
  Monopole - monopole (recip)=       -3172.40768900 eV
  Monopole - monopole (total)=       -9788.06132073 eV
  Neutralising energy        =          -6.46219722 eV
--------------------------------------------------------------------------------
  Total lattice energy       =       -7727.20591337 eV
--------------------------------------------------------------------------------
  Total lattice energy       =         -745557.2495 kJ/(mole unit cells)
--------------------------------------------------------------------------------

  Final fractional coordinates of atoms :

--------------------------------------------------------------------------------
   No.  Atomic        x           y          z          Radius
        Label       (Frac)      (Frac)     (Frac)       (Angs) 
--------------------------------------------------------------------------------
     1  Ge    c     0.699600    0.375700    0.033890    0.000000
     2  Si    c     0.590587    0.299421    0.364833    0.000000
     3  Si    c     0.649407    0.285098    0.693490    0.000000
     4  Si    c     0.266351    0.592807    0.527586    0.000000
     5  Si    c     0.338858    0.649642    0.860839    0.000000
     6  Si    c     0.293082    0.688394    0.196798    0.000000
     7  Si    c     0.345483    0.677489    0.297197    0.000000
     8  Si    c     0.288748    0.603136    0.963915    0.000000
     9  Si    c     0.272598    0.644657    0.628141    0.000000
    10  Si    c     0.582848    0.274368    0.795403    0.000000
    11  Si    c     0.644276    0.355354    0.465411    0.000000
    12  Si    c     0.663119    0.302662    0.131834    0.000000
    13  Si    c     0.507497    0.391485    0.966639    0.000000
    14  Si    c     0.552796    0.088238    0.301702    0.000000
    15  Si    c     0.869133    0.451976    0.631480    0.000000
    16  Si    c     0.437018    0.556571    0.462496    0.000000
    17  Si    c     0.375980    0.858839    0.793622    0.000000
    18  Si    c     0.084017    0.518720    0.129931    0.000000
    19  Si    c     0.384855    0.502633    0.360863    0.000000
    20  Si    c     0.086103    0.578679    0.027163    0.000000
    21  Si    c     0.434549    0.856944    0.690930    0.000000
    22  Si    c     0.546375    0.443436    0.861626    0.000000
    23  Si    c     0.857502    0.394339    0.530304    0.000000
    24  Si    c     0.500587    0.094633    0.200088    0.000000
    25  Si    c     0.259616    0.368904    0.844084    0.000000
    26  Si    c     0.572635    0.888895    0.183439    0.000000
    27  Si    c     0.068105    0.674940    0.514847    0.000000
    28  Si    c     0.666194    0.575691    0.347820    0.000000
    29  Ge    c     0.378313    0.073413    0.685466    0.000000
    30  Si    c     0.881494    0.288842    0.009554    0.000000
    31  Si    c     0.364434    0.276053    0.478517    0.000000
    32  Si    c     0.868848    0.587898    0.143388    0.000000
    33  Si    c     0.662481    0.071795    0.809983    0.000000
    34  Si    c     0.571362    0.675177    0.978955    0.000000
    35  Si    c     0.069994    0.369057    0.644269    0.000000
    36  Si    c     0.270045    0.877748    0.313750    0.000000
    37  Ge    c     0.242019    0.338823    0.944354    0.000000
    38  Si    c     0.628538    0.887758    0.284398    0.000000
    39  Si    c     0.072021    0.730142    0.615704    0.000000
    40  Si    c     0.716629    0.635463    0.448504    0.000000
    41  Si    c     0.294103    0.060672    0.781011    0.000000
    42  Si    c     0.881419    0.237193    0.113161    0.000000
    43  Si    c     0.308564    0.225188    0.377469    0.000000
    44  Si    c     0.884292    0.659603    0.041244    0.000000
    45  Si    c     0.716722    0.067189    0.708395    0.000000
    46  Si    c     0.626247    0.723875    0.876538    0.000000
    47  Si    c     0.056066    0.312262    0.543423    0.000000
    48  Si    c     0.219798    0.893699    0.213012    0.000000
    49  Si    c     0.957152    0.112733    0.961135    0.000000
    50  Si    c     0.845576    0.824039    0.297213    0.000000
    51  Si    c     0.127833    0.008697    0.631198    0.000000
    52  Si    c     0.997107    0.853757    0.463901    0.000000
    53  Si    c     0.082008    0.122828    0.795592    0.000000
    54  Si    c     0.818542    0.958308    0.130711    0.000000
    55  Si    c     0.090479    0.944889    0.362849    0.000000
    56  Si    c     0.820732    0.872421    0.028848    0.000000
    57  Si    c     0.994560    0.118312    0.693821    0.000000
    58  Si    c     0.843055    0.006344    0.862594    0.000000
    59  Si    c     0.116735    0.094856    0.529573    0.000000
    60  Si    c     0.939729    0.833996    0.195850    0.000000
    61  O2    c     0.892627    0.995017    0.997105    0.000000
    62  O2    c     0.970375    0.902805    0.328877    0.000000
    63  O2    c     0.031803    0.036497    0.661421    0.000000
    64  O2    c     0.038301    0.974900    0.496054    0.000000
    65  O2    c     0.960183    0.049728    0.828419    0.000000
    66  O2    c     0.901620    0.917000    0.162676    0.000000
    67  O2    c     0.307019    0.551030    0.328157    0.000000
    68  O2    c     0.396708    0.728611    0.661448    0.000000
    69  O2    c     0.213641    0.655226    0.995739    0.000000
    70  O2    c     0.621538    0.394649    0.828965    0.000000
    71  O2    c     0.553410    0.223805    0.169586    0.000000
    72  O2    c     0.728641    0.317758    0.498917    0.000000
    73  O3    c     0.566786    0.326229    0.996424    0.000000
    74  O2    c     0.749352    0.412420    0.665560    0.000000
    75  O2    c     0.629842    0.212707    0.334203    0.000000
    76  O2    c     0.387494    0.632389    0.494082    0.000000
    77  O2    c     0.208349    0.567502    0.162957    0.000000
    78  O2    c     0.303795    0.735262    0.827200    0.000000
    79  O3    c     0.106405    0.189428    0.965196    0.000000
    80  O2    c     0.754525    0.885977    0.304391    0.000000
    81  O2    c     0.074897    0.854585    0.636870    0.000000
    82  O2    c     0.842461    0.762164    0.468791    0.000000
    83  O2    c     0.173202    0.061274    0.805740    0.000000
    84  O2    c     0.882640    0.112892    0.134749    0.000000
    85  O2    c     0.182608    0.098727    0.356873    0.000000
    86  O2    c     0.898855    0.795924    0.025228    0.000000
    87  O2    c     0.840638    0.065413    0.688281    0.000000
    88  O2    c     0.750457    0.851456    0.856775    0.000000
    89  O2    c     0.052978    0.185376    0.523385    0.000000
    90  O2    c     0.094699    0.897323    0.192857    0.000000
    91  O2    c     0.893629    0.840408    0.245860    0.000000
    92  O2    c     0.103563    0.039995    0.579721    0.000000
    93  O2    c     0.896658    0.044654    0.912780    0.000000
    94  O2    c     0.025409    0.097162    0.745079    0.000000
    95  O2    c     0.822985    0.917790    0.079868    0.000000
    96  O2    c     0.035819    0.906342    0.413101    0.000000
    97  O2    c     0.900513    0.207769    0.970658    0.000000
    98  O2    c     0.764344    0.672039    0.309064    0.000000
    99  O3    c     0.274426    0.085656    0.643622    0.000000
   100  O2    c     0.067127    0.772324    0.476273    0.000000
   101  O2    c     0.168077    0.277310    0.802691    0.000000
   102  O2    c     0.668482    0.889267    0.144931    0.000000
   103  O2    c     0.172137    0.874592    0.352090    0.000000
   104  O2    c     0.669753    0.777258    0.015938    0.000000
   105  O2    c     0.070488    0.270993    0.682600    0.000000
   106  O2    c     0.755858    0.071008    0.849857    0.000000
   107  O2    c     0.268600    0.179082    0.517139    0.000000
   108  O2    c     0.871367    0.683835    0.182208    0.000000
   109  O2    c     0.290284    0.624750    0.246206    0.000000
   110  O2    c     0.328632    0.647961    0.577669    0.000000
   111  O2    c     0.285456    0.649752    0.911300    0.000000
   112  O2    c     0.640452    0.329856    0.745418    0.000000
   113  O3    c     0.601170    0.298397    0.083748    0.000000
   114  O2    c     0.646945    0.299620    0.415438    0.000000
   115  O3    c     0.353118    0.302336    0.969546    0.000000
   116  O2    c     0.639842    0.019130    0.303590    0.000000
   117  O2    c     0.938932    0.607290    0.633574    0.000000
   118  O2    c     0.593682    0.645119    0.465656    0.000000
   119  O2    c     0.290547    0.928343    0.797410    0.000000
   120  O2    c     0.011461    0.362979    0.131761    0.000000
   121  O2    c     0.297683    0.346364    0.357969    0.000000
   122  O2    c     0.019035    0.666791    0.026522    0.000000
   123  O2    c     0.592309    0.934144    0.692118    0.000000
   124  O2    c     0.630128    0.600061    0.857767    0.000000
   125  O2    c     0.923714    0.305350    0.525829    0.000000
   126  O2    c     0.343980    0.026301    0.195401    0.000000
   127  O3    c     0.746606    0.279388    0.002213    0.000000
   128  O2    c     0.665840    0.441619    0.341171    0.000000
   129  O3    c     0.512797    0.224775    0.669020    0.000000
   130  O2    c     0.198672    0.669723    0.505896    0.000000
   131  O2    c     0.266381    0.507604    0.838323    0.000000
   132  O2    c     0.436133    0.757362    0.174324    0.000000
   133  O2    c     0.269024    0.742934    0.319706    0.000000
   134  O2    c     0.437320    0.676906    0.982988    0.000000
   135  O2    c     0.206614    0.501611    0.650823    0.000000
   136  O2    c     0.655377    0.201227    0.815956    0.000000
   137  O2    c     0.499934    0.278894    0.486732    0.000000
   138  O2    c     0.738728    0.451249    0.151125    0.000000
   139  O3    c     0.761339    0.544222    0.018651    0.000000
   140  O2    c     0.434087    0.223782    0.358752    0.000000
   141  O2    c     0.712080    0.191538    0.690583    0.000000
   142  O2    c     0.182731    0.436810    0.523115    0.000000
   143  O2    c     0.494798    0.717430    0.859588    0.000000
   144  O2    c     0.215879    0.767398    0.192463    0.000000
   145  O2    c     0.501812    0.760729    0.302989    0.000000
   146  O3    c     0.209879    0.451093    0.972022    0.000000
   147  O2    c     0.194713    0.721646    0.634373    0.000000
   148  O2    c     0.427284    0.186465    0.798664    0.000000
   149  O2    c     0.717415    0.511199    0.469321    0.000000
   150  O2    c     0.755948    0.238462    0.131297    0.000000
   151  O3    c     0.182937    0.290101    0.887648    0.000000
   152  O2    c     0.645768    0.888819    0.230001    0.000000
   153  O2    c     0.071788    0.747864    0.561128    0.000000
   154  O2    c     0.736757    0.651690    0.394080    0.000000
   155  O3    c     0.268313    0.063919    0.728410    0.000000
   156  O2    c     0.887339    0.226719    0.058913    0.000000
   157  O2    c     0.290582    0.205946    0.431791    0.000000
   158  O2    c     0.871287    0.659056    0.096495    0.000000
   159  O2    c     0.730246    0.071403    0.763176    0.000000
   160  O2    c     0.640014    0.733602    0.930736    0.000000
   161  O2    c     0.059697    0.293677    0.597780    0.000000
   162  O2    c     0.200954    0.887679    0.267364    0.000000
   163  O2    c     0.549420    0.534156    0.987744    0.000000
   164  O2    c     0.411054    0.000428    0.323930    0.000000
   165  O2    c     0.948733    0.388750    0.654346    0.000000
   166  O2    c     0.379729    0.415792    0.486017    0.000000
   167  O2    c     0.520198    0.947757    0.814233    0.000000
   168  O2    c     0.992885    0.570000    0.149302    0.000000
   169  O2    c     0.526354    0.560981    0.337865    0.000000
   170  O2    c     0.995400    0.439438    0.004916    0.000000
   171  O3    c     0.376221    0.933848    0.665259    0.000000
   172  O2    c     0.403668    0.387938    0.839398    0.000000
   173  O2    c     0.939895    0.536130    0.507211    0.000000
   174  O2    c     0.560861    0.015839    0.175925    0.000000
   175  O2    c     0.551920    0.143771    0.251251    0.000000
   176  O2    c     0.808612    0.394585    0.581559    0.000000
   177  O2    c     0.550890    0.398863    0.912949    0.000000
   178  O2    c     0.377594    0.810656    0.742657    0.000000
   179  O2    c     0.131187    0.569650    0.078784    0.000000
   180  O2    c     0.384067    0.555800    0.411288    0.000000
   181  F     c     0.419324    0.882232    0.247433    0.000000
   182  F     c     0.070230    0.520787    0.579479    0.000000
   183  F     c     0.383217    0.488798    0.916846    0.000000
   184  F     c     0.482967    0.070592    0.734218    0.000000
   185  F     c     0.842770    0.431896    0.070781    0.000000
   186  F     c     0.516030    0.426864    0.412128    0.000000
   187  O2    s     0.890916    0.992953    0.997046    0.000000
   188  O2    s     0.969714    0.898605    0.329100    0.000000
   189  O2    s     0.037428    0.042865    0.661979    0.000000
   190  O2    s     0.042320    0.974467    0.496120    0.000000
   191  O2    s     0.960423    0.052971    0.828646    0.000000
   192  O2    s     0.896696    0.912420    0.162817    0.000000
   193  O2    s     0.318935    0.559220    0.328266    0.000000
   194  O2    s     0.388157    0.733154    0.661094    0.000000
   195  O2    s     0.207981    0.642350    0.995823    0.000000
   196  O2    s     0.609857    0.387119    0.828792    0.000000
   197  O2    s     0.559292    0.218402    0.168848    0.000000
   198  O2    s     0.733150    0.329595    0.498657    0.000000
   199  O3    s     0.569609    0.337277    0.995760    0.000000
   200  O2    s     0.751068    0.402913    0.665035    0.000000
   201  O2    s     0.617823    0.208551    0.333937    0.000000
   202  O2    s     0.380171    0.620424    0.494255    0.000000
   203  O2    s     0.203648    0.574527    0.162863    0.000000
   204  O2    s     0.314981    0.739142    0.827240    0.000000
   205  O3    s     0.097468    0.189852    0.963447    0.000000
   206  O2    s     0.751046    0.879613    0.301576    0.000000
   207  O2    s     0.079845    0.856567    0.634057    0.000000
   208  O2    s     0.845787    0.758689    0.466175    0.000000
   209  O2    s     0.175916    0.067583    0.802265    0.000000
   210  O2    s     0.875785    0.109481    0.132118    0.000000
   211  O2    s     0.185817    0.095406    0.359613    0.000000
   212  O2    s     0.889059    0.789965    0.027255    0.000000
   213  O2    s     0.843339    0.071092    0.690973    0.000000
   214  O2    s     0.746668    0.853713    0.859461    0.000000
   215  O2    s     0.059931    0.189050    0.526070    0.000000
   216  O2    s     0.091108    0.890208    0.195234    0.000000
   217  O2    s     0.893493    0.837864    0.245940    0.000000
   218  O2    s     0.107642    0.043028    0.579358    0.000000
   219  O2    s     0.896658    0.047222    0.911894    0.000000
   220  O2    s     0.028352    0.102461    0.745063    0.000000
   221  O2    s     0.822227    0.917398    0.080034    0.000000
   222  O2    s     0.037713    0.904834    0.413066    0.000000
   223  O2    s     0.904238    0.206902    0.973924    0.000000
   224  O2    s     0.763074    0.678445    0.311708    0.000000
   225  O3    s     0.264737    0.076168    0.644963    0.000000
   226  O2    s     0.059787    0.771036    0.478897    0.000000
   227  O2    s     0.168242    0.270416    0.806009    0.000000
   228  O2    s     0.674601    0.896604    0.147406    0.000000
   229  O2    s     0.173605    0.882288    0.349282    0.000000
   230  O2    s     0.675133    0.776424    0.013403    0.000000
   231  O2    s     0.062454    0.264975    0.679857    0.000000
   232  O2    s     0.754904    0.064400    0.846925    0.000000
   233  O2    s     0.262642    0.180348    0.514413    0.000000
   234  O2    s     0.878382    0.689860    0.179629    0.000000
   235  O2    s     0.296187    0.636681    0.246301    0.000000
   236  O2    s     0.316552    0.642002    0.577747    0.000000
   237  O2    s     0.291259    0.645199    0.911149    0.000000
   238  O2    s     0.635249    0.319718    0.745671    0.000000
   239  O3    s     0.613927    0.303747    0.085712    0.000000
   240  O2    s     0.640846    0.305321    0.415313    0.000000
   241  O3    s     0.359787    0.313903    0.967314    0.000000
   242  O2    s     0.629726    0.012496    0.301381    0.000000
   243  O2    s     0.945520    0.603690    0.631451    0.000000
   244  O2    s     0.590424    0.634963    0.463513    0.000000
   245  O2    s     0.299884    0.934248    0.795362    0.000000
   246  O2    s     0.005582    0.366257    0.129639    0.000000
   247  O2    s     0.307795    0.349837    0.360303    0.000000
   248  O2    s     0.012616    0.656844    0.028075    0.000000
   249  O2    s     0.589680    0.940631    0.693768    0.000000
   250  O2    s     0.621261    0.597360    0.860140    0.000000
   251  O2    s     0.930783    0.315215    0.528138    0.000000
   252  O2    s     0.347008    0.019384    0.197736    0.000000
   253  O3    s     0.758073    0.286821    0.005194    0.000000
   254  O2    s     0.658189    0.441106    0.344311    0.000000
   255  O3    s     0.517755    0.220542    0.672776    0.000000
   256  O2    s     0.191878    0.662358    0.509097    0.000000
   257  O2    s     0.273303    0.508554    0.841296    0.000000
   258  O2    s     0.435631    0.764001    0.177629    0.000000
   259  O2    s     0.276964    0.750364    0.316736    0.000000
   260  O2    s     0.436285    0.669254    0.980610    0.000000
   261  O2    s     0.198958    0.502320    0.647751    0.000000
   262  O2    s     0.648661    0.194853    0.813179    0.000000
   263  O2    s     0.500619    0.286514    0.483622    0.000000
   264  O2    s     0.745483    0.451665    0.148404    0.000000
   265  O3    s     0.770943    0.546228    0.022018    0.000000
   266  O2    s     0.436836    0.231876    0.361360    0.000000
   267  O2    s     0.706245    0.186954    0.692822    0.000000
   268  O2    s     0.177738    0.439692    0.525738    0.000000
   269  O2    s     0.492625    0.710933    0.861552    0.000000
   270  O2    s     0.224326    0.772751    0.195074    0.000000
   271  O2    s     0.499259    0.765950    0.300391    0.000000
   272  O3    s     0.220226    0.458650    0.969297    0.000000
   273  O2    s     0.189433    0.714367    0.631739    0.000000
   274  O2    s     0.430349    0.182949    0.796519    0.000000
   275  O2    s     0.709545    0.508356    0.466665    0.000000
   276  O2    s     0.760606    0.244762    0.129352    0.000000
   277  O3    s     0.194878    0.301652    0.886965    0.000000
   278  O2    s     0.636207    0.888710    0.230837    0.000000
   279  O2    s     0.071431    0.738297    0.561962    0.000000
   280  O2    s     0.727250    0.642025    0.394947    0.000000
   281  O3    s     0.278347    0.064162    0.731126    0.000000
   282  O2    s     0.886163    0.233875    0.059982    0.000000
   283  O2    s     0.300204    0.215309    0.430889    0.000000
   284  O2    s     0.872264    0.651355    0.096084    0.000000
   285  O2    s     0.721588    0.071014    0.762479    0.000000
   286  O2    s     0.631274    0.726372    0.929840    0.000000
   287  O2    s     0.060382    0.303562    0.596919    0.000000
   288  O2    s     0.210147    0.887292    0.266405    0.000000
   289  O2    s     0.547653    0.536476    0.984736    0.000000
   290  O2    s     0.410715    0.996220    0.320492    0.000000
   291  O2    s     0.953580    0.393332    0.650891    0.000000
   292  O2    s     0.384271    0.415484    0.482726    0.000000
   293  O2    s     0.520580    0.952041    0.811592    0.000000
   294  O2    s     0.989217    0.566305    0.146575    0.000000
   295  O2    s     0.526628    0.556324    0.341319    0.000000
   296  O2    s     0.993596    0.439505    0.007845    0.000000
   297  O3    s     0.382569    0.936281    0.669351    0.000000
   298  O2    s     0.403924    0.391953    0.842233    0.000000
   299  O2    s     0.945218    0.536225    0.510447    0.000000
   300  O2    s     0.555728    0.010212    0.179240    0.000000
   301  O2    s     0.546551    0.132728    0.251120    0.000000
   302  O2    s     0.819904    0.400432    0.581391    0.000000
   303  O2    s     0.546331    0.403108    0.912336    0.000000
   304  O2    s     0.382874    0.820243    0.743075    0.000000
   305  O2    s     0.121601    0.565199    0.078907    0.000000
   306  O2    s     0.389653    0.550339    0.411346    0.000000
   307  F     s     0.418942    0.881671    0.247280    0.000000
   308  F     s     0.070705    0.520807    0.579506    0.000000
   309  F     s     0.374357    0.480092    0.918332    0.000000
   310  F     s     0.476274    0.070866    0.731239    0.000000
   311  F     s     0.831551    0.427758    0.068009    0.000000
   312  F     s     0.516265    0.426693    0.412006    0.000000
--------------------------------------------------------------------------------

  Final Cartesian lattice vectors (Angstroms) :

       11.965395    0.006840   -0.012665
       -6.061369   10.367982    0.036867
       -0.351977    0.070673   29.437939


  Final cell parameters and derivatives :

--------------------------------------------------------------------------------
       a           11.965404 Angstrom     dE/de1(xx)     0.003669 eV/strain
       b           12.009854 Angstrom     dE/de2(yy)     0.002387 eV/strain
       c           29.440128 Angstrom     dE/de3(zz)     0.003217 eV/strain
       alpha       89.359655 Degrees      dE/de4(yz)    -0.000479 eV/strain
       beta        90.745591 Degrees      dE/de5(xz)     0.000666 eV/strain
       gamma      120.278860 Degrees      dE/de6(xy)     0.000594 eV/strain
--------------------------------------------------------------------------------

  Primitive cell volume =          3653.130702 Angs**3

  Density of cell =      1.751400 g/cm**3

  Non-primitive cell volume =          3653.130702 Angs**3


  Final internal derivatives :

--------------------------------------------------------------------------------
   No.  Atomic          a             b             c           Radius
        Label          (eV)          (eV)          (eV)        (eV/Angs)
--------------------------------------------------------------------------------
      1 Ge    c       0.000000      0.000000      0.000000      0.000000
      2 Si    c      -0.000076      0.000320      0.000484      0.000000
      3 Si    c      -0.000248     -0.000316     -0.000336      0.000000
      4 Si    c      -0.000178      0.000056      0.000388      0.000000
      5 Si    c       0.000325      0.000809     -0.000924      0.000000
      6 Si    c       0.000312     -0.000034      0.000638      0.000000
      7 Si    c       0.000508     -0.000075     -0.000070      0.000000
      8 Si    c       0.001640     -0.000164     -0.001505      0.000000
      9 Si    c      -0.000138     -0.000044      0.000226      0.000000
     10 Si    c       0.000247     -0.000290     -0.000251      0.000000
     11 Si    c       0.000119      0.000002      0.000232      0.000000
     12 Si    c       0.001501     -0.000710      0.008948      0.000000
     13 Si    c      -0.003863      0.002261     -0.004924      0.000000
     14 Si    c      -0.000022     -0.000041     -0.000294      0.000000
     15 Si    c      -0.000170     -0.000299     -0.000394      0.000000
     16 Si    c       0.000254      0.000068     -0.000050      0.000000
     17 Si    c       0.000174      0.000131      0.000639      0.000000
     18 Si    c       0.000323      0.000178      0.000857      0.000000
     19 Si    c       0.000227      0.000404      0.000167      0.000000
     20 Si    c      -0.000619     -0.000576      0.002705      0.000000
     21 Si    c       0.000082     -0.000494      0.000253      0.000000
     22 Si    c       0.000371      0.000106     -0.000972      0.000000
     23 Si    c      -0.000351     -0.000250     -0.000832      0.000000
     24 Si    c      -0.000016      0.000089      0.000160      0.000000
     25 Si    c       0.000682      0.000620     -0.001907      0.000000
     26 Si    c       0.000364     -0.000009      0.000421      0.000000
     27 Si    c      -0.000109      0.000131     -0.000285      0.000000
     28 Si    c       0.000257      0.000512     -0.000204      0.000000
     29 Ge    c      -0.000202     -0.000350     -0.000211      0.000000
     30 Si    c       0.001458      0.000496      0.002712      0.000000
     31 Si    c       0.000160      0.000174     -0.000211      0.000000
     32 Si    c       0.000711     -0.000070     -0.000327      0.000000
     33 Si    c       0.000446      0.000085      0.000692      0.000000
     34 Si    c       0.000938      0.000465      0.001087      0.000000
     35 Si    c      -0.000047     -0.000173      0.000425      0.000000
     36 Si    c       0.000554      0.000391     -0.001071      0.000000
     37 Ge    c       0.000450      0.000941      0.001338      0.000000
     38 Si    c       0.000482     -0.000097     -0.000088      0.000000
     39 Si    c      -0.000172     -0.000309     -0.000119      0.000000
     40 Si    c       0.000171      0.000108     -0.000070      0.000000
     41 Si    c       0.000294      0.000281      0.000210      0.000000
     42 Si    c       0.000057      0.000452      0.001762      0.000000
     43 Si    c       0.000147      0.000293      0.000344      0.000000
     44 Si    c       0.000665     -0.001449     -0.001914      0.000000
     45 Si    c       0.000224     -0.000177      0.000177      0.000000
     46 Si    c       0.000539      0.000745     -0.001031      0.000000
     47 Si    c      -0.000047      0.000059      0.000275      0.000000
     48 Si    c       0.000018      0.000299     -0.000547      0.000000
     49 Si    c       0.000340     -0.000474     -0.003470      0.000000
     50 Si    c       0.000706      0.000505      0.000599      0.000000
     51 Si    c       0.000773      0.000157     -0.000491      0.000000
     52 Si    c       0.000187     -0.000032     -0.000063      0.000000
     53 Si    c       0.000732      0.000514     -0.000197      0.000000
     54 Si    c       0.000359     -0.000209      0.000532      0.000000
     55 Si    c       0.000280      0.000166     -0.000106      0.000000
     56 Si    c       0.000388      0.001089      0.003068      0.000000
     57 Si    c       0.000273      0.000027      0.000723      0.000000
     58 Si    c       0.000535      0.000612     -0.000450      0.000000
     59 Si    c       0.000011     -0.000008      0.000598      0.000000
     60 Si    c       0.000329      0.000619     -0.001117      0.000000
     61 O2    c       0.000651     -0.001974      0.003811      0.000000
     62 O2    c       0.000004      0.000128      0.000090      0.000000
     63 O2    c       0.000165      0.000006     -0.000355      0.000000
     64 O2    c       0.000051     -0.000007     -0.000089      0.000000
     65 O2    c       0.000111      0.000216      0.000264      0.000000
     66 O2    c      -0.000002     -0.000049      0.000192      0.000000
     67 O2    c       0.000163      0.000035      0.000339      0.000000
     68 O2    c      -0.000282     -0.000267     -0.000223      0.000000
     69 O2    c       0.000079      0.000582      0.000292      0.000000
     70 O2    c       0.000293     -0.000099     -0.000013      0.000000
     71 O2    c      -0.000371     -0.000104      0.000277      0.000000
     72 O2    c      -0.000037      0.000154     -0.000197      0.000000
     73 O3    c      -0.002571     -0.005840      0.004311      0.000000
     74 O2    c      -0.000122     -0.000142      0.000059      0.000000
     75 O2    c      -0.000027      0.000102     -0.000058      0.000000
     76 O2    c      -0.000043     -0.000066      0.000399      0.000000
     77 O2    c       0.000066     -0.000121     -0.000849      0.000000
     78 O2    c       0.000229     -0.000039      0.000412      0.000000
     79 O3    c       0.002978      0.000127      0.000229      0.000000
     80 O2    c      -0.000048      0.000070     -0.000049      0.000000
     81 O2    c      -0.000233     -0.000124      0.000193      0.000000
     82 O2    c       0.000163      0.000132     -0.000237      0.000000
     83 O2    c       0.000117      0.000049     -0.000110      0.000000
     84 O2    c       0.000165     -0.000236     -0.000177      0.000000
     85 O2    c       0.000213      0.000006      0.000394      0.000000
     86 O2    c       0.002616     -0.001770     -0.000508      0.000000
     87 O2    c       0.000115      0.000075     -0.000168      0.000000
     88 O2    c       0.000512      0.000070      0.000091      0.000000
     89 O2    c       0.000202      0.000046      0.000088      0.000000
     90 O2    c       0.000219     -0.000112      0.000268      0.000000
     91 O2    c       0.000133     -0.000008      0.000496      0.000000
     92 O2    c      -0.000020      0.000175      0.000290      0.000000
     93 O2    c       0.000030     -0.000118     -0.003343      0.000000
     94 O2    c       0.000152      0.000144     -0.000012      0.000000
     95 O2    c       0.000181      0.000233      0.002198      0.000000
     96 O2    c       0.000214      0.000020      0.000671      0.000000
     97 O2    c      -0.002197      0.002794     -0.000418      0.000000
     98 O2    c      -0.000056     -0.000071      0.000184      0.000000
     99 O3    c       0.000016     -0.000126      0.001313      0.000000
    100 O2    c      -0.000128      0.000144      0.000590      0.000000
    101 O2    c       0.000253      0.000064      0.000346      0.000000
    102 O2    c      -0.000005      0.000002     -0.000210      0.000000
    103 O2    c       0.000028      0.000159     -0.000146      0.000000
    104 O2    c      -0.001912     -0.000398     -0.001516      0.000000
    105 O2    c      -0.000197      0.000137     -0.000346      0.000000
    106 O2    c       0.000203      0.000001     -0.000417      0.000000
    107 O2    c      -0.000002      0.000130      0.000079      0.000000
    108 O2    c       0.000161     -0.000168      0.000402      0.000000
    109 O2    c       0.000159      0.000006     -0.000170      0.000000
    110 O2    c       0.000201     -0.000001      0.000258      0.000000
    111 O2    c      -0.000144      0.000413     -0.001054      0.000000
    112 O2    c       0.000077      0.000083      0.000584      0.000000
    113 O3    c      -0.004099     -0.002570     -0.002200      0.000000
    114 O2    c      -0.000078      0.000011     -0.000651      0.000000
    115 O3    c      -0.000088     -0.000974      0.000288      0.000000
    116 O2    c      -0.000129      0.000157     -0.000514      0.000000
    117 O2    c      -0.000028     -0.000116     -0.000514      0.000000
    118 O2    c      -0.000153      0.000033     -0.000074      0.000000
    119 O2    c       0.000016      0.000010      0.000380      0.000000
    120 O2    c       0.000489      0.000323      0.000374      0.000000
    121 O2    c       0.000192     -0.000073     -0.000041      0.000000
    122 O2    c      -0.000040      0.000908     -0.000351      0.000000
    123 O2    c       0.000100      0.000050      0.000449      0.000000
    124 O2    c       0.000342     -0.000099      0.000113      0.000000
    125 O2    c       0.000140      0.000138      0.000293      0.000000
    126 O2    c       0.000095      0.000045      0.000013      0.000000
    127 O3    c       0.000341     -0.000447     -0.003658      0.000000
    128 O2    c       0.000001      0.000067      0.000206      0.000000
    129 O3    c       0.000149      0.000239      0.000088      0.000000
    130 O2    c       0.000085     -0.000157     -0.000107      0.000000
    131 O2    c       0.000208      0.000104      0.000006      0.000000
    132 O2    c       0.000301      0.000058      0.000259      0.000000
    133 O2    c      -0.000040      0.000052      0.000166      0.000000
    134 O2    c       0.000161      0.000241      0.000936      0.000000
    135 O2    c      -0.000048     -0.000044      0.000226      0.000000
    136 O2    c      -0.000024      0.000223     -0.000038      0.000000
    137 O2    c      -0.000183      0.000171     -0.000223      0.000000
    138 O2    c       0.000063      0.000693     -0.000272      0.000000
    139 O3    c      -0.001089     -0.000465     -0.004409      0.000000
    140 O2    c       0.000050      0.000094     -0.000122      0.000000
    141 O2    c       0.000048     -0.000204      0.000337      0.000000
    142 O2    c       0.000156     -0.000082     -0.000141      0.000000
    143 O2    c      -0.000075      0.000122      0.000248      0.000000
    144 O2    c       0.000039      0.000081     -0.000577      0.000000
    145 O2    c       0.000115      0.000189     -0.000013      0.000000
    146 O3    c      -0.001519      0.000078      0.001235      0.000000
    147 O2    c      -0.000213      0.000019     -0.000198      0.000000
    148 O2    c       0.000271      0.000098      0.000035      0.000000
    149 O2    c       0.000032     -0.000066      0.000030      0.000000
    150 O2    c      -0.000229     -0.000021     -0.000806      0.000000
    151 O3    c      -0.000808     -0.000963     -0.001107      0.000000
    152 O2    c      -0.000222      0.000087     -0.000071      0.000000
    153 O2    c      -0.000136     -0.000141      0.000876      0.000000
    154 O2    c      -0.000080     -0.000008     -0.001362      0.000000
    155 O3    c      -0.000474      0.000217      0.000721      0.000000
    156 O2    c      -0.000162      0.000163     -0.003306      0.000000
    157 O2    c       0.000081      0.000048      0.000600      0.000000
    158 O2    c       0.000105      0.000554      0.005747      0.000000
    159 O2    c      -0.000008     -0.000066     -0.000439      0.000000
    160 O2    c       0.000372     -0.000001      0.000479      0.000000
    161 O2    c      -0.000046     -0.000143      0.000309      0.000000
    162 O2    c      -0.000107      0.000073     -0.000384      0.000000
    163 O2    c       0.001016     -0.000161      0.001451      0.000000
    164 O2    c       0.000155      0.000121      0.000390      0.000000
    165 O2    c      -0.000057     -0.000053     -0.000663      0.000000
    166 O2    c       0.000088      0.000065     -0.000079      0.000000
    167 O2    c       0.000097      0.000049     -0.000356      0.000000
    168 O2    c      -0.000319      0.000226     -0.000584      0.000000
    169 O2    c       0.000125      0.000055      0.000250      0.000000
    170 O2    c       0.000887      0.000714     -0.001100      0.000000
    171 O3    c       0.000027     -0.000269      0.000875      0.000000
    172 O2    c      -0.000096      0.000208     -0.000054      0.000000
    173 O2    c       0.000137     -0.000063      0.000585      0.000000
    174 O2    c       0.000113     -0.000308     -0.000354      0.000000
    175 O2    c       0.000186     -0.000128      0.001087      0.000000
    176 O2    c       0.000199      0.000058     -0.000077      0.000000
    177 O2    c       0.001029     -0.001049     -0.002813      0.000000
    178 O2    c       0.000280     -0.000065     -0.000077      0.000000
    179 O2    c       0.000325      0.000043     -0.000550      0.000000
    180 O2    c       0.000201     -0.000009      0.000896      0.000000
    181 F     c       0.000299      0.000021     -0.000188      0.000000
    182 F     c      -0.000435      0.000040     -0.000140      0.000000
    183 F     c       0.000673     -0.000147     -0.000374      0.000000
    184 F     c       0.000391     -0.000336      0.000348      0.000000
    185 F     c       0.000282      0.000266     -0.001405      0.000000
    186 F     c      -0.000011      0.000114     -0.000020      0.000000
    187 O2    s       0.000777     -0.000736      0.000712      0.000000
    188 O2    s      -0.000494     -0.000033     -0.001444      0.000000
    189 O2    s       0.000146      0.000162      0.000572      0.000000
    190 O2    s       0.000090     -0.000222     -0.000260      0.000000
    191 O2    s      -0.000384      0.000087      0.001146      0.000000
    192 O2    s       0.000218      0.000015      0.000618      0.000000
    193 O2    s       0.000131      0.000279     -0.000184      0.000000
    194 O2    s      -0.000158      0.000227      0.000362      0.000000
    195 O2    s       0.000030     -0.000235     -0.000042      0.000000
    196 O2    s       0.000306      0.000042     -0.000801      0.000000
    197 O2    s       0.000450     -0.000619      0.002926      0.000000
    198 O2    s       0.000142      0.000038      0.000123      0.000000
    199 O3    s       0.006486      0.001976      0.002686      0.000000
    200 O2    s       0.000037     -0.000234      0.000074      0.000000
    201 O2    s       0.000013      0.000031     -0.000274      0.000000
    202 O2    s       0.000037     -0.000024     -0.000055      0.000000
    203 O2    s       0.000026     -0.000112      0.000943      0.000000
    204 O2    s       0.000345      0.000015      0.000319      0.000000
    205 O3    s       0.002514     -0.000151     -0.001518      0.000000
    206 O2    s      -0.000007      0.000308     -0.000191      0.000000
    207 O2    s       0.000052     -0.000077     -0.000174      0.000000
    208 O2    s       0.000076      0.000035      0.000756      0.000000
    209 O2    s       0.000239      0.000140     -0.000063      0.000000
    210 O2    s       0.000076     -0.000383      0.001786      0.000000
    211 O2    s       0.000030     -0.000219     -0.000051      0.000000
    212 O2    s       0.002092     -0.001404     -0.001999      0.000000
    213 O2    s      -0.000279     -0.000054      0.000877      0.000000
    214 O2    s      -0.000015     -0.000765      0.000828      0.000000
    215 O2    s       0.000032      0.000102      0.000514      0.000000
    216 O2    s       0.000021     -0.000080      0.001285      0.000000
    217 O2    s       0.000312      0.000053     -0.000241      0.000000
    218 O2    s       0.000099      0.000111     -0.000432      0.000000
    219 O2    s      -0.000305     -0.000935     -0.002852      0.000000
    220 O2    s       0.000121      0.000233     -0.000622      0.000000
    221 O2    s      -0.000293      0.001116      0.002495      0.000000
    222 O2    s       0.000123     -0.000108     -0.000179      0.000000
    223 O2    s      -0.002837      0.002503      0.000486      0.000000
    224 O2    s      -0.000014     -0.000462      0.002091      0.000000
    225 O3    s      -0.000330     -0.000481     -0.000879      0.000000
    226 O2    s      -0.000108      0.000149     -0.000541      0.000000
    227 O2    s      -0.000049     -0.000408     -0.001485      0.000000
    228 O2    s      -0.000117      0.000063      0.000601      0.000000
    229 O2    s      -0.000106      0.000261      0.001247      0.000000
    230 O2    s      -0.002726      0.000324     -0.001728      0.000000
    231 O2    s      -0.000153      0.000256     -0.000731      0.000000
    232 O2    s      -0.000020      0.000025     -0.000576      0.000000
    233 O2    s       0.000017     -0.000032     -0.000145      0.000000
    234 O2    s       0.000441     -0.000719     -0.000855      0.000000
    235 O2    s       0.000118      0.000099     -0.000226      0.000000
    236 O2    s       0.000066      0.000075     -0.000113      0.000000
    237 O2    s       0.001009      0.000016     -0.001753      0.000000
    238 O2    s       0.000165     -0.000280      0.000118      0.000000
    239 O3    s       0.002275      0.003001     -0.001779      0.000000
    240 O2    s      -0.000017      0.000125     -0.000202      0.000000
    241 O3    s      -0.002253      0.002296     -0.002199      0.000000
    242 O2    s      -0.000066      0.000128     -0.000003      0.000000
    243 O2    s       0.000264      0.000118     -0.000633      0.000000
    244 O2    s      -0.000235      0.000053      0.000353      0.000000
    245 O2    s       0.000235     -0.000056      0.000173      0.000000
    246 O2    s       0.000616     -0.000209      0.001549      0.000000
    247 O2    s       0.000151     -0.000141      0.000124      0.000000
    248 O2    s       0.000251      0.000787     -0.000642      0.000000
    249 O2    s      -0.000029      0.000067      0.000788      0.000000
    250 O2    s       0.000038     -0.000138      0.000515      0.000000
    251 O2    s      -0.000159      0.000091      0.000172      0.000000
    252 O2    s      -0.000059     -0.000137      0.000035      0.000000
    253 O3    s      -0.000624      0.000881      0.002168      0.000000
    254 O2    s       0.000068      0.000037      0.000347      0.000000
    255 O3    s       0.000253     -0.000027     -0.001199      0.000000
    256 O2    s       0.000071     -0.000091      0.000345      0.000000
    257 O2    s       0.000494     -0.000216      0.000016      0.000000
    258 O2    s       0.000097     -0.000037      0.000323      0.000000
    259 O2    s       0.000204      0.000199      0.000888      0.000000
    260 O2    s       0.000836     -0.000505     -0.000924      0.000000
    261 O2    s      -0.000052      0.000125      0.000509      0.000000
    262 O2    s       0.000106      0.000090     -0.001066      0.000000
    263 O2    s      -0.000044      0.000173     -0.000151      0.000000
    264 O2    s       0.000218     -0.000304      0.000899      0.000000
    265 O3    s      -0.000300     -0.000730      0.002283      0.000000
    266 O2    s       0.000034      0.000118      0.000264      0.000000
    267 O2    s      -0.000109      0.000051      0.000328      0.000000
    268 O2    s       0.000037      0.000009     -0.000509      0.000000
    269 O2    s      -0.000226      0.000029      0.000451      0.000000
    270 O2    s      -0.000003      0.000137      0.000685      0.000000
    271 O2    s      -0.000149      0.000254     -0.000331      0.000000
    272 O3    s       0.001448     -0.000307      0.001793      0.000000
    273 O2    s       0.000054     -0.000095      0.000543      0.000000
    274 O2    s       0.000180     -0.000251     -0.000198      0.000000
    275 O2    s       0.000110     -0.000261      0.000365      0.000000
    276 O2    s      -0.000351     -0.000254      0.003544      0.000000
    277 O3    s       0.001217      0.000304      0.000533      0.000000
    278 O2    s      -0.000303      0.000389     -0.000229      0.000000
    279 O2    s      -0.000077     -0.000145     -0.000672      0.000000
    280 O2    s      -0.000010     -0.000128     -0.000433      0.000000
    281 O3    s      -0.000099      0.000132     -0.000481      0.000000
    282 O2    s       0.000164     -0.000694     -0.002181      0.000000
    283 O2    s       0.000202      0.000062     -0.000566      0.000000
    284 O2    s       0.000370     -0.000008      0.000538      0.000000
    285 O2    s      -0.000159      0.000113     -0.000317      0.000000
    286 O2    s      -0.000256     -0.000235      0.000687      0.000000
    287 O2    s      -0.000100      0.000003     -0.000412      0.000000
    288 O2    s       0.000104      0.000138     -0.000216      0.000000
    289 O2    s      -0.001015      0.000437     -0.003632      0.000000
    290 O2    s       0.000142     -0.000046     -0.000965      0.000000
    291 O2    s       0.000068     -0.000172     -0.000045      0.000000
    292 O2    s       0.000149     -0.000143     -0.000107      0.000000
    293 O2    s      -0.000170      0.000052      0.000138      0.000000
    294 O2    s      -0.000231      0.000258      0.001232      0.000000
    295 O2    s      -0.000065      0.000074      0.000787      0.000000
    296 O2    s       0.000142     -0.001960     -0.000175      0.000000
    297 O3    s      -0.000347      0.000449     -0.000520      0.000000
    298 O2    s      -0.000417      0.000470     -0.000133      0.000000
    299 O2    s       0.000109     -0.000086      0.000474      0.000000
    300 O2    s       0.000287      0.000093      0.001062      0.000000
    301 O2    s       0.000301     -0.000193     -0.000234      0.000000
    302 O2    s       0.000246     -0.000016      0.000157      0.000000
    303 O2    s      -0.000353      0.002239     -0.002198      0.000000
    304 O2    s       0.000174     -0.000063     -0.000650      0.000000
    305 O2    s       0.000179     -0.000042      0.001222      0.000000
    306 O2    s       0.000203      0.000046     -0.000535      0.000000
    307 F     s       0.000261     -0.000056      0.000198      0.000000
    308 F     s      -0.000342      0.000146      0.000054      0.000000
    309 F     s       0.000918     -0.000576      0.000379      0.000000
    310 F     s       0.000488     -0.000414      0.000661      0.000000
    311 F     s      -0.000797     -0.000727     -0.001872      0.000000
    312 F     s       0.000032      0.000059      0.000094      0.000000
--------------------------------------------------------------------------------
  Maximum abs         0.006486      0.005840      0.008948      0.000000
--------------------------------------------------------------------------------


  Time to end of optimisation =     170.7776 seconds


  Peak dynamic memory used =      19.13 MB 


  Timing analysis for GULP :

--------------------------------------------------------------------------------
  Task / Subroutine                                          Time (Seconds)
--------------------------------------------------------------------------------
  Calculation of reciprocal space energy and derivatives          4.1465
  Calculation of real space energy and derivatives              148.8872
  Calculation of three-body energy and derivatives               15.6338
  Calculation of matrix inversion                                 1.8653
  Global summation overhead                                       0.0004
--------------------------------------------------------------------------------
  Total CPU time                                                170.7777
--------------------------------------------------------------------------------


  Dump file written as out.res                                                 
  CIF file written as out.cif                                                 


  Job Finished at 12:55.50  6th November   2016                               

