********************************************************************************
*                       GENERAL UTILITY LATTICE PROGRAM                        *
*                                 Julian Gale                                  *
*                      Nanochemistry Research Institute                        *
*                           Department of Chemistry                            *
*                    Curtin University, Western Australia                      *
********************************************************************************
* Version = 4.2.0 * Last modified =  20th January 2014                         *
********************************************************************************
*  optimise     - perform optimisation run                                     *
*  conp         - constant pressure calculation                                *
*  qok          - running with non charge neutral cell is OK                   *
********************************************************************************

  Job Started  at 16:34.50  8th November   2016                               

  Number of CPUs =     1


  Total number of configurations input =   1

********************************************************************************
*  Input for Configuration =   1                                               *
********************************************************************************

  Formula = Ge3Si57O120F6                                               

  Number of irreducible atoms/shells =     312


  Total number atoms/shells =     312

  Dimensionality = 3               :  Bulk   


  Charge on solid   =  -6.000000 =>neutralising background added


  Cartesian lattice vectors (Angstroms) :

       11.966207    0.000000    0.000000
       -6.055994   10.351309    0.000000
       -0.305010    0.159136   29.437670

  Cell parameters (Angstroms/Degrees):

  a =      11.9662    alpha =  89.4329
  b =      11.9927    beta  =  90.5936
  c =      29.4397    gamma = 120.3296

  Initial cell volume =        3646.323582 Angs**3

  Temperature of configuration =  0.000     K 

  Pressure of configuration =         0.000 GPa 

  Fractional coordinates of asymmetric unit :

--------------------------------------------------------------------------------
   No.  Atomic       x           y          z         Charge      Occupancy
        Label      (Frac)      (Frac)     (Frac)        (e)         (Frac)  
--------------------------------------------------------------------------------
      1 Ge    c    0.699600    0.375700    0.033890     4.00000    1.000000    
      2 Si    c    0.617135 *  0.316213 *  0.364667 *   4.00000    1.000000    
      3 Si    c    0.665218 *  0.307631 *  0.696984 *   4.00000    1.000000    
      4 Si    c    0.293816 *  0.615188 *  0.527788 *   4.00000    1.000000    
      5 Si    c    0.363511 *  0.673183 *  0.858631 *   4.00000    1.000000    
      6 Si    c    0.313343 *  0.702275 *  0.194565 *   4.00000    1.000000    
      7 Si    c    0.367824 *  0.691864 *  0.294942 *   4.00000    1.000000    
      8 Si    c    0.304775 *  0.625308 *  0.961146 *   4.00000    1.000000    
      9 Si    c    0.307485 *  0.683377 *  0.629714 *   4.00000    1.000000    
     10 Si    c    0.609929 *  0.297690 *  0.797441 *   4.00000    1.000000    
     11 Si    c    0.670026 *  0.374568 *  0.465194 *   4.00000    1.000000    
     12 Si    c    0.681411 *  0.315836 *  0.132347 *   4.00000    1.000000    
     13 Si    c    0.521321 *  0.412260 *  0.967228 *   4.00000    1.000000    
     14 Si    c    0.576174 *  0.102498 *  0.301984 *   4.00000    1.000000    
     15 Si    c    0.879273 *  0.470004 *  0.634793 *   4.00000    1.000000    
     16 Si    c    0.461005 *  0.575856 *  0.461251 *   4.00000    1.000000    
     17 Si    c    0.411784 *  0.889238 *  0.793070 *   4.00000    1.000000    
     18 Si    c    0.102532 *  0.535115 *  0.126836 *   4.00000    1.000000    
     19 Si    c    0.410058 *  0.520476 *  0.359451 *   4.00000    1.000000    
     20 Si    c    0.095939 *  0.589536 *  0.023893 *   4.00000    1.000000    
     21 Si    c    0.471640 *  0.903282 *  0.692015 *   4.00000    1.000000    
     22 Si    c    0.570098 *  0.465962 *  0.862870 *   4.00000    1.000000    
     23 Si    c    0.877574 *  0.408042 *  0.532131 *   4.00000    1.000000    
     24 Si    c    0.522481 *  0.109305 *  0.200741 *   4.00000    1.000000    
     25 Si    c    0.283933 *  0.391336 *  0.843027 *   4.00000    1.000000    
     26 Si    c    0.594889 *  0.904021 *  0.182269 *   4.00000    1.000000    
     27 Si    c    0.089966 *  0.693636 *  0.514354 *   4.00000    1.000000    
     28 Si    c    0.692178 *  0.592830 *  0.346985 *   4.00000    1.000000    
     29 Si    c    0.389408 *  0.104398 *  0.679730 *   4.00000    1.000000    
     30 Si    c    0.889342 *  0.297931 *  0.008503 *   4.00000    1.000000    
     31 Si    c    0.390369 *  0.296027 *  0.477358 *   4.00000    1.000000    
     32 Si    c    0.885976 *  0.602324 *  0.141223 *   4.00000    1.000000    
     33 Si    c    0.693447 *  0.100250 *  0.809123 *   4.00000    1.000000    
     34 Si    c    0.586260 *  0.697024 *  0.978224 *   4.00000    1.000000    
     35 Ge    c    0.096093 *  0.412716 *  0.639116 *   4.00000    1.000000    
     36 Si    c    0.293380 *  0.891880 *  0.312655 *   4.00000    1.000000    
     37 Ge    c    0.257527 *  0.360291 *  0.943136 *   4.00000    1.000000    
     38 Si    c    0.651266 *  0.902039 *  0.283194 *   4.00000    1.000000    
     39 Si    c    0.088627 *  0.750966 *  0.615785 *   4.00000    1.000000    
     40 Si    c    0.740197 *  0.653256 *  0.447508 *   4.00000    1.000000    
     41 Si    c    0.329147 *  0.087347 *  0.780357 *   4.00000    1.000000    
     42 Si    c    0.899208 *  0.251992 *  0.112069 *   4.00000    1.000000    
     43 Si    c    0.334229 *  0.242230 *  0.376568 *   4.00000    1.000000    
     44 Si    c    0.888707 *  0.663654 *  0.038817 *   4.00000    1.000000    
     45 Si    c    0.750378 *  0.107090 *  0.708278 *   4.00000    1.000000    
     46 Si    c    0.650265 *  0.747448 *  0.876223 *   4.00000    1.000000    
     47 Si    c    0.080517 *  0.327075 *  0.543474 *   4.00000    1.000000    
     48 Si    c    0.241007 *  0.908640 *  0.212366 *   4.00000    1.000000    
     49 Si    c    0.974402 *  0.129096 *  0.960107 *   4.00000    1.000000    
     50 Si    c    0.870042 *  0.840817 *  0.295755 *   4.00000    1.000000    
     51 Si    c    0.140281 *  0.029240 *  0.628564 *   4.00000    1.000000    
     52 Si    c    0.019958 *  0.870718 *  0.461798 *   4.00000    1.000000    
     53 Si    c    0.109528 *  0.145217 *  0.792378 *   4.00000    1.000000    
     54 Si    c    0.841007 *  0.974606 *  0.129145 *   4.00000    1.000000    
     55 Si    c    0.114995 *  0.961345 *  0.360942 *   4.00000    1.000000    
     56 Si    c    0.837160 *  0.886624 *  0.027097 *   4.00000    1.000000    
     57 Si    c    0.027947 *  0.159971 *  0.691240 *   4.00000    1.000000    
     58 Si    c    0.871679 *  0.028919 *  0.860262 *   4.00000    1.000000    
     59 Si    c    0.141484 *  0.114445 *  0.526365 *   4.00000    1.000000    
     60 Si    c    0.961665 *  0.850118 *  0.194081 *   4.00000    1.000000    
     61 O2    c    0.914402 *  0.008235 *  0.995092 *   0.87073    1.000000    
     62 O2    c    0.996138 *  0.922076 *  0.326734 *   0.87073    1.000000    
     63 O2    c    0.054820 *  0.066785 *  0.658945 *   0.87073    1.000000    
     64 O2    c    0.065208 *  0.993265 *  0.493384 *   0.87073    1.000000    
     65 O2    c    0.988744 *  0.067662 *  0.825875 *   0.87073    1.000000    
     66 O2    c    0.924990 *  0.934732 *  0.161298 *   0.87073    1.000000    
     67 O2    c    0.331029 *  0.565756 *  0.326237 *   0.87073    1.000000    
     68 O2    c    0.434976 *  0.784959 *  0.657483 *   0.87073    1.000000    
     69 O2    c    0.222514 *  0.671349 *  0.992260 *   0.87073    1.000000    
     70 O2    c    0.647381 *  0.417123 *  0.831517 *   0.87073    1.000000    
     71 O2    c    0.575032 *  0.240032 *  0.171416 *   0.87073    1.000000    
     72 O2    c    0.751644 *  0.335473 *  0.499447 *   0.87073    1.000000    
     73 O3    c    0.568092 *  0.335992 *  0.998059 *   1.33043    1.000000    
     74 O2    c    0.750982 *  0.432921 *  0.664524 *   0.87073    1.000000    
     75 O2    c    0.654696 *  0.227113 *  0.334642 *   0.87073    1.000000    
     76 O2    c    0.412225 *  0.652640 *  0.493135 *   0.87073    1.000000    
     77 O2    c    0.228020 *  0.584513 *  0.159626 *   0.87073    1.000000    
     78 O2    c    0.333155 *  0.760927 *  0.824482 *   0.87073    1.000000    
     79 O3    c    0.122911 *  0.213431 *  0.965642 *   1.33043    1.000000    
     80 O2    c    0.777217 *  0.900566 *  0.303320 *   0.87073    1.000000    
     81 O2    c    0.088073 *  0.876101 *  0.635126 *   0.87073    1.000000    
     82 O2    c    0.865658 *  0.780998 *  0.467730 *   0.87073    1.000000    
     83 O2    c    0.200762 *  0.082316 *  0.800086 *   0.87073    1.000000    
     84 O2    c    0.903635 *  0.129123 *  0.133646 *   0.87073    1.000000    
     85 O2    c    0.208867 *  0.115576 *  0.355821 *   0.87073    1.000000    
     86 O2    c    0.904309 *  0.800266 *  0.022210 *   0.87073    1.000000    
     87 O2    c    0.873951 *  0.110328 *  0.685783 *   0.87073    1.000000    
     88 O2    c    0.775323 *  0.873509 *  0.855930 *   0.87073    1.000000    
     89 O2    c    0.080002 *  0.206031 *  0.518285 *   0.87073    1.000000    
     90 O2    c    0.116784 *  0.912763 *  0.191914 *   0.87073    1.000000    
     91 O2    c    0.915666 *  0.856233 *  0.244236 *   0.87073    1.000000    
     92 O2    c    0.123656 *  0.058248 *  0.576585 *   0.87073    1.000000    
     93 O2    c    0.925689 *  0.065513 *  0.910545 *   0.87073    1.000000    
     94 O2    c    0.054753 *  0.126003 *  0.741847 *   0.87073    1.000000    
     95 O2    c    0.847006 *  0.934418 *  0.078449 *   0.87073    1.000000    
     96 O2    c    0.058098 *  0.921161 *  0.410951 *   0.87073    1.000000    
     97 O2    c    0.906414 *  0.214304 *  0.969976 *   0.87073    1.000000    
     98 O2    c    0.791036 *  0.688742 *  0.308309 *   0.87073    1.000000    
     99 O2    c    0.292706 *  0.106634 *  0.641024 *   0.87073    1.000000    
    100 O2    c    0.087428 *  0.786576 *  0.474730 *   0.87073    1.000000    
    101 O2    c    0.195963 *  0.299128 *  0.801336 *   0.87073    1.000000    
    102 O2    c    0.690601 *  0.904598 *  0.143671 *   0.87073    1.000000    
    103 O2    c    0.195138 *  0.889128 *  0.351001 *   0.87073    1.000000    
    104 O2    c    0.683787 *  0.799404 *  0.015531 *   0.87073    1.000000    
    105 O3    c    0.106992 *  0.307572 *  0.680474 *   1.33043    1.000000    
    106 O2    c    0.789574 *  0.098509 *  0.847957 *   0.87073    1.000000    
    107 O2    c    0.294630 *  0.197828 *  0.515898 *   0.87073    1.000000    
    108 O2    c    0.891972 *  0.700125 *  0.180154 *   0.87073    1.000000    
    109 O2    c    0.311147 *  0.638451 *  0.244075 *   0.87073    1.000000    
    110 O2    c    0.351456 *  0.673178 *  0.577671 *   0.87073    1.000000    
    111 O2    c    0.307201 *  0.674573 *  0.908672 *   0.87073    1.000000    
    112 O2    c    0.667136 *  0.361566 *  0.747734 *   0.87073    1.000000    
    113 O3    c    0.609898 *  0.302322 *  0.085330 *   1.33043    1.000000    
    114 O2    c    0.673105 *  0.317646 *  0.415468 *   0.87073    1.000000    
    115 O3    c    0.367059 *  0.324145 *  0.969358 *   1.33043    1.000000    
    116 O2    c    0.662531 *  0.032647 *  0.303477 *   0.87073    1.000000    
    117 O2    c    0.956319 *  0.627534 *  0.633249 *   0.87073    1.000000    
    118 O2    c    0.617724 *  0.663493 *  0.464931 *   0.87073    1.000000    
    119 O2    c    0.323197 *  0.955752 *  0.797753 *   0.87073    1.000000    
    120 O2    c    0.030406 *  0.379176 *  0.129299 *   0.87073    1.000000    
    121 O2    c    0.323863 *  0.363855 *  0.357366 *   0.87073    1.000000    
    122 O2    c    0.024181 *  0.672873 *  0.023759 *   0.87073    1.000000    
    123 O2    c    0.627446 *  0.973703 *  0.690556 *   0.87073    1.000000    
    124 O2    c    0.655451 *  0.622616 *  0.859194 *   0.87073    1.000000    
    125 O2    c    0.946088 *  0.321588 *  0.528205 *   0.87073    1.000000    
    126 O2    c    0.366166 *  0.041792 *  0.195787 *   0.87073    1.000000    
    127 O3    c    0.751795 *  0.284041 *  0.001898 *   1.33043    1.000000    
    128 O2    c    0.692546 *  0.458646 *  0.341047 *   0.87073    1.000000    
    129 O2    c    0.522087 *  0.241568 *  0.673895 *   0.87073    1.000000    
    130 O2    c    0.221028 *  0.688788 *  0.507890 *   0.87073    1.000000    
    131 O2    c    0.290164 *  0.529988 *  0.836652 *   0.87073    1.000000    
    132 O2    c    0.457841 *  0.772570 *  0.173186 *   0.87073    1.000000    
    133 O2    c    0.291287 *  0.756252 *  0.318453 *   0.87073    1.000000    
    134 O2    c    0.451837 *  0.698537 *  0.981879 *   0.87073    1.000000    
    135 O3    c    0.248688 *  0.547901 *  0.654658 *   1.33043    1.000000    
    136 O2    c    0.686135 *  0.229122 *  0.818891 *   0.87073    1.000000    
    137 O2    c    0.525701 *  0.299781 *  0.486551 *   0.87073    1.000000    
    138 O2    c    0.756652 *  0.465487 *  0.150562 *   0.87073    1.000000    
    139 O3    c    0.764406 *  0.546939 *  0.018127 *   1.33043    1.000000    
    140 O2    c    0.460880 *  0.242042 *  0.358499 *   0.87073    1.000000    
    141 O2    c    0.742107 *  0.229909 *  0.690112 *   0.87073    1.000000    
    142 O2    c    0.204933 *  0.459925 *  0.524808 *   0.87073    1.000000    
    143 O2    c    0.519024 *  0.738631 *  0.858155 *   0.87073    1.000000    
    144 O2    c    0.237906 *  0.782904 *  0.191589 *   0.87073    1.000000    
    145 O2    c    0.524248 *  0.773495 *  0.301071 *   0.87073    1.000000    
    146 O3    c    0.223636 *  0.473071 *  0.969288 *   1.33043    1.000000    
    147 O2    c    0.214097 *  0.746453 *  0.632695 *   0.87073    1.000000    
    148 O2    c    0.453234 *  0.214034 *  0.801149 *   0.87073    1.000000    
    149 O2    c    0.745055 *  0.531076 *  0.468773 *   0.87073    1.000000    
    150 O2    c    0.774946 *  0.252582 *  0.132119 *   0.87073    1.000000    
    151 O3    c    0.203728 *  0.311983 *  0.886207 *   1.33043    1.000000    
    152 O2    c    0.668242 *  0.904222 *  0.228793 *   0.87073    1.000000    
    153 O2    c    0.089475 *  0.761885 *  0.560985 *   0.87073    1.000000    
    154 O2    c    0.761881 *  0.669937 *  0.393196 *   0.87073    1.000000    
    155 O2    c    0.311913 *  0.091997 *  0.725920 *   0.87073    1.000000    
    156 O2    c    0.898473 *  0.237680 *  0.057886 *   0.87073    1.000000    
    157 O2    c    0.316545 *  0.223954 *  0.430911 *   0.87073    1.000000    
    158 O2    c    0.882485 *  0.669638 *  0.094367 *   0.87073    1.000000    
    159 O2    c    0.768723 *  0.107192 *  0.762860 *   0.87073    1.000000    
    160 O2    c    0.658643 *  0.757387 *  0.930622 *   0.87073    1.000000    
    161 O3    c    0.087088 *  0.302862 *  0.595925 *   1.33043    1.000000    
    162 O2    c    0.222722 *  0.902181 *  0.266813 *   0.87073    1.000000    
    163 O2    c    0.564774 *  0.555915 *  0.987862 *   0.87073    1.000000    
    164 O2    c    0.433843 *  0.014741 *  0.324088 *   0.87073    1.000000    
    165 O3    c    0.957695 *  0.412853 *  0.660109 *   1.33043    1.000000    
    166 O2    c    0.402093 *  0.434717 *  0.484855 *   0.87073    1.000000    
    167 O2    c    0.554784 *  0.969881 *  0.815847 *   0.87073    1.000000    
    168 O2    c    0.011528 *  0.586464 *  0.146444 *   0.87073    1.000000    
    169 O2    c    0.552166 *  0.577419 *  0.337043 *   0.87073    1.000000    
    170 O2    c    0.004414 *  0.447954 *  0.003102 *   0.87073    1.000000    
    171 O2    c    0.408978 *  0.983375 *  0.669210 *   0.87073    1.000000    
    172 O2    c    0.428527 *  0.411391 *  0.839916 *   0.87073    1.000000    
    173 O2    c    0.967743 *  0.550446 *  0.510497 *   0.87073    1.000000    
    174 O2    c    0.582066 *  0.030686 *  0.175811 *   0.87073    1.000000    
    175 O2    c    0.574842 *  0.158394 *  0.251824 *   0.87073    1.000000    
    176 O2    c    0.831624 *  0.412151 *  0.583231 *   0.87073    1.000000    
    177 O2    c    0.570735 *  0.420596 *  0.914526 *   0.87073    1.000000    
    178 O2    c    0.412006 *  0.841118 *  0.741611 *   0.87073    1.000000    
    179 O2    c    0.145840 *  0.583877 *  0.075304 *   0.87073    1.000000    
    180 O2    c    0.409560 *  0.575229 *  0.409864 *   0.87073    1.000000    
    181 F     c    0.441147 *  0.896954 *  0.247925 *   0.56000    1.000000    
    182 F     c    0.091596 *  0.515814 *  0.590282 *   0.56000    1.000000    
    183 F     c    0.402273 *  0.511947 *  0.916433 *   0.56000    1.000000    
    184 F     c    0.539651 *  0.103138 *  0.744674 *   0.56000    1.000000    
    185 F     c    0.848389 *  0.437671 *  0.069572 *   0.56000    1.000000    
    186 F     c    0.543201 *  0.446452 *  0.412698 *   0.56000    1.000000    
    187 O2    s    0.911556 *  0.006596 *  0.995187 *  -2.87073    1.000000    
    188 O2    s    0.995315 *  0.917364 *  0.327098 *  -2.87073    1.000000    
    189 O2    s    0.061764 *  0.072021 *  0.658790 *  -2.87073    1.000000    
    190 O2    s    0.068565 *  0.992720 *  0.493445 *  -2.87073    1.000000    
    191 O2    s    0.988945 *  0.071837 *  0.826024 *  -2.87073    1.000000    
    192 O2    s    0.919908 *  0.929725 *  0.161426 *  -2.87073    1.000000    
    193 O2    s    0.342898 *  0.574007 *  0.326435 *  -2.87073    1.000000    
    194 O2    s    0.425107 *  0.786278 *  0.658051 *  -2.87073    1.000000    
    195 O2    s    0.217628 *  0.658620 *  0.992462 *  -2.87073    1.000000    
    196 O2    s    0.635498 *  0.409858 *  0.831237 *  -2.87073    1.000000    
    197 O2    s    0.580542 *  0.233917 *  0.170464 *  -2.87073    1.000000    
    198 O2    s    0.756345 *  0.347139 *  0.499303 *  -2.87073    1.000000    
    199 O3    s    0.573189 *  0.347329 *  0.997497 *  -3.33043    1.000000    
    200 O2    s    0.755320 *  0.424176 *  0.664772 *  -2.87073    1.000000    
    201 O2    s    0.642768 *  0.223410 *  0.334365 *  -2.87073    1.000000    
    202 O2    s    0.404934 *  0.640911 *  0.493468 *  -2.87073    1.000000    
    203 O2    s    0.223598 *  0.591339 *  0.159769 *  -2.87073    1.000000    
    204 O2    s    0.344432 *  0.764805 *  0.824876 *  -2.87073    1.000000    
    205 O3    s    0.114108 *  0.212971 *  0.963580 *  -3.33043    1.000000    
    206 O2    s    0.773981 *  0.894369 *  0.300457 *  -2.87073    1.000000    
    207 O2    s    0.093547 *  0.878564 *  0.632405 *  -2.87073    1.000000    
    208 O2    s    0.869253 *  0.777399 *  0.465021 *  -2.87073    1.000000    
    209 O2    s    0.204723 *  0.089308 *  0.797265 *  -2.87073    1.000000    
    210 O2    s    0.896587 *  0.125481 *  0.130980 *  -2.87073    1.000000    
    211 O2    s    0.211915 *  0.112324 *  0.358501 *  -2.87073    1.000000    
    212 O2    s    0.895427 *  0.795525 *  0.024432 *  -2.87073    1.000000    
    213 O2    s    0.876050 *  0.114939 *  0.688721 *  -2.87073    1.000000    
    214 O2    s    0.771705 *  0.875792 *  0.858524 *  -2.87073    1.000000    
    215 O2    s    0.086505 *  0.208464 *  0.521585 *  -2.87073    1.000000    
    216 O2    s    0.113194 *  0.905671 *  0.194252 *  -2.87073    1.000000    
    217 O2    s    0.915694 *  0.853801 *  0.244428 *  -2.87073    1.000000    
    218 O2    s    0.127553 *  0.061446 *  0.576616 *  -2.87073    1.000000    
    219 O2    s    0.924511 *  0.067930 *  0.909916 *  -2.87073    1.000000    
    220 O2    s    0.058154 *  0.131830 *  0.742232 *  -2.87073    1.000000    
    221 O2    s    0.845214 *  0.933839 *  0.078709 *  -2.87073    1.000000    
    222 O2    s    0.060208 *  0.919952 *  0.411083 *  -2.87073    1.000000    
    223 O2    s    0.911451 *  0.214763 *  0.973170 *  -2.87073    1.000000    
    224 O2    s    0.789330 *  0.695032 *  0.310913 *  -2.87073    1.000000    
    225 O2    s    0.286446 *  0.098225 *  0.643650 *  -2.87073    1.000000    
    226 O2    s    0.080664 *  0.785528 *  0.477560 *  -2.87073    1.000000    
    227 O2    s    0.195851 *  0.292464 *  0.804553 *  -2.87073    1.000000    
    228 O2    s    0.696496 *  0.911918 *  0.146173 *  -2.87073    1.000000    
    229 O2    s    0.196636 *  0.897025 *  0.348153 *  -2.87073    1.000000    
    230 O2    s    0.689460 *  0.797775 *  0.012872 *  -2.87073    1.000000    
    231 O3    s    0.097491 *  0.298087 *  0.678965 *  -3.33043    1.000000    
    232 O2    s    0.788275 *  0.091325 *  0.845225 *  -2.87073    1.000000    
    233 O2    s    0.288381 *  0.199213 *  0.512999 *  -2.87073    1.000000    
    234 O2    s    0.898844 *  0.706165 *  0.177638 *  -2.87073    1.000000    
    235 O2    s    0.317065 *  0.650282 *  0.244196 *  -2.87073    1.000000    
    236 O2    s    0.341227 *  0.668069 *  0.577435 *  -2.87073    1.000000    
    237 O2    s    0.312662 *  0.669574 *  0.908703 *  -2.87073    1.000000    
    238 O2    s    0.661123 *  0.349543 *  0.747569 *  -2.87073    1.000000    
    239 O3    s    0.623166 *  0.308502 *  0.086855 *  -3.33043    1.000000    
    240 O2    s    0.667049 *  0.323352 *  0.415344 *  -2.87073    1.000000    
    241 O3    s    0.373951 *  0.335794 *  0.967084 *  -3.33043    1.000000    
    242 O2    s    0.652458 *  0.026207 *  0.301204 *  -2.87073    1.000000    
    243 O2    s    0.962789 *  0.624897 *  0.631508 *  -2.87073    1.000000    
    244 O2    s    0.614391 *  0.653334 *  0.462701 *  -2.87073    1.000000    
    245 O2    s    0.333008 *  0.962665 *  0.795435 *  -2.87073    1.000000    
    246 O2    s    0.024368 *  0.382338 *  0.127256 *  -2.87073    1.000000    
    247 O2    s    0.333855 *  0.367281 *  0.359606 *  -2.87073    1.000000    
    248 O2    s    0.018270 *  0.663048 *  0.025295 *  -2.87073    1.000000    
    249 O2    s    0.623709 *  0.980265 *  0.692616 *  -2.87073    1.000000    
    250 O2    s    0.646207 *  0.619914 *  0.861376 *  -2.87073    1.000000    
    251 O2    s    0.952365 *  0.331183 *  0.530159 *  -2.87073    1.000000    
    252 O2    s    0.368973 *  0.034576 *  0.198074 *  -2.87073    1.000000    
    253 O3    s    0.762820 *  0.291641 *  0.004823 *  -3.33043    1.000000    
    254 O2    s    0.684779 *  0.458037 *  0.344117 *  -2.87073    1.000000    
    255 O2    s    0.522827 *  0.233887 *  0.676934 *  -2.87073    1.000000    
    256 O2    s    0.214473 *  0.681745 *  0.510639 *  -2.87073    1.000000    
    257 O2    s    0.297167 *  0.531059 *  0.839613 *  -2.87073    1.000000    
    258 O2    s    0.457123 *  0.778961 *  0.176383 *  -2.87073    1.000000    
    259 O2    s    0.299299 *  0.763879 *  0.315409 *  -2.87073    1.000000    
    260 O2    s    0.451035 *  0.691036 *  0.979401 *  -2.87073    1.000000    
    261 O3    s    0.244173 *  0.552609 *  0.650926 *  -3.33043    1.000000    
    262 O2    s    0.679018 *  0.222627 *  0.815616 *  -2.87073    1.000000    
    263 O2    s    0.526405 *  0.307209 *  0.483304 *  -2.87073    1.000000    
    264 O2    s    0.763212 *  0.465610 *  0.147749 *  -2.87073    1.000000    
    265 O3    s    0.774538 *  0.549929 *  0.021301 *  -3.33043    1.000000    
    266 O2    s    0.463477 *  0.249883 *  0.361063 *  -2.87073    1.000000    
    267 O2    s    0.734793 *  0.224642 *  0.692757 *  -2.87073    1.000000    
    268 O2    s    0.201674 *  0.463025 *  0.527028 *  -2.87073    1.000000    
    269 O2    s    0.516828 *  0.732529 *  0.860187 *  -2.87073    1.000000    
    270 O2    s    0.246165 *  0.788011 *  0.194113 *  -2.87073    1.000000    
    271 O2    s    0.521745 *  0.779041 *  0.298523 *  -2.87073    1.000000    
    272 O3    s    0.234366 *  0.480544 *  0.966641 *  -3.33043    1.000000    
    273 O2    s    0.209324 *  0.740562 *  0.630544 *  -2.87073    1.000000    
    274 O2    s    0.456283 *  0.209073 *  0.798552 *  -2.87073    1.000000    
    275 O2    s    0.736651 *  0.527889 *  0.466136 *  -2.87073    1.000000    
    276 O2    s    0.779270 *  0.258902 *  0.129945 *  -2.87073    1.000000    
    277 O3    s    0.215655 *  0.323527 *  0.885714 *  -3.33043    1.000000    
    278 O2    s    0.658710 *  0.903959 *  0.229694 *  -2.87073    1.000000    
    279 O2    s    0.089433 *  0.753385 *  0.561672 *  -2.87073    1.000000    
    280 O2    s    0.752291 *  0.660101 *  0.394103 *  -2.87073    1.000000    
    281 O2    s    0.321902 *  0.092799 *  0.726769 *  -2.87073    1.000000    
    282 O2    s    0.897673 *  0.245051 *  0.059031 *  -2.87073    1.000000    
    283 O2    s    0.326122 *  0.233417 *  0.429972 *  -2.87073    1.000000    
    284 O2    s    0.883413 *  0.661588 *  0.094139 *  -2.87073    1.000000    
    285 O2    s    0.758923 *  0.106474 *  0.761990 *  -2.87073    1.000000    
    286 O2    s    0.650125 *  0.749952 *  0.929708 *  -2.87073    1.000000    
    287 O3    s    0.086938 *  0.312626 *  0.593162 *  -3.33043    1.000000    
    288 O2    s    0.231988 *  0.901802 *  0.265802 *  -2.87073    1.000000    
    289 O2    s    0.562745 *  0.557806 *  0.984807 *  -2.87073    1.000000    
    290 O2    s    0.433702 *  0.010591 *  0.320553 *  -2.87073    1.000000    
    291 O3    s    0.959839 *  0.418931 *  0.655999 *  -3.33043    1.000000    
    292 O2    s    0.407167 *  0.434680 *  0.481569 *  -2.87073    1.000000    
    293 O2    s    0.554500 *  0.975351 *  0.812743 *  -2.87073    1.000000    
    294 O2    s    0.007789 *  0.582549 *  0.143778 *  -2.87073    1.000000    
    295 O2    s    0.552363 *  0.572952 *  0.340454 *  -2.87073    1.000000    
    296 O2    s    0.002443 *  0.448138 *  0.005944 *  -2.87073    1.000000    
    297 O2    s    0.413501 *  0.988115 *  0.672700 *  -2.87073    1.000000    
    298 O2    s    0.428500 *  0.415211 *  0.842681 *  -2.87073    1.000000    
    299 O2    s    0.971920 *  0.551350 *  0.513200 *  -2.87073    1.000000    
    300 O2    s    0.577118 *  0.024982 *  0.179090 *  -2.87073    1.000000    
    301 O2    s    0.569409 *  0.147221 *  0.251764 *  -2.87073    1.000000    
    302 O2    s    0.841157 *  0.417279 *  0.582783 *  -2.87073    1.000000    
    303 O2    s    0.565946 *  0.424746 *  0.913990 *  -2.87073    1.000000    
    304 O2    s    0.418013 *  0.852404 *  0.741861 *  -2.87073    1.000000    
    305 O2    s    0.136278 *  0.579249 *  0.075675 *  -2.87073    1.000000    
    306 O2    s    0.414949 *  0.569701 *  0.410036 *  -2.87073    1.000000    
    307 F     s    0.440723 *  0.896455 *  0.247950 *  -1.56000    1.000000    
    308 F     s    0.092001 *  0.509242 *  0.593254 *  -1.56000    1.000000    
    309 F     s    0.393562 *  0.503597 *  0.917861 *  -1.56000    1.000000    
    310 F     s    0.539652 *  0.103579 *  0.744649 *  -1.56000    1.000000    
    311 F     s    0.837378 *  0.433198 *  0.067201 *  -1.56000    1.000000    
    312 F     s    0.543600 *  0.446406 *  0.412739 *  -1.56000    1.000000    
--------------------------------------------------------------------------------



********************************************************************************
*  General input information                                                   *
********************************************************************************

  Species output for all configurations : 

--------------------------------------------------------------------------------
  Species    Type    Atomic    Atomic    Charge       Radii (Angs)     Library
                     Number     Mass       (e)     Cova   Ionic  VDW   Symbol
--------------------------------------------------------------------------------
    Si       Core       14      28.09   4.000000   1.200  0.000  2.100          
    O1       Core        8      16.00   1.733957   0.730  0.000  1.360          
    O1       Shell       8       0.00  -3.733957   0.730  0.000  1.360          
    O2       Core        8      16.00   0.870733   0.730  0.000  1.360          
    O2       Shell       8       0.00  -2.870733   0.730  0.000  1.360          
    O3       Core        8      16.00   1.330431   0.730  0.000  1.360          
    O3       Shell       8       0.00  -3.330431   0.730  0.000  1.360          
    F        Core        9      19.00   0.560000   0.710  0.000  1.300          
    F        Shell       9       0.00  -1.560000   0.710  0.000  1.300          
    Ge       Core       32      72.61   4.000000   1.170  0.000  1.750          
--------------------------------------------------------------------------------


  Lattice summation method               =    Ewald          (3-D)
                                         =    Parry          (2-D)
                                         =    Saunders et al (1-D)
  Accuracy factor for lattice sums       =   12.000


  Time limit = Infinity

  Maximum range for interatomic potentials =        16.000000 Angstroms

  Taper potentials to zero over   1.0000 Angstroms using polynomial

  General interatomic potentials :

--------------------------------------------------------------------------------
Atom  Types   Potential         A         B         C         D     Cutoffs(Ang)
  1     2                                                            Min    Max 
--------------------------------------------------------------------------------
Si   c O1   s Buckingham    0.132E+04 0.318      10.1      0.00     0.000 16.000
Si   c O2   s Buckingham    0.132E+04 0.318      10.1      0.00     0.000 16.000
Si   c O3   s Buckingham    0.132E+04 0.318      10.1      0.00     0.000 16.000
Ge   c O1   s Buckingham    0.150E+04 0.326      16.8      0.00     0.000 16.000
Ge   c O2   s Buckingham    0.150E+04 0.326      16.8      0.00     0.000 16.000
Ge   c O3   s Buckingham    0.150E+04 0.326      16.8      0.00     0.000 16.000
O1   s O1   s Buckingham    0.228E+05 0.149      10.9      0.00     0.000 16.000
O1   s O2   s Buckingham    0.228E+05 0.149      10.9      0.00     0.000 16.000
O1   s O3   s Buckingham    0.228E+05 0.149      10.9      0.00     0.000 16.000
O2   s O2   s Buckingham    0.228E+05 0.149      10.9      0.00     0.000 16.000
O2   s O3   s Buckingham    0.228E+05 0.149      10.9      0.00     0.000 16.000
O3   s O3   s Buckingham    0.228E+05 0.149      10.9      0.00     0.000 16.000
Si   c F    s Buckingham     977.     0.282      0.00      0.00     0.000 16.000
Ge   c F    s Buckingham     681.     0.320      0.00      0.00     0.000 16.000
F    s F    s Buckingham     540.     0.262      0.00      0.00     0.000 16.000
O1   s F    s Buckingham    0.168E+04 0.268      0.00      0.00     0.000 16.000
O2   s F    s Buckingham    0.168E+04 0.268      0.00      0.00     0.000 16.000
O3   s F    s Buckingham    0.168E+04 0.268      0.00      0.00     0.000 16.000
O2   c O2   s Spring (c-s)   76.0      0.00      0.00      0.00     0.000  0.800
O3   c O3   s Spring (c-s)   128.      0.00      0.00      0.00     0.000  0.800
O1   c O1   s Spring (c-s)   180.      0.00      0.00      0.00     0.000  0.800
F    c F    s Spring (c-s)   33.5      0.00      0.00      0.00     0.000  0.800
--------------------------------------------------------------------------------

  General Three-body potentials :

  Harmonic form:

--------------------------------------------------------------------------------
Atom    Atom    Atom           Force Constants            Theta     Cutoffs  
  1       2       3     (eVrad**-2/eVrad**-3/eVrad**-4)   (deg)  1-2  1-3  2-3
--------------------------------------------------------------------------------
Si    c O1    s O1    s  1.261        0.0000    0.0000   109.470 0.00 0.00 0.00
                                                                 1.90 1.90 3.50
Si    c O1    s O2    s  1.261        0.0000    0.0000   109.470 0.00 0.00 0.00
                                                                 1.90 1.90 3.50
Si    c O2    s O2    s  1.261        0.0000    0.0000   109.470 0.00 0.00 0.00
                                                                 1.90 1.90 3.50
--------------------------------------------------------------------------------

********************************************************************************
*  Output for configuration   1                                                *
********************************************************************************


  Components of energy : 

--------------------------------------------------------------------------------
  Interatomic potentials     =        2066.51287371 eV
  Three-body potentials      =           0.49608321 eV
  Monopole - monopole (real) =       -6613.26123426 eV
  Monopole - monopole (recip)=       -3174.37843859 eV
  Monopole - monopole (total)=       -9787.63967285 eV
  Neutralising energy        =          -6.46621603 eV
--------------------------------------------------------------------------------
  Total lattice energy       =       -7727.09693195 eV
--------------------------------------------------------------------------------
  Total lattice energy       =         -745546.7344 kJ/(mole unit cells)
--------------------------------------------------------------------------------


  Number of variables =      939

  Maximum number of calculations  =          5000
  Maximum Hessian update interval =            10
  Maximum step size               =   0.100000000
  Maximum parameter tolerance     =   0.000010000
  Maximum function  tolerance     =   0.000010000
  Maximum gradient  tolerance     =   0.001000000
  Maximum gradient  component     =   0.010000000

  Symmetry not applied to optimisation

  Cell parameters to be optimised using strains

  Newton-Raphson optimiser to be used

  BFGS hessian update to be used

  Dumpfile to be written after every cycle

  Start of bulk optimisation :

  Cycle:      0 Energy:     -7727.096932  Gnorm:      0.000550  CPU:    2.037
  ** Hessian calculated **
  Cycle:      1 Energy:     -7727.115363  Gnorm:      0.000515  CPU:    6.630
  Cycle:      2 Energy:     -7727.143120  Gnorm:      0.000656  CPU:   11.523
  Cycle:      3 Energy:     -7727.172304  Gnorm:      0.001199  CPU:   15.739
  Cycle:      4 Energy:     -7727.200529  Gnorm:      0.002135  CPU:   19.954
  Cycle:      5 Energy:     -7727.210485  Gnorm:      0.001940  CPU:   24.170
  Cycle:      6 Energy:     -7727.212992  Gnorm:      0.001265  CPU:   28.387
  Cycle:      7 Energy:     -7727.213643  Gnorm:      0.000749  CPU:   32.604
  Cycle:      8 Energy:     -7727.213813  Gnorm:      0.000411  CPU:   36.823
  Cycle:      9 Energy:     -7727.213843  Gnorm:      0.000297  CPU:   39.678
  Cycle:     10 Energy:     -7727.213858  Gnorm:      0.000210  CPU:   42.536
  ** Hessian calculated **
  Cycle:     11 Energy:     -7727.213858  Gnorm:      0.000108  CPU:   47.088
  Cycle:     12 Energy:     -7727.213858  Gnorm:      0.000081  CPU:   49.943
  Cycle:     13 Energy:     -7727.213858  Gnorm:      0.000061  CPU:   52.801


  **** Optimisation achieved ****


  Final energy =   -7727.21385843 eV
  Final Gnorm  =       0.00004765

  Components of energy : 

--------------------------------------------------------------------------------
  Interatomic potentials     =        2066.88607818 eV
  Three-body potentials      =           0.48889164 eV
  Monopole - monopole (real) =       -6615.72808815 eV
  Monopole - monopole (recip)=       -3172.39855488 eV
  Monopole - monopole (total)=       -9788.12664303 eV
  Neutralising energy        =          -6.46218522 eV
--------------------------------------------------------------------------------
  Total lattice energy       =       -7727.21385843 eV
--------------------------------------------------------------------------------
  Total lattice energy       =         -745558.0161 kJ/(mole unit cells)
--------------------------------------------------------------------------------

  Final fractional coordinates of atoms :

--------------------------------------------------------------------------------
   No.  Atomic        x           y          z          Radius
        Label       (Frac)      (Frac)     (Frac)       (Angs) 
--------------------------------------------------------------------------------
     1  Ge    c     0.699600    0.375700    0.033890    0.000000
     2  Si    c     0.587074    0.295492    0.365080    0.000000
     3  Si    c     0.634242    0.279739    0.697003    0.000000
     4  Si    c     0.263634    0.590430    0.529458    0.000000
     5  Si    c     0.341524    0.651481    0.860798    0.000000
     6  Si    c     0.291463    0.686172    0.196760    0.000000
     7  Si    c     0.343184    0.674975    0.297191    0.000000
     8  Si    c     0.289808    0.604815    0.963880    0.000000
     9  Si    c     0.275611    0.657559    0.631403    0.000000
    10  Si    c     0.582639    0.274020    0.797610    0.000000
    11  Si    c     0.639637    0.350380    0.465730    0.000000
    12  Si    c     0.662880    0.301903    0.131861    0.000000
    13  Si    c     0.507167    0.392707    0.967540    0.000000
    14  Si    c     0.550038    0.085126    0.301794    0.000000
    15  Si    c     0.847597    0.443312    0.634827    0.000000
    16  Si    c     0.431685    0.551984    0.463252    0.000000
    17  Si    c     0.384694    0.865937    0.795140    0.000000
    18  Si    c     0.083391    0.518054    0.129643    0.000000
    19  Si    c     0.381176    0.499874    0.361443    0.000000
    20  Si    c     0.086348    0.579353    0.026923    0.000000
    21  Si    c     0.441127    0.876294    0.693926    0.000000
    22  Si    c     0.548325    0.445849    0.862613    0.000000
    23  Si    c     0.847561    0.383037    0.532194    0.000000
    24  Si    c     0.499459    0.093327    0.200190    0.000000
    25  Si    c     0.261669    0.370127    0.844178    0.000000
    26  Si    c     0.571714    0.887140    0.183395    0.000000
    27  Si    c     0.060034    0.668705    0.515200    0.000000
    28  Si    c     0.662715    0.572792    0.348034    0.000000
    29  Si    c     0.358460    0.076835    0.680885    0.000000
    30  Si    c     0.881645    0.289089    0.009260    0.000000
    31  Si    c     0.360512    0.271740    0.478610    0.000000
    32  Si    c     0.868397    0.586983    0.143172    0.000000
    33  Si    c     0.666079    0.076653    0.810358    0.000000
    34  Si    c     0.571728    0.676868    0.979155    0.000000
    35  Ge    c     0.064213    0.386618    0.639782    0.000000
    36  Si    c     0.267974    0.874991    0.313579    0.000000
    37  Ge    c     0.243068    0.340623    0.944633    0.000000
    38  Si    c     0.625839    0.884874    0.284464    0.000000
    39  Si    c     0.056826    0.724634    0.616618    0.000000
    40  Si    c     0.710510    0.629794    0.448763    0.000000
    41  Si    c     0.301856    0.063556    0.781720    0.000000
    42  Si    c     0.880732    0.236601    0.112972    0.000000
    43  Si    c     0.304738    0.221399    0.377742    0.000000
    44  Si    c     0.884399    0.660031    0.041071    0.000000
    45  Si    c     0.719901    0.079799    0.709332    0.000000
    46  Si    c     0.629149    0.726839    0.876758    0.000000
    47  Si    c     0.050139    0.301942    0.544234    0.000000
    48  Si    c     0.218277    0.892212    0.213005    0.000000
    49  Si    c     0.958358    0.114119    0.960528    0.000000
    50  Si    c     0.842781    0.821418    0.296904    0.000000
    51  Si    c     0.109240    0.002810    0.629818    0.000000
    52  Si    c     0.990509    0.846710    0.462935    0.000000
    53  Si    c     0.085044    0.125157    0.793575    0.000000
    54  Si    c     0.818117    0.957626    0.130486    0.000000
    55  Si    c     0.087042    0.940823    0.362227    0.000000
    56  Si    c     0.820796    0.873169    0.028527    0.000000
    57  Si    c     0.998129    0.134452    0.692485    0.000000
    58  Si    c     0.847616    0.009760    0.861632    0.000000
    59  Si    c     0.111465    0.089518    0.527523    0.000000
    60  Si    c     0.938499    0.832501    0.195613    0.000000
    61  O2    c     0.892414    0.995600    0.996530    0.000000
    62  O2    c     0.967979    0.900267    0.328216    0.000000
    63  O2    c     0.024988    0.040711    0.660626    0.000000
    64  O2    c     0.035003    0.968135    0.494846    0.000000
    65  O2    c     0.964875    0.050057    0.827382    0.000000
    66  O2    c     0.900853    0.916045    0.162558    0.000000
    67  O2    c     0.304090    0.548387    0.328624    0.000000
    68  O2    c     0.402419    0.757354    0.659646    0.000000
    69  O2    c     0.213985    0.656685    0.995604    0.000000
    70  O2    c     0.622970    0.395645    0.830633    0.000000
    71  O2    c     0.553017    0.222976    0.169877    0.000000
    72  O2    c     0.722042    0.310849    0.499485    0.000000
    73  O3    c     0.565774    0.326739    0.997523    0.000000
    74  O2    c     0.718483    0.404657    0.664133    0.000000
    75  O2    c     0.626601    0.209350    0.334458    0.000000
    76  O2    c     0.383099    0.628318    0.495290    0.000000
    77  O2    c     0.207062    0.566094    0.162900    0.000000
    78  O2    c     0.308264    0.738695    0.827320    0.000000
    79  O3    c     0.107124    0.191382    0.965688    0.000000
    80  O2    c     0.751753    0.883115    0.304422    0.000000
    81  O2    c     0.055437    0.849228    0.635873    0.000000
    82  O2    c     0.836358    0.756817    0.468813    0.000000
    83  O2    c     0.174505    0.060375    0.801471    0.000000
    84  O2    c     0.881729    0.112097    0.134832    0.000000
    85  O2    c     0.179045    0.095246    0.357183    0.000000
    86  O2    c     0.898880    0.796555    0.025128    0.000000
    87  O2    c     0.843770    0.082641    0.687342    0.000000
    88  O2    c     0.753427    0.854387    0.856826    0.000000
    89  O2    c     0.050553    0.181528    0.519123    0.000000
    90  O2    c     0.093576    0.896268    0.193029    0.000000
    91  O2    c     0.890790    0.837623    0.245608    0.000000
    92  O2    c     0.093340    0.033998    0.577956    0.000000
    93  O2    c     0.901917    0.047835    0.911863    0.000000
    94  O2    c     0.028905    0.104992    0.743255    0.000000
    95  O2    c     0.823449    0.918347    0.079689    0.000000
    96  O2    c     0.029813    0.898536    0.412191    0.000000
    97  O2    c     0.900736    0.208498    0.970318    0.000000
    98  O2    c     0.761328    0.669239    0.309319    0.000000
    99  O2    c     0.261303    0.078267    0.642249    0.000000
   100  O2    c     0.058009    0.762430    0.475636    0.000000
   101  O2    c     0.172762    0.278804    0.802555    0.000000
   102  O2    c     0.667956    0.887957    0.145026    0.000000
   103  O2    c     0.169286    0.871239    0.351867    0.000000
   104  O2    c     0.669785    0.778359    0.016267    0.000000
   105  O3    c     0.075622    0.281645    0.681123    0.000000
   106  O2    c     0.763184    0.076840    0.849199    0.000000
   107  O2    c     0.264461    0.172264    0.516948    0.000000
   108  O2    c     0.870882    0.682503    0.182175    0.000000
   109  O2    c     0.288159    0.622167    0.246337    0.000000
   110  O2    c     0.320163    0.647958    0.579381    0.000000
   111  O2    c     0.287766    0.651857    0.911308    0.000000
   112  O2    c     0.637683    0.335236    0.747437    0.000000
   113  O3    c     0.600872    0.297678    0.084058    0.000000
   114  O2    c     0.642247    0.294735    0.415829    0.000000
   115  O3    c     0.353018    0.303743    0.970653    0.000000
   116  O2    c     0.636923    0.015907    0.304001    0.000000
   117  O2    c     0.924384    0.600759    0.633720    0.000000
   118  O2    c     0.588258    0.639382    0.466723    0.000000
   119  O2    c     0.295787    0.932150    0.799714    0.000000
   120  O2    c     0.010530    0.362176    0.131635    0.000000
   121  O2    c     0.294273    0.343465    0.358844    0.000000
   122  O2    c     0.019419    0.667620    0.026683    0.000000
   123  O2    c     0.596814    0.946222    0.692034    0.000000
   124  O2    c     0.633794    0.602609    0.858799    0.000000
   125  O2    c     0.916460    0.296986    0.528384    0.000000
   126  O2    c     0.343046    0.025069    0.195704    0.000000
   127  O3    c     0.746825    0.279757    0.002289    0.000000
   128  O2    c     0.662480    0.438598    0.341885    0.000000
   129  O2    c     0.491017    0.213408    0.674274    0.000000
   130  O2    c     0.191123    0.663958    0.509118    0.000000
   131  O2    c     0.267775    0.508959    0.838631    0.000000
   132  O2    c     0.435084    0.755678    0.174736    0.000000
   133  O2    c     0.266578    0.739913    0.320008    0.000000
   134  O2    c     0.437748    0.678452    0.983321    0.000000
   135  O3    c     0.215761    0.521388    0.655982    0.000000
   136  O2    c     0.658786    0.205675    0.819293    0.000000
   137  O2    c     0.495734    0.275107    0.487411    0.000000
   138  O2    c     0.738579    0.450236    0.151394    0.000000
   139  O3    c     0.762081    0.544608    0.018565    0.000000
   140  O2    c     0.430949    0.221459    0.359121    0.000000
   141  O2    c     0.710925    0.201764    0.690425    0.000000
   142  O2    c     0.175209    0.435304    0.526205    0.000000
   143  O2    c     0.497012    0.717518    0.859636    0.000000
   144  O2    c     0.215453    0.766313    0.192708    0.000000
   145  O2    c     0.499402    0.756993    0.303165    0.000000
   146  O3    c     0.210078    0.452664    0.972277    0.000000
   147  O2    c     0.182066    0.720417    0.633923    0.000000
   148  O2    c     0.426259    0.190494    0.801929    0.000000
   149  O2    c     0.714756    0.506684    0.469535    0.000000
   150  O2    c     0.755268    0.237201    0.131532    0.000000
   151  O3    c     0.184998    0.291545    0.887951    0.000000
   152  O2    c     0.643728    0.886693    0.230135    0.000000
   153  O2    c     0.058557    0.736063    0.561816    0.000000
   154  O2    c     0.731676    0.648002    0.394440    0.000000
   155  O2    c     0.282733    0.066316    0.727306    0.000000
   156  O2    c     0.886713    0.226402    0.058781    0.000000
   157  O2    c     0.286898    0.201299    0.432062    0.000000
   158  O2    c     0.870680    0.658787    0.096425    0.000000
   159  O2    c     0.739316    0.081476    0.763874    0.000000
   160  O2    c     0.641297    0.736401    0.931073    0.000000
   161  O3    c     0.055001    0.276811    0.596713    0.000000
   162  O2    c     0.198951    0.885578    0.267407    0.000000
   163  O2    c     0.549952    0.535822    0.988429    0.000000
   164  O2    c     0.408180    0.998128    0.324277    0.000000
   165  O3    c     0.925149    0.385586    0.660447    0.000000
   166  O2    c     0.372635    0.410307    0.486644    0.000000
   167  O2    c     0.527670    0.946847    0.817659    0.000000
   168  O2    c     0.992722    0.569756    0.149138    0.000000
   169  O2    c     0.522690    0.557262    0.338587    0.000000
   170  O2    c     0.995089    0.440117    0.004950    0.000000
   171  O2    c     0.377689    0.955509    0.670898    0.000000
   172  O2    c     0.406475    0.391526    0.840174    0.000000
   173  O2    c     0.938025    0.525849    0.510811    0.000000
   174  O2    c     0.558970    0.013686    0.176260    0.000000
   175  O2    c     0.550125    0.141620    0.251446    0.000000
   176  O2    c     0.801108    0.386555    0.583222    0.000000
   177  O2    c     0.551003    0.400316    0.914046    0.000000
   178  O2    c     0.383233    0.815689    0.743922    0.000000
   179  O2    c     0.131194    0.569671    0.078598    0.000000
   180  O2    c     0.380193    0.552802    0.412005    0.000000
   181  F     c     0.417322    0.879841    0.248759    0.000000
   182  F     c     0.060593    0.490433    0.591017    0.000000
   183  F     c     0.384371    0.490494    0.917642    0.000000
   184  F     c     0.509662    0.076532    0.745689    0.000000
   185  F     c     0.841905    0.431392    0.071038    0.000000
   186  F     c     0.512263    0.423526    0.413937    0.000000
   187  O2    s     0.890776    0.993450    0.996555    0.000000
   188  O2    s     0.967298    0.895957    0.328525    0.000000
   189  O2    s     0.031795    0.045953    0.660377    0.000000
   190  O2    s     0.038472    0.967756    0.494835    0.000000
   191  O2    s     0.964968    0.053826    0.827495    0.000000
   192  O2    s     0.895995    0.911353    0.162721    0.000000
   193  O2    s     0.316032    0.556391    0.328765    0.000000
   194  O2    s     0.392864    0.758939    0.660138    0.000000
   195  O2    s     0.208201    0.643738    0.995748    0.000000
   196  O2    s     0.611057    0.388271    0.830516    0.000000
   197  O2    s     0.558648    0.217270    0.169177    0.000000
   198  O2    s     0.726629    0.322508    0.499399    0.000000
   199  O3    s     0.568986    0.337806    0.996832    0.000000
   200  O2    s     0.723116    0.396105    0.664452    0.000000
   201  O2    s     0.614642    0.205380    0.334243    0.000000
   202  O2    s     0.375692    0.616592    0.495556    0.000000
   203  O2    s     0.202629    0.573293    0.162859    0.000000
   204  O2    s     0.319629    0.742558    0.827557    0.000000
   205  O3    s     0.098279    0.191740    0.963796    0.000000
   206  O2    s     0.748364    0.876760    0.301588    0.000000
   207  O2    s     0.061162    0.851806    0.633217    0.000000
   208  O2    s     0.839876    0.753300    0.466128    0.000000
   209  O2    s     0.178544    0.067365    0.798632    0.000000
   210  O2    s     0.874922    0.108608    0.132150    0.000000
   211  O2    s     0.182297    0.091896    0.359828    0.000000
   212  O2    s     0.889104    0.790525    0.027133    0.000000
   213  O2    s     0.845873    0.087499    0.690191    0.000000
   214  O2    s     0.749675    0.856512    0.859431    0.000000
   215  O2    s     0.056904    0.183865    0.522444    0.000000
   216  O2    s     0.090051    0.889093    0.195353    0.000000
   217  O2    s     0.890747    0.835231    0.245792    0.000000
   218  O2    s     0.097192    0.036875    0.577947    0.000000
   219  O2    s     0.901582    0.050387    0.911171    0.000000
   220  O2    s     0.032040    0.110437    0.743601    0.000000
   221  O2    s     0.822538    0.917933    0.079961    0.000000
   222  O2    s     0.031826    0.897413    0.412322    0.000000
   223  O2    s     0.904479    0.207787    0.973599    0.000000
   224  O2    s     0.759891    0.675467    0.311944    0.000000
   225  O2    s     0.255101    0.070121    0.644874    0.000000
   226  O2    s     0.051197    0.761321    0.478482    0.000000
   227  O2    s     0.172581    0.272068    0.805737    0.000000
   228  O2    s     0.673804    0.895237    0.147504    0.000000
   229  O2    s     0.170623    0.878992    0.349065    0.000000
   230  O2    s     0.675358    0.777684    0.013691    0.000000
   231  O3    s     0.066204    0.272163    0.679661    0.000000
   232  O2    s     0.762043    0.069730    0.846491    0.000000
   233  O2    s     0.258273    0.173842    0.514091    0.000000
   234  O2    s     0.877890    0.688756    0.179595    0.000000
   235  O2    s     0.294108    0.634094    0.246465    0.000000
   236  O2    s     0.310012    0.642848    0.579124    0.000000
   237  O2    s     0.293441    0.647177    0.911254    0.000000
   238  O2    s     0.631689    0.323235    0.747356    0.000000
   239  O3    s     0.613666    0.302996    0.086109    0.000000
   240  O2    s     0.636319    0.300548    0.415743    0.000000
   241  O3    s     0.359867    0.315319    0.968359    0.000000
   242  O2    s     0.626845    0.009359    0.301732    0.000000
   243  O2    s     0.930900    0.598186    0.631974    0.000000
   244  O2    s     0.584953    0.629348    0.464463    0.000000
   245  O2    s     0.305601    0.939053    0.797354    0.000000
   246  O2    s     0.004762    0.365561    0.129496    0.000000
   247  O2    s     0.304329    0.346836    0.361097    0.000000
   248  O2    s     0.012913    0.657618    0.028169    0.000000
   249  O2    s     0.593138    0.952817    0.694081    0.000000
   250  O2    s     0.624676    0.599901    0.861077    0.000000
   251  O2    s     0.922609    0.306478    0.530377    0.000000
   252  O2    s     0.345941    0.018068    0.197995    0.000000
   253  O3    s     0.758203    0.287201    0.005241    0.000000
   254  O2    s     0.654767    0.437969    0.344941    0.000000
   255  O2    s     0.491782    0.205806    0.677361    0.000000
   256  O2    s     0.184531    0.656932    0.511866    0.000000
   257  O2    s     0.274844    0.509972    0.841526    0.000000
   258  O2    s     0.434506    0.762243    0.177957    0.000000
   259  O2    s     0.274560    0.747445    0.316963    0.000000
   260  O2    s     0.436827    0.670866    0.980906    0.000000
   261  O3    s     0.211454    0.526257    0.652233    0.000000
   262  O2    s     0.651662    0.199103    0.816075    0.000000
   263  O2    s     0.496416    0.282614    0.484182    0.000000
   264  O2    s     0.745330    0.450746    0.148605    0.000000
   265  O3    s     0.771636    0.546635    0.021943    0.000000
   266  O2    s     0.433588    0.229258    0.361719    0.000000
   267  O2    s     0.703720    0.196612    0.693115    0.000000
   268  O2    s     0.171832    0.438322    0.528387    0.000000
   269  O2    s     0.494995    0.711451    0.861632    0.000000
   270  O2    s     0.223683    0.771548    0.195279    0.000000
   271  O2    s     0.496833    0.762397    0.300553    0.000000
   272  O3    s     0.220535    0.460334    0.969549    0.000000
   273  O2    s     0.177363    0.714514    0.631773    0.000000
   274  O2    s     0.429262    0.185518    0.799339    0.000000
   275  O2    s     0.706420    0.503649    0.466926    0.000000
   276  O2    s     0.759937    0.243601    0.129531    0.000000
   277  O3    s     0.196862    0.303097    0.887249    0.000000
   278  O2    s     0.634220    0.886539    0.231000    0.000000
   279  O2    s     0.058536    0.727615    0.562513    0.000000
   280  O2    s     0.722207    0.638191    0.395318    0.000000
   281  O2    s     0.292756    0.067123    0.728114    0.000000
   282  O2    s     0.885606    0.233536    0.059908    0.000000
   283  O2    s     0.296484    0.210797    0.431138    0.000000
   284  O2    s     0.871731    0.651046    0.096073    0.000000
   285  O2    s     0.729592    0.080812    0.763038    0.000000
   286  O2    s     0.632629    0.729063    0.930232    0.000000
   287  O3    s     0.055042    0.286670    0.593922    0.000000
   288  O2    s     0.208210    0.885186    0.266465    0.000000
   289  O2    s     0.548093    0.538091    0.985396    0.000000
   290  O2    s     0.407942    0.993806    0.320775    0.000000
   291  O3    s     0.927452    0.391802    0.656330    0.000000
   292  O2    s     0.377680    0.410338    0.483330    0.000000
   293  O2    s     0.527442    0.952295    0.814523    0.000000
   294  O2    s     0.988998    0.565960    0.146401    0.000000
   295  O2    s     0.523006    0.552778    0.341990    0.000000
   296  O2    s     0.993390    0.440148    0.007828    0.000000
   297  O2    s     0.382326    0.960392    0.674356    0.000000
   298  O2    s     0.406478    0.395187    0.842972    0.000000
   299  O2    s     0.942138    0.526657    0.513547    0.000000
   300  O2    s     0.553998    0.008156    0.179526    0.000000
   301  O2    s     0.544759    0.130553    0.251374    0.000000
   302  O2    s     0.810623    0.391668    0.582790    0.000000
   303  O2    s     0.546521    0.404611    0.913517    0.000000
   304  O2    s     0.389248    0.827027    0.744083    0.000000
   305  O2    s     0.121574    0.565158    0.078812    0.000000
   306  O2    s     0.385652    0.547286    0.412134    0.000000
   307  F     s     0.416920    0.879271    0.248762    0.000000
   308  F     s     0.060925    0.483765    0.594011    0.000000
   309  F     s     0.375259    0.481551    0.919215    0.000000
   310  F     s     0.509570    0.076865    0.745651    0.000000
   311  F     s     0.830774    0.427298    0.068321    0.000000
   312  F     s     0.512548    0.423432    0.413980    0.000000
--------------------------------------------------------------------------------

  Final Cartesian lattice vectors (Angstroms) :

       11.979264    0.006902   -0.001565
       -6.056632   10.356152    0.023866
       -0.309101    0.224708   29.437487


  Final cell parameters and derivatives :

--------------------------------------------------------------------------------
       a           11.979266 Angstrom     dE/de1(xx)     0.001320 eV/strain
       b           11.997218 Angstrom     dE/de2(yy)     0.001147 eV/strain
       c           29.439968 Angstrom     dE/de3(zz)     0.001558 eV/strain
       alpha       89.204807 Degrees      dE/de4(yz)    -0.000568 eV/strain
       beta        90.608814 Degrees      dE/de5(xz)    -0.000047 eV/strain
       gamma      120.287496 Degrees      dE/de6(xy)     0.000402 eV/strain
--------------------------------------------------------------------------------

  Primitive cell volume =          3653.151058 Angs**3

  Density of cell =      1.751390 g/cm**3

  Non-primitive cell volume =          3653.151058 Angs**3


  Final internal derivatives :

--------------------------------------------------------------------------------
   No.  Atomic          a             b             c           Radius
        Label          (eV)          (eV)          (eV)        (eV/Angs)
--------------------------------------------------------------------------------
      1 Ge    c       0.000000      0.000000      0.000000      0.000000
      2 Si    c      -0.000114      0.000488      0.000595      0.000000
      3 Si    c      -0.000074      0.000391     -0.001004      0.000000
      4 Si    c       0.000494     -0.000131     -0.000175      0.000000
      5 Si    c       0.001195     -0.000450     -0.000287      0.000000
      6 Si    c       0.000713      0.000048      0.000828      0.000000
      7 Si    c       0.000514      0.000310     -0.000435      0.000000
      8 Si    c       0.001602     -0.000472     -0.000127      0.000000
      9 Si    c       0.000229     -0.000172     -0.000545      0.000000
     10 Si    c      -0.000458     -0.000351     -0.001643      0.000000
     11 Si    c      -0.000022      0.000243      0.000316      0.000000
     12 Si    c       0.000206      0.000645      0.005143      0.000000
     13 Si    c      -0.001151      0.003990     -0.006517      0.000000
     14 Si    c      -0.000249     -0.000112     -0.000580      0.000000
     15 Si    c      -0.000075      0.000064     -0.000354      0.000000
     16 Si    c       0.000496     -0.000028     -0.000158      0.000000
     17 Si    c       0.000644      0.000035     -0.000167      0.000000
     18 Si    c       0.001381      0.000029      0.001051      0.000000
     19 Si    c       0.000517      0.000216     -0.000034      0.000000
     20 Si    c      -0.000403     -0.001704      0.001332      0.000000
     21 Si    c       0.000484      0.000094      0.000679      0.000000
     22 Si    c      -0.001200      0.001440     -0.003410      0.000000
     23 Si    c      -0.000073      0.000283     -0.000145      0.000000
     24 Si    c      -0.000363     -0.000525      0.001599      0.000000
     25 Si    c       0.000863     -0.000369      0.000235      0.000000
     26 Si    c       0.000024     -0.000152     -0.000109      0.000000
     27 Si    c       0.000100      0.000273     -0.000422      0.000000
     28 Si    c       0.000254      0.000525     -0.000077      0.000000
     29 Si    c      -0.000196      0.000364     -0.000119      0.000000
     30 Si    c      -0.000239      0.001060      0.002485      0.000000
     31 Si    c      -0.000027      0.000013      0.000026      0.000000
     32 Si    c       0.000242      0.001326      0.000052      0.000000
     33 Si    c       0.000188     -0.000449     -0.000022      0.000000
     34 Si    c      -0.000765      0.000858     -0.001806      0.000000
     35 Ge    c       0.000272     -0.000088     -0.000285      0.000000
     36 Si    c       0.000368      0.000300     -0.000793      0.000000
     37 Ge    c       0.000455      0.000099     -0.000123      0.000000
     38 Si    c      -0.000075      0.000061     -0.000636      0.000000
     39 Si    c      -0.000055     -0.000095     -0.000597      0.000000
     40 Si    c       0.000210      0.000195     -0.000427      0.000000
     41 Si    c      -0.000258      0.000599     -0.000007      0.000000
     42 Si    c       0.001122     -0.000755      0.000355      0.000000
     43 Si    c       0.000271      0.000097      0.000491      0.000000
     44 Si    c      -0.000220     -0.002784     -0.003064      0.000000
     45 Si    c       0.000111     -0.000230     -0.000046      0.000000
     46 Si    c       0.000043      0.000129      0.000002      0.000000
     47 Si    c       0.000301      0.000043      0.000252      0.000000
     48 Si    c       0.000052      0.000209      0.000345      0.000000
     49 Si    c      -0.000226      0.001491     -0.000842      0.000000
     50 Si    c       0.000296      0.000114     -0.000462      0.000000
     51 Si    c       0.000221      0.000258     -0.000575      0.000000
     52 Si    c       0.000029     -0.000044     -0.000561      0.000000
     53 Si    c       0.000433     -0.000378      0.000482      0.000000
     54 Si    c      -0.000303      0.000205      0.004370      0.000000
     55 Si    c       0.000087      0.000075      0.000223      0.000000
     56 Si    c       0.001138     -0.000306      0.003390      0.000000
     57 Si    c       0.000236      0.000074     -0.000578      0.000000
     58 Si    c       0.000376     -0.000157     -0.003448      0.000000
     59 Si    c       0.000333      0.000344      0.000379      0.000000
     60 Si    c       0.000218      0.000388     -0.000074      0.000000
     61 O2    c       0.001605     -0.000846      0.000588      0.000000
     62 O2    c       0.000362      0.000109      0.000202      0.000000
     63 O2    c       0.000314      0.000017     -0.000683      0.000000
     64 O2    c       0.000353      0.000095      0.000159      0.000000
     65 O2    c       0.000455     -0.000159     -0.000079      0.000000
     66 O2    c       0.000013      0.000037      0.000317      0.000000
     67 O2    c       0.000651      0.000303     -0.000496      0.000000
     68 O2    c      -0.000134      0.000027     -0.000010      0.000000
     69 O2    c       0.000040      0.000532     -0.001039      0.000000
     70 O2    c       0.000360      0.000024     -0.000314      0.000000
     71 O2    c      -0.000948     -0.000608      0.003890      0.000000
     72 O2    c       0.000257      0.000565      0.000211      0.000000
     73 O3    c      -0.006218     -0.002446      0.005321      0.000000
     74 O2    c       0.000511     -0.000283      0.000038      0.000000
     75 O2    c      -0.000198      0.000095     -0.000116      0.000000
     76 O2    c       0.000145     -0.000312      0.000128      0.000000
     77 O2    c       0.000505     -0.000307     -0.000624      0.000000
     78 O2    c       0.000272      0.000311     -0.001390      0.000000
     79 O3    c       0.007006     -0.000400      0.000321      0.000000
     80 O2    c      -0.000057      0.000128     -0.000774      0.000000
     81 O2    c       0.000203     -0.000176     -0.000494      0.000000
     82 O2    c       0.000696     -0.000090     -0.000633      0.000000
     83 O2    c       0.000157      0.000511     -0.000585      0.000000
     84 O2    c       0.000216     -0.000857      0.000893      0.000000
     85 O2    c       0.000387      0.000199      0.000538      0.000000
     86 O2    c       0.005250     -0.003943     -0.004578      0.000000
     87 O2    c      -0.000130      0.000006      0.000146      0.000000
     88 O2    c       0.000315      0.000110      0.000276      0.000000
     89 O2    c       0.000620     -0.000065      0.001236      0.000000
     90 O2    c      -0.000097     -0.000140      0.001120      0.000000
     91 O2    c       0.000329     -0.000016     -0.000666      0.000000
     92 O2    c       0.000113      0.000279     -0.000215      0.000000
     93 O2    c       0.000315     -0.001685     -0.008872      0.000000
     94 O2    c       0.000368     -0.000124      0.001921      0.000000
     95 O2    c      -0.000138      0.002073      0.009936      0.000000
     96 O2    c       0.000244      0.000011      0.000609      0.000000
     97 O2    c      -0.005256      0.003609     -0.003370      0.000000
     98 O2    c      -0.000083      0.000210      0.001275      0.000000
     99 O2    c      -0.000130     -0.000019      0.000859      0.000000
    100 O2    c      -0.000073      0.000093      0.001215      0.000000
    101 O2    c       0.000383     -0.000492     -0.000081      0.000000
    102 O2    c       0.000304      0.000283      0.000539      0.000000
    103 O2    c       0.000418      0.000202     -0.000969      0.000000
    104 O2    c      -0.006743      0.001949     -0.000199      0.000000
    105 O3    c       0.000067      0.000114     -0.001341      0.000000
    106 O2    c       0.000043     -0.000012     -0.000643      0.000000
    107 O2    c      -0.000204      0.000351     -0.000920      0.000000
    108 O2    c      -0.000028      0.000628      0.001773      0.000000
    109 O2    c       0.000251      0.000345      0.000012      0.000000
    110 O2    c      -0.000079     -0.000151     -0.000013      0.000000
    111 O2    c       0.001219     -0.000843     -0.002497      0.000000
    112 O2    c      -0.000048      0.000038     -0.000627      0.000000
    113 O3    c      -0.001981     -0.001895     -0.000048      0.000000
    114 O2    c      -0.000140      0.000451      0.000066      0.000000
    115 O3    c      -0.004535      0.002068     -0.001173      0.000000
    116 O2    c      -0.000123      0.000212     -0.000460      0.000000
    117 O2    c       0.000417     -0.000044     -0.000550      0.000000
    118 O2    c       0.000052     -0.000197     -0.000386      0.000000
    119 O2    c       0.000195      0.000403     -0.000562      0.000000
    120 O2    c       0.001711      0.000459      0.001468      0.000000
    121 O2    c       0.000651     -0.000015      0.000642      0.000000
    122 O2    c       0.001354      0.001376     -0.001022      0.000000
    123 O2    c      -0.000139      0.000147      0.000303      0.000000
    124 O2    c      -0.000491      0.000036      0.000811      0.000000
    125 O2    c       0.000368      0.000337      0.000529      0.000000
    126 O2    c       0.000322     -0.000274      0.000936      0.000000
    127 O3    c       0.000198     -0.000771     -0.000184      0.000000
    128 O2    c      -0.000188      0.000446      0.000751      0.000000
    129 O2    c       0.000084     -0.000158      0.000705      0.000000
    130 O2    c      -0.000001     -0.000112      0.000772      0.000000
    131 O2    c       0.000865     -0.000322      0.000747      0.000000
    132 O2    c       0.000282      0.000227      0.001049      0.000000
    133 O2    c       0.000435      0.000409     -0.000827      0.000000
    134 O2    c       0.001435     -0.000895     -0.000015      0.000000
    135 O3    c       0.000034      0.000262     -0.001473      0.000000
    136 O2    c       0.000238     -0.000030     -0.000461      0.000000
    137 O2    c       0.000342      0.000460     -0.000875      0.000000
    138 O2    c      -0.000114      0.001683      0.001866      0.000000
    139 O3    c      -0.002451     -0.002948     -0.001479      0.000000
    140 O2    c       0.000437      0.000378      0.000624      0.000000
    141 O2    c      -0.000007     -0.000119      0.000369      0.000000
    142 O2    c       0.000097      0.000142      0.000573      0.000000
    143 O2    c       0.000165     -0.000609      0.000287      0.000000
    144 O2    c       0.000457      0.000255      0.000845      0.000000
    145 O2    c      -0.000040      0.000353     -0.000697      0.000000
    146 O3    c       0.001034      0.000099      0.000440      0.000000
    147 O2    c      -0.000125     -0.000033     -0.000601      0.000000
    148 O2    c       0.000088      0.000202     -0.000408      0.000000
    149 O2    c      -0.000085      0.000170     -0.000507      0.000000
    150 O2    c      -0.000300     -0.001130      0.002943      0.000000
    151 O3    c       0.001387     -0.000218      0.000082      0.000000
    152 O2    c      -0.000236      0.000253     -0.000085      0.000000
    153 O2    c       0.000172     -0.000204      0.000614      0.000000
    154 O2    c      -0.000112     -0.000142      0.000301      0.000000
    155 O2    c       0.000267      0.000134      0.000207      0.000000
    156 O2    c       0.000036     -0.000502     -0.004662      0.000000
    157 O2    c       0.000470      0.000379     -0.000560      0.000000
    158 O2    c       0.000195      0.000922      0.004283      0.000000
    159 O2    c      -0.000061     -0.000001     -0.000596      0.000000
    160 O2    c      -0.000202     -0.000200      0.001217      0.000000
    161 O3    c       0.000175      0.000380     -0.001006      0.000000
    162 O2    c       0.000566     -0.000013     -0.000498      0.000000
    163 O2    c      -0.000695      0.002249     -0.001326      0.000000
    164 O2    c       0.000329      0.000022     -0.000996      0.000000
    165 O3    c       0.000238      0.000253     -0.001428      0.000000
    166 O2    c       0.000324      0.000380     -0.000766      0.000000
    167 O2    c       0.000356      0.000035     -0.000668      0.000000
    168 O2    c       0.000366     -0.000067      0.000560      0.000000
    169 O2    c       0.000350     -0.000143      0.001149      0.000000
    170 O2    c       0.000400     -0.000984     -0.000060      0.000000
    171 O2    c       0.000275      0.000011      0.000512      0.000000
    172 O2    c      -0.000349      0.000599      0.001220      0.000000
    173 O2    c       0.000242      0.000005      0.000749      0.000000
    174 O2    c       0.000415     -0.000419      0.000447      0.000000
    175 O2    c       0.000187     -0.000141      0.000447      0.000000
    176 O2    c       0.000429      0.000178     -0.000256      0.000000
    177 O2    c      -0.000178      0.001769     -0.009845      0.000000
    178 O2    c       0.000326      0.000170     -0.000498      0.000000
    179 O2    c       0.001157     -0.000501      0.002738      0.000000
    180 O2    c       0.000534     -0.000185      0.000593      0.000000
    181 F     c       0.000195      0.000017     -0.000036      0.000000
    182 F     c       0.000316     -0.000274      0.000780      0.000000
    183 F     c       0.000576     -0.000743      0.000996      0.000000
    184 F     c       0.000106      0.000090     -0.000202      0.000000
    185 F     c       0.000148      0.000375     -0.001862      0.000000
    186 F     c       0.000281      0.000151      0.000028      0.000000
    187 O2    s       0.002658     -0.001163      0.001159      0.000000
    188 O2    s       0.000334      0.000297      0.000289      0.000000
    189 O2    s       0.000269      0.000188     -0.001084      0.000000
    190 O2    s       0.000777     -0.000006      0.000005      0.000000
    191 O2    s      -0.000236      0.000319     -0.001135      0.000000
    192 O2    s       0.000097      0.000027      0.001503      0.000000
    193 O2    s       0.000947      0.000389     -0.000508      0.000000
    194 O2    s      -0.000667      0.000659     -0.000131      0.000000
    195 O2    s      -0.000553      0.001319     -0.003454      0.000000
    196 O2    s       0.000269      0.000098      0.000744      0.000000
    197 O2    s      -0.000058     -0.001281      0.006847      0.000000
    198 O2    s       0.000441      0.000434      0.000470      0.000000
    199 O3    s       0.002439     -0.002623      0.003415      0.000000
    200 O2    s       0.001007     -0.001018     -0.000104      0.000000
    201 O2    s      -0.000224     -0.000005     -0.000327      0.000000
    202 O2    s       0.000129      0.000024      0.000075      0.000000
    203 O2    s      -0.000214      0.000610      0.000493      0.000000
    204 O2    s       0.000031      0.000718     -0.000360      0.000000
    205 O3    s       0.006400      0.001334     -0.001886      0.000000
    206 O2    s      -0.000008      0.000120     -0.001483      0.000000
    207 O2    s       0.000750     -0.000341     -0.001180      0.000000
    208 O2    s       0.000745     -0.000083     -0.001434      0.000000
    209 O2    s       0.000427      0.000021     -0.000764      0.000000
    210 O2    s       0.000411     -0.000756      0.004405      0.000000
    211 O2    s       0.000596      0.000131      0.001127      0.000000
    212 O2    s       0.006060     -0.004965     -0.005808      0.000000
    213 O2    s      -0.000341      0.000413      0.000047      0.000000
    214 O2    s       0.000236      0.000182     -0.001091      0.000000
    215 O2    s       0.000510      0.000067      0.001289      0.000000
    216 O2    s       0.000170     -0.000120      0.001486      0.000000
    217 O2    s       0.000489      0.000258      0.000126      0.000000
    218 O2    s       0.000778      0.000178     -0.000199      0.000000
    219 O2    s      -0.000376     -0.001856     -0.007686      0.000000
    220 O2    s       0.000269      0.000233      0.001866      0.000000
    221 O2    s       0.000910      0.002068      0.007518      0.000000
    222 O2    s       0.000360     -0.000196      0.000531      0.000000
    223 O2    s      -0.006691      0.005272     -0.003305      0.000000
    224 O2    s      -0.000030      0.000163      0.001575      0.000000
    225 O2    s       0.000377     -0.000385      0.000234      0.000000
    226 O2    s       0.000089      0.000016      0.001091      0.000000
    227 O2    s      -0.000430      0.000491     -0.000106      0.000000
    228 O2    s       0.000295      0.000313      0.002550      0.000000
    229 O2    s       0.000456      0.000144     -0.001143      0.000000
    230 O2    s      -0.008606      0.001455     -0.001271      0.000000
    231 O3    s      -0.000706      0.000308     -0.000997      0.000000
    232 O2    s      -0.000084      0.000172     -0.001760      0.000000
    233 O2    s       0.000085      0.000166     -0.000993      0.000000
    234 O2    s       0.000955      0.000606      0.002867      0.000000
    235 O2    s       0.000344      0.000695      0.000164      0.000000
    236 O2    s      -0.000718      0.000557     -0.000108      0.000000
    237 O2    s      -0.000072      0.001172     -0.002708      0.000000
    238 O2    s       0.000751     -0.000779     -0.000419      0.000000
    239 O3    s      -0.001085      0.000212     -0.000816      0.000000
    240 O2    s      -0.000250      0.000706      0.000437      0.000000
    241 O3    s      -0.002882      0.001702     -0.004102      0.000000
    242 O2    s      -0.000142      0.000093     -0.000756      0.000000
    243 O2    s       0.001056     -0.000609     -0.000820      0.000000
    244 O2    s       0.000203      0.000020     -0.000722      0.000000
    245 O2    s       0.000848      0.000092     -0.000876      0.000000
    246 O2    s       0.000830      0.001170      0.003320      0.000000
    247 O2    s       0.000948     -0.000075      0.000808      0.000000
    248 O2    s       0.000363     -0.000402     -0.002231      0.000000
    249 O2    s      -0.000484      0.000860      0.000532      0.000000
    250 O2    s       0.001277     -0.001079     -0.001691      0.000000
    251 O2    s       0.000139      0.000470      0.000967      0.000000
    252 O2    s       0.000585     -0.000504      0.001963      0.000000
    253 O3    s       0.001457      0.000559      0.000262      0.000000
    254 O2    s      -0.000177      0.000491      0.000906      0.000000
    255 O2    s       0.000835     -0.000784      0.000628      0.000000
    256 O2    s       0.000057      0.000012      0.001394      0.000000
    257 O2    s      -0.000622      0.000530     -0.001088      0.000000
    258 O2    s       0.000068      0.000660      0.002000      0.000000
    259 O2    s       0.000510      0.000396     -0.001321      0.000000
    260 O2    s       0.000202      0.000595     -0.000288      0.000000
    261 O3    s      -0.000817      0.000735     -0.001577      0.000000
    262 O2    s      -0.000245     -0.000017     -0.001112      0.000000
    263 O2    s       0.000129      0.000349     -0.001053      0.000000
    264 O2    s       0.000910     -0.000143      0.003269      0.000000
    265 O3    s      -0.000122     -0.001921      0.000300      0.000000
    266 O2    s       0.000220      0.000555      0.001247      0.000000
    267 O2    s      -0.000196      0.000061      0.000727      0.000000
    268 O2    s      -0.000243      0.000632      0.000657      0.000000
    269 O2    s      -0.000534      0.001203     -0.001201      0.000000
    270 O2    s       0.000305      0.000353      0.001222      0.000000
    271 O2    s      -0.000124      0.000283     -0.001209      0.000000
    272 O3    s      -0.000543      0.000870     -0.002382      0.000000
    273 O2    s       0.000056     -0.000303     -0.001433      0.000000
    274 O2    s       0.001012     -0.000944     -0.000571      0.000000
    275 O2    s       0.000082      0.000083     -0.000679      0.000000
    276 O2    s      -0.000579     -0.000411      0.006819      0.000000
    277 O3    s      -0.000769      0.001568      0.000123      0.000000
    278 O2    s      -0.000206      0.000238      0.000218      0.000000
    279 O2    s       0.000876     -0.000708      0.000489      0.000000
    280 O2    s       0.000011     -0.000007      0.000129      0.000000
    281 O2    s       0.001310     -0.000706      0.000053      0.000000
    282 O2    s      -0.000570      0.000489     -0.002268      0.000000
    283 O2    s       0.000865      0.000299     -0.000131      0.000000
    284 O2    s       0.000490     -0.000183      0.005201      0.000000
    285 O2    s      -0.000610      0.000580     -0.000530      0.000000
    286 O2    s      -0.000042      0.000076      0.000867      0.000000
    287 O3    s      -0.000518      0.000967     -0.000528      0.000000
    288 O2    s       0.001005      0.000034     -0.000127      0.000000
    289 O2    s      -0.000580      0.000900     -0.004089      0.000000
    290 O2    s       0.000262      0.000154     -0.001701      0.000000
    291 O3    s       0.000043      0.000214     -0.002409      0.000000
    292 O2    s       0.000648      0.000181     -0.001215      0.000000
    293 O2    s      -0.000470      0.000866     -0.000895      0.000000
    294 O2    s       0.000877     -0.000332      0.000804      0.000000
    295 O2    s       0.000435      0.000061      0.001696      0.000000
    296 O2    s      -0.000856     -0.000128      0.001046      0.000000
    297 O2    s       0.000368      0.000127      0.001169      0.000000
    298 O2    s       0.000974     -0.000619     -0.002256      0.000000
    299 O2    s       0.000602     -0.000228      0.001254      0.000000
    300 O2    s       0.000149     -0.000212      0.001762      0.000000
    301 O2    s       0.000136     -0.000462      0.000391      0.000000
    302 O2    s       0.001031     -0.000272     -0.000229      0.000000
    303 O2    s       0.002273      0.000725     -0.006905      0.000000
    304 O2    s       0.000013      0.001024     -0.000099      0.000000
    305 O2    s      -0.000606      0.000443      0.002731      0.000000
    306 O2    s       0.001041     -0.000124      0.000427      0.000000
    307 F     s       0.000192      0.000073     -0.000131      0.000000
    308 F     s       0.000195     -0.000197      0.001201      0.000000
    309 F     s       0.000358     -0.000173      0.000578      0.000000
    310 F     s       0.000185      0.000084      0.000038      0.000000
    311 F     s       0.001003     -0.000310     -0.002716      0.000000
    312 F     s       0.000348      0.000136      0.000038      0.000000
--------------------------------------------------------------------------------
  Maximum abs         0.008606      0.005272      0.009936      0.000000
--------------------------------------------------------------------------------


  Time to end of optimisation =      55.6589 seconds


  Peak dynamic memory used =      19.13 MB 


  Timing analysis for GULP :

--------------------------------------------------------------------------------
  Task / Subroutine                                          Time (Seconds)
--------------------------------------------------------------------------------
  Calculation of reciprocal space energy and derivatives          1.4449
  Calculation of real space energy and derivatives               48.4637
  Calculation of three-body energy and derivatives                4.8789
  Calculation of matrix inversion                                 0.7460
--------------------------------------------------------------------------------
  Total CPU time                                                 55.6590
--------------------------------------------------------------------------------


  Dump file written as out.res                                                 
  CIF file written as out.cif                                                 


  Job Finished at 16:35.45  8th November   2016                               

