********************************************************************************
*                       GENERAL UTILITY LATTICE PROGRAM                        *
*                                 Julian Gale                                  *
*                      Nanochemistry Research Institute                        *
*                           Department of Chemistry                            *
*                    Curtin University, Western Australia                      *
********************************************************************************
* Version = 4.2.0 * Last modified =  20th January 2014                         *
********************************************************************************
*  optimise     - perform optimisation run                                     *
*  conp         - constant pressure calculation                                *
*  qok          - running with non charge neutral cell is OK                   *
********************************************************************************

  Job Started  at 04:32.32 10th November   2016                               

  Number of CPUs =     1


  Total number of configurations input =   1

********************************************************************************
*  Input for Configuration =   1                                               *
********************************************************************************

  Formula = Ge3Si57O120F6                                               

  Number of irreducible atoms/shells =     312


  Total number atoms/shells =     312

  Dimensionality = 3               :  Bulk   


  Charge on solid   =  -6.000000 =>neutralising background added


  Cartesian lattice vectors (Angstroms) :

       11.988555    0.000000    0.000000
       -6.061597   10.322238    0.000000
       -0.133246   -0.139647   29.540666

  Cell parameters (Angstroms/Degrees):

  a =      11.9886    alpha =  90.1027
  b =      11.9704    beta  =  90.2584
  c =      29.5413    gamma = 120.4230

  Initial cell volume =        3655.619666 Angs**3

  Temperature of configuration =  0.000     K 

  Pressure of configuration =         0.000 GPa 

  Fractional coordinates of asymmetric unit :

--------------------------------------------------------------------------------
   No.  Atomic       x           y          z         Charge      Occupancy
        Label      (Frac)      (Frac)     (Frac)        (e)         (Frac)  
--------------------------------------------------------------------------------
      1 Ge    c    0.699600    0.375700    0.033890     4.00000    1.000000    
      2 Si    c    0.624936 *  0.324324 *  0.367664 *   4.00000    1.000000    
      3 Si    c    0.676298 *  0.296265 *  0.699986 *   4.00000    1.000000    
      4 Si    c    0.290338 *  0.620675 *  0.533772 *   4.00000    1.000000    
      5 Si    c    0.380534 *  0.676496 *  0.865685 *   4.00000    1.000000    
      6 Si    c    0.323110 *  0.703914 *  0.200171 *   4.00000    1.000000    
      7 Si    c    0.377206 *  0.701052 *  0.300373 *   4.00000    1.000000    
      8 Si    c    0.328755 *  0.618818 *  0.965549 *   4.00000    1.000000    
      9 Si    c    0.295976 *  0.676946 *  0.633697 *   4.00000    1.000000    
     10 Si    c    0.622634 *  0.296753 *  0.800049 *   4.00000    1.000000    
     11 Si    c    0.679158 *  0.375831 *  0.470130 *   4.00000    1.000000    
     12 Si    c    0.695552 *  0.320963 *  0.134993 *   4.00000    1.000000    
     13 Si    c    0.528639 *  0.408945 *  0.965666 *   4.00000    1.000000    
     14 Si    c    0.582673 *  0.110397 *  0.303245 *   4.00000    1.000000    
     15 Si    c    0.886306 *  0.467557 *  0.635355 *   4.00000    1.000000    
     16 Si    c    0.466378 *  0.589144 *  0.468896 *   4.00000    1.000000    
     17 Si    c    0.416681 *  0.885955 *  0.800680 *   4.00000    1.000000    
     18 Si    c    0.114112 *  0.532575 *  0.133491 *   4.00000    1.000000    
     19 Si    c    0.417447 *  0.531672 *  0.365485 *   4.00000    1.000000    
     20 Si    c    0.118991 *  0.586231 *  0.030077 *   4.00000    1.000000    
     21 Si    c    0.468463 *  0.886518 *  0.699310 *   4.00000    1.000000    
     22 Si    c    0.582994 *  0.467985 *  0.864375 *   4.00000    1.000000    
     23 Si    c    0.884899 *  0.411027 *  0.534289 *   4.00000    1.000000    
     24 Si    c    0.531811 *  0.112195 *  0.202154 *   4.00000    1.000000    
     25 Si    c    0.302406 *  0.398232 *  0.849773 *   4.00000    1.000000    
     26 Si    c    0.603547 *  0.904536 *  0.186244 *   4.00000    1.000000    
     27 Si    c    0.088802 *  0.695461 *  0.518448 *   4.00000    1.000000    
     28 Si    c    0.702948 *  0.605091 *  0.349092 *   4.00000    1.000000    
     29 Si    c    0.396788 *  0.095054 *  0.685094 *   4.00000    1.000000    
     30 Si    c    0.902012 *  0.299563 *  0.015422 *   4.00000    1.000000    
     31 Si    c    0.397198 *  0.303819 *  0.483509 *   4.00000    1.000000    
     32 Si    c    0.900762 *  0.604858 *  0.148767 *   4.00000    1.000000    
     33 Si    c    0.699345 *  0.096137 *  0.814684 *   4.00000    1.000000    
     34 Si    c    0.605765 *  0.692814 *  0.980640 *   4.00000    1.000000    
     35 Si    c    0.096329 *  0.397702 *  0.649270 *   4.00000    1.000000    
     36 Si    c    0.299857 *  0.901409 *  0.316082 *   4.00000    1.000000    
     37 Si    c    0.251150 *  0.337155 *  0.949553 *   4.00000    1.000000    
     38 Si    c    0.660267 *  0.910128 *  0.286935 *   4.00000    1.000000    
     39 Si    c    0.086617 *  0.747794 *  0.619192 *   4.00000    1.000000    
     40 Ge    c    0.731170 *  0.642643 *  0.448858 *   4.00000    1.000000    
     41 Si    c    0.339677 *  0.087346 *  0.785506 *   4.00000    1.000000    
     42 Si    c    0.910247 *  0.250563 *  0.117724 *   4.00000    1.000000    
     43 Si    c    0.338068 *  0.250053 *  0.381666 *   4.00000    1.000000    
     44 Ge    c    0.909311 *  0.654623 *  0.046925 *   4.00000    1.000000    
     45 Si    c    0.748976 *  0.088200 *  0.714297 *   4.00000    1.000000    
     46 Si    c    0.661432 *  0.747356 *  0.880308 *   4.00000    1.000000    
     47 Si    c    0.087675 *  0.336950 *  0.549089 *   4.00000    1.000000    
     48 Si    c    0.250608 *  0.911716 *  0.215498 *   4.00000    1.000000    
     49 Si    c    0.972281 *  0.120402 *  0.965682 *   4.00000    1.000000    
     50 Si    c    0.878803 *  0.850193 *  0.299385 *   4.00000    1.000000    
     51 Si    c    0.149283 *  0.027998 *  0.633809 *   4.00000    1.000000    
     52 Si    c    0.017733 *  0.872537 *  0.466980 *   4.00000    1.000000    
     53 Si    c    0.122081 *  0.148955 *  0.799553 *   4.00000    1.000000    
     54 Si    c    0.848071 *  0.970239 *  0.133432 *   4.00000    1.000000    
     55 Si    c    0.119349 *  0.966792 *  0.366825 *   4.00000    1.000000    
     56 Si    c    0.854123 *  0.879523 *  0.032312 *   4.00000    1.000000    
     57 Si    c    0.028361 *  0.149343 *  0.698961 *   4.00000    1.000000    
     58 Si    c    0.879322 *  0.027719 *  0.864747 *   4.00000    1.000000    
     59 Si    c    0.147871 *  0.118401 *  0.532692 *   4.00000    1.000000    
     60 Si    c    0.972274 *  0.852735 *  0.199344 *   4.00000    1.000000    
     61 O2    c    0.926270 *  0.003757 *  0.000215 *   0.87073    1.000000    
     62 O2    c    0.000056 *  0.925863 *  0.332878 *   0.87073    1.000000    
     63 O2    c    0.069406 *  0.071373 *  0.665330 *   0.87073    1.000000    
     64 O2    c    0.070199 *  0.999408 *  0.499026 *   0.87073    1.000000    
     65 O2    c    0.000760 *  0.070236 *  0.832269 *   0.87073    1.000000    
     66 O2    c    0.930426 *  0.929218 *  0.165114 *   0.87073    1.000000    
     67 O2    c    0.339292 *  0.577195 *  0.332584 *   0.87073    1.000000    
     68 O2    c    0.419688 *  0.761504 *  0.666521 *   0.87073    1.000000    
     69 O2    c    0.247718 *  0.657842 *  0.999605 *   0.87073    1.000000    
     70 O2    c    0.661107 *  0.420948 *  0.832316 *   0.87073    1.000000    
     71 O2    c    0.582241 *  0.239479 *  0.171147 *   0.87073    1.000000    
     72 O2    c    0.757269 *  0.328203 *  0.502438 *   0.87073    1.000000    
     73 O3    c    0.566943 *  0.326747 *  0.997411 *   1.33043    1.000000    
     74 O2    c    0.761262 *  0.419757 *  0.667517 *   0.87073    1.000000    
     75 O2    c    0.659659 *  0.235878 *  0.336064 *   0.87073    1.000000    
     76 O2    c    0.409366 *  0.660173 *  0.499423 *   0.87073    1.000000    
     77 O2    c    0.238254 *  0.581621 *  0.166551 *   0.87073    1.000000    
     78 O2    c    0.341254 *  0.761015 *  0.833365 *   0.87073    1.000000    
     79 O2    c    0.126949 *  0.209871 *  0.970298 *   0.87073    1.000000    
     80 O2    c    0.787201 *  0.911914 *  0.306943 *   0.87073    1.000000    
     81 O2    c    0.085811 *  0.873476 *  0.639548 *   0.87073    1.000000    
     82 O3    c    0.868269 *  0.787470 *  0.470920 *   1.33043    1.000000    
     83 O2    c    0.213367 *  0.086580 *  0.805520 *   0.87073    1.000000    
     84 O2    c    0.909665 *  0.125609 *  0.138708 *   0.87073    1.000000    
     85 O2    c    0.213890 *  0.122501 *  0.361247 *   0.87073    1.000000    
     86 O3    c    0.928781 *  0.803894 *  0.028475 *   1.33043    1.000000    
     87 O2    c    0.873732 *  0.086615 *  0.693932 *   0.87073    1.000000    
     88 O2    c    0.787503 *  0.872944 *  0.859489 *   0.87073    1.000000    
     89 O2    c    0.086522 *  0.210848 *  0.528431 *   0.87073    1.000000    
     90 O2    c    0.127224 *  0.915730 *  0.194792 *   0.87073    1.000000    
     91 O2    c    0.933889 *  0.873752 *  0.249013 *   0.87073    1.000000    
     92 O2    c    0.137149 *  0.065259 *  0.582909 *   0.87073    1.000000    
     93 O2    c    0.930978 *  0.064680 *  0.915525 *   0.87073    1.000000    
     94 O2    c    0.068361 *  0.132687 *  0.748984 *   0.87073    1.000000    
     95 O2    c    0.856017 *  0.932325 *  0.082687 *   0.87073    1.000000    
     96 O2    c    0.068611 *  0.929873 *  0.416979 *   0.87073    1.000000    
     97 O2    c    0.907559 *  0.206476 *  0.977049 *   0.87073    1.000000    
     98 O2    c    0.792588 *  0.695571 *  0.307393 *   0.87073    1.000000    
     99 O2    c    0.300992 *  0.098040 *  0.646613 *   0.87073    1.000000    
    100 O2    c    0.087446 *  0.789877 *  0.479744 *   0.87073    1.000000    
    101 O2    c    0.204649 *  0.301829 *  0.810795 *   0.87073    1.000000    
    102 O2    c    0.697759 *  0.901018 *  0.147802 *   0.87073    1.000000    
    103 O2    c    0.202021 *  0.898341 *  0.354370 *   0.87073    1.000000    
    104 O2    c    0.702181 *  0.787489 *  0.019862 *   0.87073    1.000000    
    105 O2    c    0.098401 *  0.302065 *  0.687869 *   0.87073    1.000000    
    106 O2    c    0.797933 *  0.097818 *  0.852978 *   0.87073    1.000000    
    107 O2    c    0.300556 *  0.204591 *  0.520980 *   0.87073    1.000000    
    108 O2    c    0.904662 *  0.699197 *  0.189620 *   0.87073    1.000000    
    109 O2    c    0.320481 *  0.643869 *  0.249949 *   0.87073    1.000000    
    110 O2    c    0.353410 *  0.679090 *  0.583477 *   0.87073    1.000000    
    111 O2    c    0.324108 *  0.676667 *  0.915946 *   0.87073    1.000000    
    112 O2    c    0.679278 *  0.354912 *  0.750084 *   0.87073    1.000000    
    113 O3    c    0.629375 *  0.311902 *  0.086959 *   1.33043    1.000000    
    114 O2    c    0.678087 *  0.325255 *  0.418290 *   0.87073    1.000000    
    115 O2    c    0.371520 *  0.324348 *  0.966770 *   0.87073    1.000000    
    116 O2    c    0.669548 *  0.041680 *  0.306118 *   0.87073    1.000000    
    117 O2    c    0.955367 *  0.624294 *  0.637955 *   0.87073    1.000000    
    118 O3    c    0.618752 *  0.679316 *  0.473249 *   1.33043    1.000000    
    119 O2    c    0.329563 *  0.954710 *  0.803666 *   0.87073    1.000000    
    120 O2    c    0.041730 *  0.375974 *  0.135784 *   0.87073    1.000000    
    121 O2    c    0.332439 *  0.374451 *  0.363617 *   0.87073    1.000000    
    122 O3    c    0.056038 *  0.675411 *  0.027374 *   1.33043    1.000000    
    123 O2    c    0.624882 *  0.955036 *  0.696373 *   0.87073    1.000000    
    124 O2    c    0.669783 *  0.624852 *  0.861347 *   0.87073    1.000000    
    125 O2    c    0.954118 *  0.324762 *  0.531235 *   0.87073    1.000000    
    126 O2    c    0.375563 *  0.043852 *  0.198048 *   0.87073    1.000000    
    127 O3    c    0.766609 *  0.290369 *  0.008362 *   1.33043    1.000000    
    128 O2    c    0.698371 *  0.466875 *  0.344833 *   0.87073    1.000000    
    129 O2    c    0.532325 *  0.228836 *  0.677675 *   0.87073    1.000000    
    130 O2    c    0.223140 *  0.696146 *  0.511539 *   0.87073    1.000000    
    131 O2    c    0.304840 *  0.533457 *  0.842306 *   0.87073    1.000000    
    132 O2    c    0.466560 *  0.772032 *  0.178225 *   0.87073    1.000000    
    133 O2    c    0.301710 *  0.768054 *  0.322781 *   0.87073    1.000000    
    134 O2    c    0.472488 *  0.694450 *  0.987914 *   0.87073    1.000000    
    135 O2    c    0.229787 *  0.533811 *  0.656444 *   0.87073    1.000000    
    136 O2    c    0.698618 *  0.229789 *  0.822492 *   0.87073    1.000000    
    137 O2    c    0.531645 *  0.304707 *  0.489261 *   0.87073    1.000000    
    138 O2    c    0.767968 *  0.467763 *  0.155491 *   0.87073    1.000000    
    139 O1    c    0.769763 *  0.540937 *  0.021656 *   1.73396    1.000000    
    140 O2    c    0.469510 *  0.258799 *  0.364830 *   0.87073    1.000000    
    141 O2    c    0.750185 *  0.214567 *  0.694780 *   0.87073    1.000000    
    142 O2    c    0.212955 *  0.463490 *  0.529151 *   0.87073    1.000000    
    143 O2    c    0.537049 *  0.751667 *  0.861509 *   0.87073    1.000000    
    144 O2    c    0.247846 *  0.784400 *  0.195644 *   0.87073    1.000000    
    145 O2    c    0.533682 *  0.782680 *  0.305701 *   0.87073    1.000000    
    146 O2    c    0.250271 *  0.461989 *  0.970157 *   0.87073    1.000000    
    147 O2    c    0.214522 *  0.751232 *  0.638358 *   0.87073    1.000000    
    148 O2    c    0.466175 *  0.214346 *  0.805055 *   0.87073    1.000000    
    149 O3    c    0.759675 *  0.529203 *  0.476822 *   1.33043    1.000000    
    150 O2    c    0.786950 *  0.256862 *  0.135272 *   0.87073    1.000000    
    151 O2    c    0.228846 *  0.321723 *  0.895343 *   0.87073    1.000000    
    152 O2    c    0.677183 *  0.908405 *  0.232736 *   0.87073    1.000000    
    153 O2    c    0.085298 *  0.765334 *  0.565044 *   0.87073    1.000000    
    154 O3    c    0.782172 *  0.688455 *  0.391926 *   1.33043    1.000000    
    155 O2    c    0.322144 *  0.089710 *  0.731289 *   0.87073    1.000000    
    156 O2    c    0.910743 *  0.238788 *  0.063646 *   0.87073    1.000000    
    157 O2    c    0.327503 *  0.240209 *  0.435740 *   0.87073    1.000000    
    158 O3    c    0.904978 *  0.683673 *  0.105116 *   1.33043    1.000000    
    159 O2    c    0.769402 *  0.091762 *  0.768504 *   0.87073    1.000000    
    160 O2    c    0.681255 *  0.764391 *  0.934581 *   0.87073    1.000000    
    161 O2    c    0.091364 *  0.321105 *  0.603296 *   0.87073    1.000000    
    162 O2    c    0.230604 *  0.907279 *  0.269658 *   0.87073    1.000000    
    163 O2    c    0.585728 *  0.551125 *  0.988934 *   0.87073    1.000000    
    164 O2    c    0.440205 *  0.027551 *  0.325556 *   0.87073    1.000000    
    165 O2    c    0.970893 *  0.410989 *  0.658124 *   0.87073    1.000000    
    166 O2    c    0.415499 *  0.445292 *  0.490321 *   0.87073    1.000000    
    167 O2    c    0.559206 *  0.970543 *  0.823390 *   0.87073    1.000000    
    168 O2    c    0.023950 *  0.584748 *  0.153506 *   0.87073    1.000000    
    169 O2    c    0.558692 *  0.584328 *  0.343381 *   0.87073    1.000000    
    170 O2    c    0.024272 *  0.443832 *  0.008549 *   0.87073    1.000000    
    171 O2    c    0.410514 *  0.969681 *  0.676279 *   0.87073    1.000000    
    172 O2    c    0.441081 *  0.410634 *  0.841396 *   0.87073    1.000000    
    173 O2    c    0.966652 *  0.551778 *  0.510675 *   0.87073    1.000000    
    174 O2    c    0.591645 *  0.031568 *  0.178406 *   0.87073    1.000000    
    175 O2    c    0.584669 *  0.165618 *  0.252941 *   0.87073    1.000000    
    176 O2    c    0.832479 *  0.412563 *  0.584765 *   0.87073    1.000000    
    177 O2    c    0.583614 *  0.414907 *  0.914774 *   0.87073    1.000000    
    178 O2    c    0.415131 *  0.832551 *  0.749862 *   0.87073    1.000000    
    179 O2    c    0.161207 *  0.580694 *  0.082435 *   0.87073    1.000000    
    180 O2    c    0.417932 *  0.582883 *  0.416257 *   0.87073    1.000000    
    181 F     c    0.451903 *  0.904063 *  0.251102 *   0.56000    1.000000    
    182 F     c    0.096517 *  0.546217 *  0.584243 *   0.56000    1.000000    
    183 F     c    0.450047 *  0.547066 *  0.914819 *   0.56000    1.000000    
    184 F     c    0.548401 *  0.095866 *  0.749898 *   0.56000    1.000000    
    185 F     c    0.878098 *  0.464660 *  0.074206 *   0.56000    1.000000    
    186 F     c    0.583215 *  0.490337 *  0.422031 *   0.56000    1.000000    
    187 O2    s    0.923567 *  0.003534 *  0.999773 *  -2.87073    1.000000    
    188 O2    s    0.999810 *  0.921984 *  0.332906 *  -2.87073    1.000000    
    189 O2    s    0.073731 *  0.075186 *  0.665554 *  -2.87073    1.000000    
    190 O2    s    0.073664 *  0.999787 *  0.499534 *  -2.87073    1.000000    
    191 O2    s    0.000707 *  0.074255 *  0.832248 *  -2.87073    1.000000    
    192 O2    s    0.925995 *  0.925367 *  0.165402 *  -2.87073    1.000000    
    193 O2    s    0.351235 *  0.585195 *  0.332659 *  -2.87073    1.000000    
    194 O2    s    0.411949 *  0.765746 *  0.666519 *  -2.87073    1.000000    
    195 O2    s    0.242320 *  0.646239 *  0.999357 *  -2.87073    1.000000    
    196 O2    s    0.649096 *  0.412937 *  0.832277 *  -2.87073    1.000000    
    197 O2    s    0.588785 *  0.234541 *  0.170626 *  -2.87073    1.000000    
    198 O2    s    0.762026 *  0.341210 *  0.502334 *  -2.87073    1.000000    
    199 O3    s    0.572812 *  0.338690 *  0.996895 *  -3.33043    1.000000    
    200 O2    s    0.765491 *  0.411984 *  0.667533 *  -2.87073    1.000000    
    201 O2    s    0.648064 *  0.232243 *  0.336010 *  -2.87073    1.000000    
    202 O2    s    0.402998 *  0.648429 *  0.499744 *  -2.87073    1.000000    
    203 O2    s    0.233871 *  0.588958 *  0.166521 *  -2.87073    1.000000    
    204 O2    s    0.353064 *  0.765268 *  0.833310 *  -2.87073    1.000000    
    205 O2    s    0.123129 *  0.213432 *  0.967669 *  -2.87073    1.000000    
    206 O2    s    0.783508 *  0.905302 *  0.304091 *  -2.87073    1.000000    
    207 O2    s    0.092632 *  0.876934 *  0.636868 *  -2.87073    1.000000    
    208 O3    s    0.876237 *  0.787587 *  0.469022 *  -3.33043    1.000000    
    209 O2    s    0.216749 *  0.093227 *  0.802851 *  -2.87073    1.000000    
    210 O2    s    0.903376 *  0.122750 *  0.135984 *  -2.87073    1.000000    
    211 O2    s    0.217592 *  0.120322 *  0.363975 *  -2.87073    1.000000    
    212 O3    s    0.919260 *  0.801520 *  0.030187 *  -3.33043    1.000000    
    213 O2    s    0.877240 *  0.093422 *  0.696542 *  -2.87073    1.000000    
    214 O2    s    0.784274 *  0.876493 *  0.862178 *  -2.87073    1.000000    
    215 O2    s    0.093166 *  0.214144 *  0.531014 *  -2.87073    1.000000    
    216 O2    s    0.123828 *  0.908733 *  0.197393 *  -2.87073    1.000000    
    217 O2    s    0.932035 *  0.868762 *  0.249083 *  -2.87073    1.000000    
    218 O2    s    0.139728 *  0.067079 *  0.582972 *  -2.87073    1.000000    
    219 O2    s    0.929811 *  0.066815 *  0.915454 *  -2.87073    1.000000    
    220 O2    s    0.069875 *  0.136368 *  0.749031 *  -2.87073    1.000000    
    221 O2    s    0.854904 *  0.931135 *  0.083256 *  -2.87073    1.000000    
    222 O2    s    0.069259 *  0.928210 *  0.416318 *  -2.87073    1.000000    
    223 O2    s    0.913957 *  0.207080 *  0.979888 *  -2.87073    1.000000    
    224 O2    s    0.792749 *  0.702771 *  0.310606 *  -2.87073    1.000000    
    225 O2    s    0.294635 *  0.090296 *  0.649180 *  -2.87073    1.000000    
    226 O2    s    0.080568 *  0.788211 *  0.482527 *  -2.87073    1.000000    
    227 O2    s    0.205803 *  0.295353 *  0.813564 *  -2.87073    1.000000    
    228 O2    s    0.703855 *  0.908692 *  0.150284 *  -2.87073    1.000000    
    229 O2    s    0.203507 *  0.905843 *  0.351686 *  -2.87073    1.000000    
    230 O2    s    0.707839 *  0.787138 *  0.017073 *  -2.87073    1.000000    
    231 O2    s    0.090772 *  0.295611 *  0.685115 *  -2.87073    1.000000    
    232 O2    s    0.796501 *  0.090232 *  0.850312 *  -2.87073    1.000000    
    233 O2    s    0.295056 *  0.206265 *  0.518206 *  -2.87073    1.000000    
    234 O2    s    0.911428 *  0.706081 *  0.186639 *  -2.87073    1.000000    
    235 O2    s    0.326502 *  0.655801 *  0.249996 *  -2.87073    1.000000    
    236 O2    s    0.341162 *  0.672916 *  0.583529 *  -2.87073    1.000000    
    237 O2    s    0.330245 *  0.670792 *  0.915884 *  -2.87073    1.000000    
    238 O2    s    0.673173 *  0.342913 *  0.750055 *  -2.87073    1.000000    
    239 O3    s    0.641108 *  0.317510 *  0.087865 *  -3.33043    1.000000    
    240 O2    s    0.672649 *  0.330173 *  0.418049 *  -2.87073    1.000000    
    241 O2    s    0.374454 *  0.334460 *  0.964746 *  -2.87073    1.000000    
    242 O2    s    0.659552 *  0.035080 *  0.303805 *  -2.87073    1.000000    
    243 O2    s    0.962026 *  0.621049 *  0.635705 *  -2.87073    1.000000    
    244 O3    s    0.611091 *  0.667297 *  0.471016 *  -3.33043    1.000000    
    245 O2    s    0.339546 *  0.961493 *  0.801455 *  -2.87073    1.000000    
    246 O2    s    0.035424 *  0.379059 *  0.133650 *  -2.87073    1.000000    
    247 O2    s    0.341743 *  0.377413 *  0.365712 *  -2.87073    1.000000    
    248 O3    s    0.051212 *  0.664661 *  0.029155 *  -3.33043    1.000000    
    249 O2    s    0.621814 *  0.962004 *  0.698581 *  -2.87073    1.000000    
    250 O2    s    0.659914 *  0.621546 *  0.863670 *  -2.87073    1.000000    
    251 O2    s    0.961013 *  0.335010 *  0.533454 *  -2.87073    1.000000    
    252 O2    s    0.378563 *  0.036967 *  0.200327 *  -2.87073    1.000000    
    253 O3    s    0.775811 *  0.297676 *  0.011049 *  -3.33043    1.000000    
    254 O2    s    0.691223 *  0.466044 *  0.347666 *  -2.87073    1.000000    
    255 O2    s    0.532877 *  0.221679 *  0.680793 *  -2.87073    1.000000    
    256 O2    s    0.215989 *  0.688183 *  0.514622 *  -2.87073    1.000000    
    257 O2    s    0.312357 *  0.533857 *  0.845526 *  -2.87073    1.000000    
    258 O2    s    0.466044 *  0.778883 *  0.181383 *  -2.87073    1.000000    
    259 O2    s    0.309325 *  0.775144 *  0.319719 *  -2.87073    1.000000    
    260 O2    s    0.471425 *  0.686436 *  0.984797 *  -2.87073    1.000000    
    261 O2    s    0.222366 *  0.533997 *  0.653310 *  -2.87073    1.000000    
    262 O2    s    0.690917 *  0.222623 *  0.819342 *  -2.87073    1.000000    
    263 O2    s    0.532284 *  0.311862 *  0.486681 *  -2.87073    1.000000    
    264 O2    s    0.774523 *  0.467250 *  0.152665 *  -2.87073    1.000000    
    265 O1    s    0.776272 *  0.538560 *  0.024517 *  -3.73396    1.000000    
    266 O2    s    0.471623 *  0.264876 *  0.366950 *  -2.87073    1.000000    
    267 O2    s    0.742280 *  0.209279 *  0.697406 *  -2.87073    1.000000    
    268 O2    s    0.207315 *  0.466002 *  0.531761 *  -2.87073    1.000000    
    269 O2    s    0.534109 *  0.743235 *  0.863960 *  -2.87073    1.000000    
    270 O2    s    0.256030 *  0.789701 *  0.198210 *  -2.87073    1.000000    
    271 O2    s    0.531045 *  0.788021 *  0.303151 *  -2.87073    1.000000    
    272 O2    s    0.258566 *  0.464962 *  0.967509 *  -2.87073    1.000000    
    273 O2    s    0.209026 *  0.743032 *  0.635819 *  -2.87073    1.000000    
    274 O2    s    0.468709 *  0.209020 *  0.802445 *  -2.87073    1.000000    
    275 O3    s    0.749195 *  0.522014 *  0.474094 *  -3.33043    1.000000    
    276 O2    s    0.791091 *  0.262871 *  0.133314 *  -2.87073    1.000000    
    277 O2    s    0.238825 *  0.331312 *  0.896309 *  -2.87073    1.000000    
    278 O2    s    0.667606 *  0.908180 *  0.233569 *  -2.87073    1.000000    
    279 O2    s    0.085768 *  0.756165 *  0.565949 *  -2.87073    1.000000    
    280 O3    s    0.770487 *  0.676695 *  0.391477 *  -3.33043    1.000000    
    281 O2    s    0.331817 *  0.090005 *  0.732177 *  -2.87073    1.000000    
    282 O2    s    0.909806 *  0.246241 *  0.064674 *  -2.87073    1.000000    
    283 O2    s    0.336020 *  0.248030 *  0.434824 *  -2.87073    1.000000    
    284 O3    s    0.904779 *  0.673237 *  0.105352 *  -3.33043    1.000000    
    285 O2    s    0.759933 *  0.091851 *  0.767589 *  -2.87073    1.000000    
    286 O2    s    0.671369 *  0.755191 *  0.933620 *  -2.87073    1.000000    
    287 O2    s    0.091480 *  0.330735 *  0.602337 *  -2.87073    1.000000    
    288 O2    s    0.239963 *  0.907127 *  0.268769 *  -2.87073    1.000000    
    289 O2    s    0.581790 *  0.551985 *  0.985641 *  -2.87073    1.000000    
    290 O2    s    0.440128 *  0.022633 *  0.322212 *  -2.87073    1.000000    
    291 O2    s    0.975717 *  0.415661 *  0.654781 *  -2.87073    1.000000    
    292 O2    s    0.418756 *  0.444114 *  0.487438 *  -2.87073    1.000000    
    293 O2    s    0.559449 *  0.975458 *  0.820059 *  -2.87073    1.000000    
    294 O2    s    0.020533 *  0.581131 *  0.150844 *  -2.87073    1.000000    
    295 O2    s    0.558717 *  0.580790 *  0.346319 *  -2.87073    1.000000    
    296 O2    s    0.020999 *  0.443429 *  0.011535 *  -2.87073    1.000000    
    297 O2    s    0.415250 *  0.974764 *  0.679642 *  -2.87073    1.000000    
    298 O2    s    0.440993 *  0.415456 *  0.844708 *  -2.87073    1.000000    
    299 O2    s    0.971380 *  0.552359 *  0.514008 *  -2.87073    1.000000    
    300 O2    s    0.586596 *  0.026186 *  0.181700 *  -2.87073    1.000000    
    301 O2    s    0.578930 *  0.154223 *  0.252920 *  -2.87073    1.000000    
    302 O2    s    0.843531 *  0.418103 *  0.584768 *  -2.87073    1.000000    
    303 O2    s    0.577991 *  0.419871 *  0.914665 *  -2.87073    1.000000    
    304 O2    s    0.420788 *  0.843656 *  0.749906 *  -2.87073    1.000000    
    305 O2    s    0.151969 *  0.576091 *  0.082681 *  -2.87073    1.000000    
    306 O2    s    0.422631 *  0.578078 *  0.415997 *  -2.87073    1.000000    
    307 F     s    0.451691 *  0.903709 *  0.251082 *  -1.56000    1.000000    
    308 F     s    0.097317 *  0.546423 *  0.584245 *  -1.56000    1.000000    
    309 F     s    0.449421 *  0.547437 *  0.914787 *  -1.56000    1.000000    
    310 F     s    0.548700 *  0.096414 *  0.749890 *  -1.56000    1.000000    
    311 F     s    0.873875 *  0.465996 *  0.072798 *  -1.56000    1.000000    
    312 F     s    0.591564 *  0.498624 *  0.423392 *  -1.56000    1.000000    
--------------------------------------------------------------------------------



********************************************************************************
*  General input information                                                   *
********************************************************************************

  Species output for all configurations : 

--------------------------------------------------------------------------------
  Species    Type    Atomic    Atomic    Charge       Radii (Angs)     Library
                     Number     Mass       (e)     Cova   Ionic  VDW   Symbol
--------------------------------------------------------------------------------
    Si       Core       14      28.09   4.000000   1.200  0.000  2.100          
    O1       Core        8      16.00   1.733957   0.730  0.000  1.360          
    O1       Shell       8       0.00  -3.733957   0.730  0.000  1.360          
    O2       Core        8      16.00   0.870733   0.730  0.000  1.360          
    O2       Shell       8       0.00  -2.870733   0.730  0.000  1.360          
    O3       Core        8      16.00   1.330431   0.730  0.000  1.360          
    O3       Shell       8       0.00  -3.330431   0.730  0.000  1.360          
    F        Core        9      19.00   0.560000   0.710  0.000  1.300          
    F        Shell       9       0.00  -1.560000   0.710  0.000  1.300          
    Ge       Core       32      72.61   4.000000   1.170  0.000  1.750          
--------------------------------------------------------------------------------


  Lattice summation method               =    Ewald          (3-D)
                                         =    Parry          (2-D)
                                         =    Saunders et al (1-D)
  Accuracy factor for lattice sums       =   12.000


  Time limit = Infinity

  Maximum range for interatomic potentials =        16.000000 Angstroms

  Taper potentials to zero over   1.0000 Angstroms using polynomial

  General interatomic potentials :

--------------------------------------------------------------------------------
Atom  Types   Potential         A         B         C         D     Cutoffs(Ang)
  1     2                                                            Min    Max 
--------------------------------------------------------------------------------
Si   c O1   s Buckingham    0.132E+04 0.318      10.1      0.00     0.000 16.000
Si   c O2   s Buckingham    0.132E+04 0.318      10.1      0.00     0.000 16.000
Si   c O3   s Buckingham    0.132E+04 0.318      10.1      0.00     0.000 16.000
Ge   c O1   s Buckingham    0.150E+04 0.326      16.8      0.00     0.000 16.000
Ge   c O2   s Buckingham    0.150E+04 0.326      16.8      0.00     0.000 16.000
Ge   c O3   s Buckingham    0.150E+04 0.326      16.8      0.00     0.000 16.000
O1   s O1   s Buckingham    0.228E+05 0.149      10.9      0.00     0.000 16.000
O1   s O2   s Buckingham    0.228E+05 0.149      10.9      0.00     0.000 16.000
O1   s O3   s Buckingham    0.228E+05 0.149      10.9      0.00     0.000 16.000
O2   s O2   s Buckingham    0.228E+05 0.149      10.9      0.00     0.000 16.000
O2   s O3   s Buckingham    0.228E+05 0.149      10.9      0.00     0.000 16.000
O3   s O3   s Buckingham    0.228E+05 0.149      10.9      0.00     0.000 16.000
Si   c F    s Buckingham     977.     0.282      0.00      0.00     0.000 16.000
Ge   c F    s Buckingham     681.     0.320      0.00      0.00     0.000 16.000
F    s F    s Buckingham     540.     0.262      0.00      0.00     0.000 16.000
O1   s F    s Buckingham    0.168E+04 0.268      0.00      0.00     0.000 16.000
O2   s F    s Buckingham    0.168E+04 0.268      0.00      0.00     0.000 16.000
O3   s F    s Buckingham    0.168E+04 0.268      0.00      0.00     0.000 16.000
O2   c O2   s Spring (c-s)   76.0      0.00      0.00      0.00     0.000  0.800
O3   c O3   s Spring (c-s)   128.      0.00      0.00      0.00     0.000  0.800
O1   c O1   s Spring (c-s)   180.      0.00      0.00      0.00     0.000  0.800
F    c F    s Spring (c-s)   33.5      0.00      0.00      0.00     0.000  0.800
--------------------------------------------------------------------------------

  General Three-body potentials :

  Harmonic form:

--------------------------------------------------------------------------------
Atom    Atom    Atom           Force Constants            Theta     Cutoffs  
  1       2       3     (eVrad**-2/eVrad**-3/eVrad**-4)   (deg)  1-2  1-3  2-3
--------------------------------------------------------------------------------
Si    c O1    s O1    s  1.261        0.0000    0.0000   109.470 0.00 0.00 0.00
                                                                 1.90 1.90 3.50
Si    c O1    s O2    s  1.261        0.0000    0.0000   109.470 0.00 0.00 0.00
                                                                 1.90 1.90 3.50
Si    c O2    s O2    s  1.261        0.0000    0.0000   109.470 0.00 0.00 0.00
                                                                 1.90 1.90 3.50
--------------------------------------------------------------------------------

********************************************************************************
*  Output for configuration   1                                                *
********************************************************************************


  Components of energy : 

--------------------------------------------------------------------------------
  Interatomic potentials     =        2063.33067061 eV
  Three-body potentials      =           0.46480773 eV
  Monopole - monopole (real) =       -6611.71844113 eV
  Monopole - monopole (recip)=       -3172.02664256 eV
  Monopole - monopole (total)=       -9783.74508370 eV
  Neutralising energy        =          -6.46073027 eV
--------------------------------------------------------------------------------
  Total lattice energy       =       -7726.41033563 eV
--------------------------------------------------------------------------------
  Total lattice energy       =         -745480.4884 kJ/(mole unit cells)
--------------------------------------------------------------------------------


  Number of variables =      939

  Maximum number of calculations  =          5000
  Maximum Hessian update interval =            10
  Maximum step size               =   0.100000000
  Maximum parameter tolerance     =   0.000010000
  Maximum function  tolerance     =   0.000010000
  Maximum gradient  tolerance     =   0.001000000
  Maximum gradient  component     =   0.010000000

  Symmetry not applied to optimisation

  Cell parameters to be optimised using strains

  Newton-Raphson optimiser to be used

  BFGS hessian update to be used

  Dumpfile to be written after every cycle

  Start of bulk optimisation :

  Cycle:      0 Energy:     -7726.410336  Gnorm:      0.005675  CPU:    2.049
  ** Hessian calculated **
  Cycle:      1 Energy:     -7726.410457  Gnorm:      0.002386  CPU:    5.344
  Cycle:      2 Energy:     -7726.410523  Gnorm:      0.001624  CPU:    8.251
  Cycle:      3 Energy:     -7726.410699  Gnorm:      0.001781  CPU:   13.272
  Cycle:      4 Energy:     -7726.410971  Gnorm:      0.003364  CPU:   18.294
  Cycle:      5 Energy:     -7726.411298  Gnorm:      0.005027  CPU:   22.614
  Cycle:      6 Energy:     -7726.411731  Gnorm:      0.006913  CPU:   26.937
  Cycle:      7 Energy:     -7726.412323  Gnorm:      0.008509  CPU:   31.261
  Cycle:      8 Energy:     -7726.413136  Gnorm:      0.010683  CPU:   35.579
  Cycle:      9 Energy:     -7726.414214  Gnorm:      0.012765  CPU:   39.899
  Cycle:     10 Energy:     -7726.415574  Gnorm:      0.013807  CPU:   44.219
  ** Hessian calculated **
  Cycle:     11 Energy:     -7726.416372  Gnorm:      0.006431  CPU:   49.530
  Cycle:     12 Energy:     -7726.416794  Gnorm:      0.004734  CPU:   53.143
  Cycle:     13 Energy:     -7726.417242  Gnorm:      0.004017  CPU:   57.460
  Cycle:     14 Energy:     -7726.417568  Gnorm:      0.003830  CPU:   61.072
  Cycle:     15 Energy:     -7726.417839  Gnorm:      0.003940  CPU:   64.685
  Cycle:     16 Energy:     -7726.418138  Gnorm:      0.004069  CPU:   69.003
  Cycle:     17 Energy:     -7726.418391  Gnorm:      0.003272  CPU:   72.616
  Cycle:     18 Energy:     -7726.418682  Gnorm:      0.003266  CPU:   76.932
  Cycle:     19 Energy:     -7726.419031  Gnorm:      0.003607  CPU:   81.249
  Cycle:     20 Energy:     -7726.419360  Gnorm:      0.003724  CPU:   84.862
  ** Hessian calculated **
  Cycle:     21 Energy:     -7726.419470  Gnorm:      0.002898  CPU:   89.465
  Cycle:     22 Energy:     -7726.419565  Gnorm:      0.002583  CPU:   92.372
  Cycle:     23 Energy:     -7726.419834  Gnorm:      0.002269  CPU:   97.394
  Cycle:     24 Energy:     -7726.420145  Gnorm:      0.002093  CPU:  101.714
  Cycle:     25 Energy:     -7726.420456  Gnorm:      0.002819  CPU:  106.032
  Cycle:     26 Energy:     -7726.420668  Gnorm:      0.002749  CPU:  109.647
  Cycle:     27 Energy:     -7726.420836  Gnorm:      0.002916  CPU:  113.966
  Cycle:     28 Energy:     -7726.421063  Gnorm:      0.003490  CPU:  118.285
  Cycle:     29 Energy:     -7726.421416  Gnorm:      0.003877  CPU:  122.604
  Cycle:     30 Energy:     -7726.421948  Gnorm:      0.004819  CPU:  126.922
  ** Hessian calculated **
  Cycle:     31 Energy:     -7726.422086  Gnorm:      0.003984  CPU:  131.526
  Cycle:     32 Energy:     -7726.422215  Gnorm:      0.003794  CPU:  134.434
  Cycle:     33 Energy:     -7726.422608  Gnorm:      0.003467  CPU:  139.455
  Cycle:     34 Energy:     -7726.423084  Gnorm:      0.002655  CPU:  143.773
  Cycle:     35 Energy:     -7726.423420  Gnorm:      0.002482  CPU:  147.384
  Cycle:     36 Energy:     -7726.423633  Gnorm:      0.002244  CPU:  150.997
  Cycle:     37 Energy:     -7726.423716  Gnorm:      0.002011  CPU:  153.904
  Cycle:     38 Energy:     -7726.423901  Gnorm:      0.002260  CPU:  158.926
  Cycle:     39 Energy:     -7726.424154  Gnorm:      0.002764  CPU:  163.247
  Cycle:     40 Energy:     -7726.424504  Gnorm:      0.003555  CPU:  167.566
  ** Hessian calculated **
  Cycle:     41 Energy:     -7726.424602  Gnorm:      0.002749  CPU:  172.176
  Cycle:     42 Energy:     -7726.424691  Gnorm:      0.002650  CPU:  175.084
  Cycle:     43 Energy:     -7726.424964  Gnorm:      0.002589  CPU:  180.108
  Cycle:     44 Energy:     -7726.425304  Gnorm:      0.002059  CPU:  184.435
  Cycle:     45 Energy:     -7726.425642  Gnorm:      0.002394  CPU:  188.754
  Cycle:     46 Energy:     -7726.425860  Gnorm:      0.002324  CPU:  192.368
  Cycle:     47 Energy:     -7726.425966  Gnorm:      0.002257  CPU:  195.982
  Cycle:     48 Energy:     -7726.426127  Gnorm:      0.002659  CPU:  200.301
  Cycle:     49 Energy:     -7726.426380  Gnorm:      0.003372  CPU:  204.640
  Cycle:     50 Energy:     -7726.426787  Gnorm:      0.004086  CPU:  208.961
  ** Hessian calculated **
  Cycle:     51 Energy:     -7726.426888  Gnorm:      0.003537  CPU:  213.572
  Cycle:     52 Energy:     -7726.426986  Gnorm:      0.003408  CPU:  216.481
  Cycle:     53 Energy:     -7726.427103  Gnorm:      0.003239  CPU:  219.390
  Cycle:     54 Energy:     -7726.427519  Gnorm:      0.002864  CPU:  224.415
  Cycle:     55 Energy:     -7726.427963  Gnorm:      0.002419  CPU:  228.733
  Cycle:     56 Energy:     -7726.428230  Gnorm:      0.002466  CPU:  232.345
  Cycle:     57 Energy:     -7726.428344  Gnorm:      0.001905  CPU:  235.957
  Cycle:     58 Energy:     -7726.428467  Gnorm:      0.002024  CPU:  240.275
  Cycle:     59 Energy:     -7726.428649  Gnorm:      0.002411  CPU:  244.594
  Cycle:     60 Energy:     -7726.428923  Gnorm:      0.003232  CPU:  248.913
  ** Hessian calculated **
  Cycle:     61 Energy:     -7726.429006  Gnorm:      0.002505  CPU:  253.518
  Cycle:     62 Energy:     -7726.429083  Gnorm:      0.002435  CPU:  256.428
  Cycle:     63 Energy:     -7726.429321  Gnorm:      0.002339  CPU:  261.452
  Cycle:     64 Energy:     -7726.429619  Gnorm:      0.001872  CPU:  265.770
  Cycle:     65 Energy:     -7726.429914  Gnorm:      0.002417  CPU:  270.091
  Cycle:     66 Energy:     -7726.430117  Gnorm:      0.002169  CPU:  273.705
  Cycle:     67 Energy:     -7726.430224  Gnorm:      0.002370  CPU:  278.024
  Cycle:     68 Energy:     -7726.430370  Gnorm:      0.002779  CPU:  282.342
  Cycle:     69 Energy:     -7726.430613  Gnorm:      0.003231  CPU:  286.660
  Cycle:     70 Energy:     -7726.431011  Gnorm:      0.003901  CPU:  290.979
  ** Hessian calculated **
  Cycle:     71 Energy:     -7726.431107  Gnorm:      0.003501  CPU:  295.585
  Cycle:     72 Energy:     -7726.431201  Gnorm:      0.003370  CPU:  298.494
  Cycle:     73 Energy:     -7726.431312  Gnorm:      0.003211  CPU:  301.405
  Cycle:     74 Energy:     -7726.431711  Gnorm:      0.002780  CPU:  306.428
  Cycle:     75 Energy:     -7726.432140  Gnorm:      0.002213  CPU:  310.746
  Cycle:     76 Energy:     -7726.432367  Gnorm:      0.002732  CPU:  314.359
  Cycle:     77 Energy:     -7726.432495  Gnorm:      0.001873  CPU:  317.972
  Cycle:     78 Energy:     -7726.432558  Gnorm:      0.001829  CPU:  320.882
  Cycle:     79 Energy:     -7726.432710  Gnorm:      0.002170  CPU:  325.908
  Cycle:     80 Energy:     -7726.432930  Gnorm:      0.002892  CPU:  330.227
  ** Hessian calculated **
  Cycle:     81 Energy:     -7726.432995  Gnorm:      0.002299  CPU:  334.830
  Cycle:     82 Energy:     -7726.433057  Gnorm:      0.002249  CPU:  337.738
  Cycle:     83 Energy:     -7726.433250  Gnorm:      0.002227  CPU:  342.759
  Cycle:     84 Energy:     -7726.433497  Gnorm:      0.001786  CPU:  347.078
  Cycle:     85 Energy:     -7726.433758  Gnorm:      0.002144  CPU:  351.397
  Cycle:     86 Energy:     -7726.433955  Gnorm:      0.002219  CPU:  355.010
  Cycle:     87 Energy:     -7726.434085  Gnorm:      0.002227  CPU:  359.329
  Cycle:     88 Energy:     -7726.434244  Gnorm:      0.002801  CPU:  363.649
  Cycle:     89 Energy:     -7726.434475  Gnorm:      0.003321  CPU:  367.967
  Cycle:     90 Energy:     -7726.434843  Gnorm:      0.004219  CPU:  372.285
  ** Hessian calculated **
  Cycle:     91 Energy:     -7726.434952  Gnorm:      0.003625  CPU:  376.891
  Cycle:     92 Energy:     -7726.435055  Gnorm:      0.003482  CPU:  379.800
  Cycle:     93 Energy:     -7726.435176  Gnorm:      0.003308  CPU:  382.709
  Cycle:     94 Energy:     -7726.435339  Gnorm:      0.003051  CPU:  385.616
  Cycle:     95 Energy:     -7726.435875  Gnorm:      0.002580  CPU:  390.638
  Cycle:     96 Energy:     -7726.436187  Gnorm:      0.002526  CPU:  394.253
  Cycle:     97 Energy:     -7726.436316  Gnorm:      0.001919  CPU:  397.867
  Cycle:     98 Energy:     -7726.436379  Gnorm:      0.001670  CPU:  400.775
  Cycle:     99 Energy:     -7726.436504  Gnorm:      0.001996  CPU:  405.843
  Cycle:    100 Energy:     -7726.436671  Gnorm:      0.002631  CPU:  410.163
  ** Hessian calculated **
  Cycle:    101 Energy:     -7726.436726  Gnorm:      0.002147  CPU:  414.773
  Cycle:    102 Energy:     -7726.436779  Gnorm:      0.002090  CPU:  417.684
  Cycle:    103 Energy:     -7726.436843  Gnorm:      0.002031  CPU:  420.594
  Cycle:    104 Energy:     -7726.437075  Gnorm:      0.001853  CPU:  425.621
  Cycle:    105 Energy:     -7726.437338  Gnorm:      0.001827  CPU:  429.945
  Cycle:    106 Energy:     -7726.437589  Gnorm:      0.002327  CPU:  434.265
  Cycle:    107 Energy:     -7726.437694  Gnorm:      0.002303  CPU:  437.884
  Cycle:    108 Energy:     -7726.437832  Gnorm:      0.002802  CPU:  442.207
  Cycle:    109 Energy:     -7726.438032  Gnorm:      0.003271  CPU:  446.527
  Cycle:    110 Energy:     -7726.438344  Gnorm:      0.003847  CPU:  450.843
  ** Hessian calculated **
  Cycle:    111 Energy:     -7726.438440  Gnorm:      0.003462  CPU:  455.444
  Cycle:    112 Energy:     -7726.438534  Gnorm:      0.003312  CPU:  458.351
  Cycle:    113 Energy:     -7726.438644  Gnorm:      0.003147  CPU:  461.258
  Cycle:    114 Energy:     -7726.438792  Gnorm:      0.002880  CPU:  464.164
  Cycle:    115 Energy:     -7726.439273  Gnorm:      0.002568  CPU:  469.184
  Cycle:    116 Energy:     -7726.439554  Gnorm:      0.002474  CPU:  472.804
  Cycle:    117 Energy:     -7726.439647  Gnorm:      0.001739  CPU:  475.715
  Cycle:    118 Energy:     -7726.439709  Gnorm:      0.001674  CPU:  478.628
  Cycle:    119 Energy:     -7726.439845  Gnorm:      0.002041  CPU:  483.659
  Cycle:    120 Energy:     -7726.440001  Gnorm:      0.003083  CPU:  487.978
  ** Hessian calculated **
  Cycle:    121 Energy:     -7726.440066  Gnorm:      0.002185  CPU:  492.589
  Cycle:    122 Energy:     -7726.440121  Gnorm:      0.002132  CPU:  495.498
  Cycle:    123 Energy:     -7726.440185  Gnorm:      0.002053  CPU:  498.410
  Cycle:    124 Energy:     -7726.440412  Gnorm:      0.001830  CPU:  503.435
  Cycle:    125 Energy:     -7726.440659  Gnorm:      0.002009  CPU:  507.757
  Cycle:    126 Energy:     -7726.440852  Gnorm:      0.002102  CPU:  511.374
  Cycle:    127 Energy:     -7726.440973  Gnorm:      0.002125  CPU:  515.694
  Cycle:    128 Energy:     -7726.441078  Gnorm:      0.002611  CPU:  519.310
  Cycle:    129 Energy:     -7726.441262  Gnorm:      0.002971  CPU:  523.632
  Cycle:    130 Energy:     -7726.441570  Gnorm:      0.003800  CPU:  527.952
  ** Hessian calculated **
  Cycle:    131 Energy:     -7726.441663  Gnorm:      0.003329  CPU:  532.563
  Cycle:    132 Energy:     -7726.441754  Gnorm:      0.003186  CPU:  535.471
  Cycle:    133 Energy:     -7726.441861  Gnorm:      0.003012  CPU:  538.382
  Cycle:    134 Energy:     -7726.442003  Gnorm:      0.002756  CPU:  541.293
  Cycle:    135 Energy:     -7726.442452  Gnorm:      0.002546  CPU:  546.318
  Cycle:    136 Energy:     -7726.442690  Gnorm:      0.002378  CPU:  549.929
  Cycle:    137 Energy:     -7726.442766  Gnorm:      0.001777  CPU:  552.835
  Cycle:    138 Energy:     -7726.442821  Gnorm:      0.001655  CPU:  555.741
  Cycle:    139 Energy:     -7726.442951  Gnorm:      0.002069  CPU:  560.761
  Cycle:    140 Energy:     -7726.443115  Gnorm:      0.003158  CPU:  565.076
  ** Hessian calculated **
  Cycle:    141 Energy:     -7726.443181  Gnorm:      0.002202  CPU:  569.677
  Cycle:    142 Energy:     -7726.443236  Gnorm:      0.002147  CPU:  572.583
  Cycle:    143 Energy:     -7726.443297  Gnorm:      0.002065  CPU:  575.489
  Cycle:    144 Energy:     -7726.443512  Gnorm:      0.001829  CPU:  580.509
  Cycle:    145 Energy:     -7726.443743  Gnorm:      0.002038  CPU:  584.829
  Cycle:    146 Energy:     -7726.443925  Gnorm:      0.001990  CPU:  588.442
  Cycle:    147 Energy:     -7726.444030  Gnorm:      0.002032  CPU:  592.761
  Cycle:    148 Energy:     -7726.444144  Gnorm:      0.002653  CPU:  597.080
  Cycle:    149 Energy:     -7726.444323  Gnorm:      0.003006  CPU:  601.402
  Cycle:    150 Energy:     -7726.444615  Gnorm:      0.003772  CPU:  605.722
  ** Hessian calculated **
  Cycle:    151 Energy:     -7726.444708  Gnorm:      0.003313  CPU:  610.331
  Cycle:    152 Energy:     -7726.444798  Gnorm:      0.003160  CPU:  613.240
  Cycle:    153 Energy:     -7726.444903  Gnorm:      0.002993  CPU:  616.148
  Cycle:    154 Energy:     -7726.445043  Gnorm:      0.002721  CPU:  619.058
  Cycle:    155 Energy:     -7726.445479  Gnorm:      0.002559  CPU:  624.083
  Cycle:    156 Energy:     -7726.445704  Gnorm:      0.002145  CPU:  627.694
  Cycle:    157 Energy:     -7726.445768  Gnorm:      0.001691  CPU:  630.600
  Cycle:    158 Energy:     -7726.445818  Gnorm:      0.001597  CPU:  633.507
  Cycle:    159 Energy:     -7726.445947  Gnorm:      0.001955  CPU:  638.526
  Cycle:    160 Energy:     -7726.446106  Gnorm:      0.003009  CPU:  642.841
  ** Hessian calculated **
  Cycle:    161 Energy:     -7726.446169  Gnorm:      0.002144  CPU:  647.442
  Cycle:    162 Energy:     -7726.446219  Gnorm:      0.002087  CPU:  650.348
  Cycle:    163 Energy:     -7726.446275  Gnorm:      0.002003  CPU:  653.254
  Cycle:    164 Energy:     -7726.446347  Gnorm:      0.001886  CPU:  656.161
  Cycle:    165 Energy:     -7726.446594  Gnorm:      0.001868  CPU:  661.180
  Cycle:    166 Energy:     -7726.446838  Gnorm:      0.002189  CPU:  665.495
  Cycle:    167 Energy:     -7726.446945  Gnorm:      0.001918  CPU:  669.106
  Cycle:    168 Energy:     -7726.447034  Gnorm:      0.002202  CPU:  672.717
  Cycle:    169 Energy:     -7726.447166  Gnorm:      0.002711  CPU:  677.031
  Cycle:    170 Energy:     -7726.447374  Gnorm:      0.003383  CPU:  681.346
  ** Hessian calculated **
  Cycle:    171 Energy:     -7726.447447  Gnorm:      0.002959  CPU:  685.947
  Cycle:    172 Energy:     -7726.447519  Gnorm:      0.002836  CPU:  688.853
  Cycle:    173 Energy:     -7726.447603  Gnorm:      0.002677  CPU:  691.760
  Cycle:    174 Energy:     -7726.447714  Gnorm:      0.002465  CPU:  694.666
  Cycle:    175 Energy:     -7726.448080  Gnorm:      0.001994  CPU:  699.685
  Cycle:    176 Energy:     -7726.448238  Gnorm:      0.001918  CPU:  702.595
  Cycle:    177 Energy:     -7726.448338  Gnorm:      0.001425  CPU:  705.502
  Cycle:    178 Energy:     -7726.448397  Gnorm:      0.001533  CPU:  708.412
  Cycle:    179 Energy:     -7726.448494  Gnorm:      0.001987  CPU:  712.732
  Cycle:    180 Energy:     -7726.448634  Gnorm:      0.002232  CPU:  717.052
  ** Hessian calculated **
  Cycle:    181 Energy:     -7726.448674  Gnorm:      0.002052  CPU:  721.664
  Cycle:    182 Energy:     -7726.448712  Gnorm:      0.001974  CPU:  724.572
  Cycle:    183 Energy:     -7726.448757  Gnorm:      0.001898  CPU:  727.482
  Cycle:    184 Energy:     -7726.448817  Gnorm:      0.001785  CPU:  730.391
  Cycle:    185 Energy:     -7726.449037  Gnorm:      0.001665  CPU:  735.417
  Cycle:    186 Energy:     -7726.449267  Gnorm:      0.001905  CPU:  739.737
  Cycle:    187 Energy:     -7726.449417  Gnorm:      0.002170  CPU:  743.354
  Cycle:    188 Energy:     -7726.449498  Gnorm:      0.002228  CPU:  746.969
  Cycle:    189 Energy:     -7726.449605  Gnorm:      0.002499  CPU:  751.293
  Cycle:    190 Energy:     -7726.449778  Gnorm:      0.002959  CPU:  755.612
  ** Hessian calculated **
  Cycle:    191 Energy:     -7726.449838  Gnorm:      0.002735  CPU:  760.224
  Cycle:    192 Energy:     -7726.449897  Gnorm:      0.002616  CPU:  763.134
  Cycle:    193 Energy:     -7726.449968  Gnorm:      0.002476  CPU:  766.044
  Cycle:    194 Energy:     -7726.450061  Gnorm:      0.002293  CPU:  768.954
  Cycle:    195 Energy:     -7726.450371  Gnorm:      0.001980  CPU:  773.981
  Cycle:    196 Energy:     -7726.450558  Gnorm:      0.002284  CPU:  777.597
  Cycle:    197 Energy:     -7726.450641  Gnorm:      0.001597  CPU:  780.506
  Cycle:    198 Energy:     -7726.450692  Gnorm:      0.001607  CPU:  783.418
  Cycle:    199 Energy:     -7726.450805  Gnorm:      0.002002  CPU:  788.444
  Cycle:    200 Energy:     -7726.450957  Gnorm:      0.002836  CPU:  792.765
  ** Hessian calculated **
  Cycle:    201 Energy:     -7726.451010  Gnorm:      0.002194  CPU:  797.375
  Cycle:    202 Energy:     -7726.451060  Gnorm:      0.002116  CPU:  800.284
  Cycle:    203 Energy:     -7726.451118  Gnorm:      0.002018  CPU:  803.195
  Cycle:    204 Energy:     -7726.451196  Gnorm:      0.001860  CPU:  806.106
  Cycle:    205 Energy:     -7726.451456  Gnorm:      0.001831  CPU:  811.136
  Cycle:    206 Energy:     -7726.451625  Gnorm:      0.002222  CPU:  814.749
  Cycle:    207 Energy:     -7726.451715  Gnorm:      0.001807  CPU:  818.366
  Cycle:    208 Energy:     -7726.451795  Gnorm:      0.002150  CPU:  822.687
  Cycle:    209 Energy:     -7726.451908  Gnorm:      0.002460  CPU:  827.008
  Cycle:    210 Energy:     -7726.452094  Gnorm:      0.003127  CPU:  831.329
  ** Hessian calculated **
  Cycle:    211 Energy:     -7726.452158  Gnorm:      0.002622  CPU:  835.937
  Cycle:    212 Energy:     -7726.452222  Gnorm:      0.002520  CPU:  838.847
  Cycle:    213 Energy:     -7726.452296  Gnorm:      0.002375  CPU:  841.761
  Cycle:    214 Energy:     -7726.452394  Gnorm:      0.002165  CPU:  844.669
  Cycle:    215 Energy:     -7726.452693  Gnorm:      0.002240  CPU:  849.695
  Cycle:    216 Energy:     -7726.452844  Gnorm:      0.001963  CPU:  853.311
  Cycle:    217 Energy:     -7726.452892  Gnorm:      0.001624  CPU:  856.223
  Cycle:    218 Energy:     -7726.452935  Gnorm:      0.001596  CPU:  859.131
  Cycle:    219 Energy:     -7726.453069  Gnorm:      0.002143  CPU:  864.158
  Cycle:    220 Energy:     -7726.453257  Gnorm:      0.003113  CPU:  868.479
  ** Hessian calculated **
  Cycle:    221 Energy:     -7726.453319  Gnorm:      0.002263  CPU:  873.092
  Cycle:    222 Energy:     -7726.453375  Gnorm:      0.002169  CPU:  875.999
  Cycle:    223 Energy:     -7726.453441  Gnorm:      0.002063  CPU:  878.908
  Cycle:    224 Energy:     -7726.453665  Gnorm:      0.001856  CPU:  883.932
  Cycle:    225 Energy:     -7726.453868  Gnorm:      0.001963  CPU:  888.250
  Cycle:    226 Energy:     -7726.453964  Gnorm:      0.001947  CPU:  891.864
  Cycle:    227 Energy:     -7726.454002  Gnorm:      0.001802  CPU:  894.773
  Cycle:    228 Energy:     -7726.454094  Gnorm:      0.001957  CPU:  899.796
  Cycle:    229 Energy:     -7726.454232  Gnorm:      0.002404  CPU:  904.117
  Cycle:    230 Energy:     -7726.454485  Gnorm:      0.003167  CPU:  909.140
  ** Hessian calculated **
  Cycle:    231 Energy:     -7726.454898  Gnorm:      0.003167  CPU:  915.158
  Cycle:    232 Energy:     -7726.455598  Gnorm:      0.003166  CPU:  920.182
  Cycle:    233 Energy:     -7726.456682  Gnorm:      0.003164  CPU:  925.210
  Cycle:    234 Energy:     -7726.458302  Gnorm:      0.003158  CPU:  930.235
  Cycle:    235 Energy:     -7726.460679  Gnorm:      0.003146  CPU:  935.260
  Cycle:    236 Energy:     -7726.463531  Gnorm:      0.003126  CPU:  939.578
  Cycle:    237 Energy:     -7726.468119  Gnorm:      0.003084  CPU:  944.601
  Cycle:    238 Energy:     -7726.474731  Gnorm:      0.003007  CPU:  949.624
  Cycle:    239 Energy:     -7726.482265  Gnorm:      0.002894  CPU:  953.945
  Cycle:    240 Energy:     -7726.493757  Gnorm:      0.002691  CPU:  958.968
  ** Hessian calculated **
  Cycle:    241 Energy:     -7726.506785  Gnorm:      0.002406  CPU:  964.987
  Cycle:    242 Energy:     -7726.521593  Gnorm:      0.002122  CPU:  969.306
  Cycle:    243 Energy:     -7726.536158  Gnorm:      0.001689  CPU:  973.624
  Cycle:    244 Energy:     -7726.542357  Gnorm:      0.001168  CPU:  977.942
  Cycle:    245 Energy:     -7726.543798  Gnorm:      0.000720  CPU:  982.261
  Cycle:    246 Energy:     -7726.544154  Gnorm:      0.000381  CPU:  986.579
  Cycle:    247 Energy:     -7726.544244  Gnorm:      0.000222  CPU:  990.900
  Cycle:    248 Energy:     -7726.544259  Gnorm:      0.000141  CPU:  993.810
  Cycle:    249 Energy:     -7726.544267  Gnorm:      0.000109  CPU:  996.717
  Cycle:    250 Energy:     -7726.544270  Gnorm:      0.000066  CPU:  999.626
  ** Hessian calculated **
  Cycle:    251 Energy:     -7726.544270  Gnorm:      0.000037  CPU: 1004.235


  **** Optimisation achieved ****


  Final energy =   -7726.54427046 eV
  Final Gnorm  =       0.00002797

  Components of energy : 

--------------------------------------------------------------------------------
  Interatomic potentials     =        2063.57766968 eV
  Three-body potentials      =           0.48006445 eV
  Monopole - monopole (real) =       -6612.99010357 eV
  Monopole - monopole (recip)=       -3171.15294714 eV
  Monopole - monopole (total)=       -9784.14305072 eV
  Neutralising energy        =          -6.45895387 eV
--------------------------------------------------------------------------------
  Total lattice energy       =       -7726.54427046 eV
--------------------------------------------------------------------------------
  Total lattice energy       =         -745493.4111 kJ/(mole unit cells)
--------------------------------------------------------------------------------

  Final fractional coordinates of atoms :

--------------------------------------------------------------------------------
   No.  Atomic        x           y          z          Radius
        Label       (Frac)      (Frac)     (Frac)       (Angs) 
--------------------------------------------------------------------------------
     1  Ge    c     0.699600    0.375700    0.033890    0.000000
     2  Si    c     0.604806    0.312617    0.366614    0.000000
     3  Si    c     0.654979    0.276864    0.699744    0.000000
     4  Si    c     0.261036    0.598327    0.531406    0.000000
     5  Si    c     0.362963    0.657560    0.863279    0.000000
     6  Si    c     0.305367    0.695773    0.197956    0.000000
     7  Si    c     0.358557    0.689390    0.298228    0.000000
     8  Si    c     0.311762    0.605506    0.963389    0.000000
     9  Si    c     0.272349    0.657356    0.631614    0.000000
    10  Si    c     0.602822    0.277073    0.800086    0.000000
    11  Si    c     0.656195    0.363211    0.469657    0.000000
    12  Si    c     0.675649    0.310479    0.132941    0.000000
    13  Si    c     0.516949    0.398607    0.966794    0.000000
    14  Si    c     0.564661    0.098602    0.302610    0.000000
    15  Si    c     0.863717    0.447654    0.635144    0.000000
    16  Si    c     0.441970    0.574749    0.466714    0.000000
    17  Si    c     0.397238    0.866152    0.798589    0.000000
    18  Si    c     0.096210    0.524652    0.130554    0.000000
    19  Si    c     0.395845    0.517256    0.362826    0.000000
    20  Si    c     0.103065    0.578564    0.027171    0.000000
    21  Si    c     0.447795    0.868217    0.696995    0.000000
    22  Si    c     0.566556    0.450820    0.864527    0.000000
    23  Si    c     0.857593    0.388695    0.534119    0.000000
    24  Si    c     0.515019    0.103741    0.201236    0.000000
    25  Si    c     0.285696    0.379576    0.848722    0.000000
    26  Si    c     0.585964    0.896431    0.184840    0.000000
    27  Si    c     0.058605    0.672175    0.516674    0.000000
    28  Si    c     0.682227    0.592231    0.347233    0.000000
    29  Si    c     0.375543    0.075824    0.683844    0.000000
    30  Si    c     0.885941    0.290271    0.011318    0.000000
    31  Si    c     0.373623    0.290839    0.481939    0.000000
    32  Si    c     0.882224    0.596715    0.144919    0.000000
    33  Si    c     0.679817    0.076760    0.813443    0.000000
    34  Si    c     0.588650    0.681393    0.979256    0.000000
    35  Si    c     0.074072    0.378465    0.648035    0.000000
    36  Si    c     0.281653    0.889043    0.314690    0.000000
    37  Si    c     0.238700    0.325280    0.949052    0.000000
    38  Si    c     0.641966    0.899042    0.285723    0.000000
    39  Si    c     0.061986    0.727400    0.617688    0.000000
    40  Ge    c     0.706406    0.628143    0.447300    0.000000
    41  Si    c     0.319910    0.066748    0.784470    0.000000
    42  Si    c     0.891233    0.242074    0.114360    0.000000
    43  Si    c     0.316927    0.236795    0.379672    0.000000
    44  Ge    c     0.899218    0.660446    0.041645    0.000000
    45  Si    c     0.728537    0.069888    0.712856    0.000000
    46  Si    c     0.644051    0.730038    0.878758    0.000000
    47  Si    c     0.060003    0.314877    0.547674    0.000000
    48  Si    c     0.233312    0.902697    0.214034    0.000000
    49  Si    c     0.958475    0.113106    0.962984    0.000000
    50  Si    c     0.858788    0.836539    0.297584    0.000000
    51  Si    c     0.127320    0.008675    0.632166    0.000000
    52  Si    c     0.993935    0.854415    0.465061    0.000000
    53  Si    c     0.103782    0.129599    0.797933    0.000000
    54  Si    c     0.831487    0.964175    0.132288    0.000000
    55  Si    c     0.099843    0.951805    0.365432    0.000000
    56  Si    c     0.836285    0.876654    0.030606    0.000000
    57  Si    c     0.008109    0.130849    0.697340    0.000000
    58  Si    c     0.861741    0.009927    0.863065    0.000000
    59  Si    c     0.125133    0.100776    0.531187    0.000000
    60  Si    c     0.954853    0.844525    0.197262    0.000000
    61  O2    c     0.903169    0.002001    0.999807    0.000000
    62  O2    c     0.980454    0.910389    0.331259    0.000000
    63  O2    c     0.046847    0.051816    0.663355    0.000000
    64  O2    c     0.050952    0.981108    0.497441    0.000000
    65  O2    c     0.981515    0.051503    0.830090    0.000000
    66  O2    c     0.915583    0.925597    0.164222    0.000000
    67  O2    c     0.319343    0.564062    0.329601    0.000000
    68  O2    c     0.398005    0.743648    0.663771    0.000000
    69  O2    c     0.230920    0.646987    0.996488    0.000000
    70  O2    c     0.642576    0.400710    0.832814    0.000000
    71  O2    c     0.566672    0.231636    0.170757    0.000000
    72  O2    c     0.728767    0.309862    0.502139    0.000000
    73  O3    c     0.560389    0.323605    0.998897    0.000000
    74  O2    c     0.740252    0.401104    0.667843    0.000000
    75  O2    c     0.640587    0.223873    0.335732    0.000000
    76  O2    c     0.379692    0.641097    0.496723    0.000000
    77  O2    c     0.219833    0.573802    0.164071    0.000000
    78  O2    c     0.322557    0.740193    0.830571    0.000000
    79  O2    c     0.113191    0.197509    0.969221    0.000000
    80  O2    c     0.768852    0.899735    0.305410    0.000000
    81  O2    c     0.063170    0.854232    0.637667    0.000000
    82  O3    c     0.844043    0.774299    0.468700    0.000000
    83  O2    c     0.193331    0.065678    0.804210    0.000000
    84  O2    c     0.893048    0.119207    0.136019    0.000000
    85  O2    c     0.193162    0.107413    0.359739    0.000000
    86  O3    c     0.919193    0.808718    0.025096    0.000000
    87  O2    c     0.853375    0.068785    0.692569    0.000000
    88  O2    c     0.770704    0.855207    0.858190    0.000000
    89  O2    c     0.058554    0.188397    0.527353    0.000000
    90  O2    c     0.109907    0.907327    0.193483    0.000000
    91  O2    c     0.913590    0.859631    0.247192    0.000000
    92  O2    c     0.117348    0.047310    0.581206    0.000000
    93  O2    c     0.917260    0.049968    0.913620    0.000000
    94  O2    c     0.050486    0.114586    0.747155    0.000000
    95  O2    c     0.837980    0.922091    0.081904    0.000000
    96  O2    c     0.049004    0.912947    0.415511    0.000000
    97  O2    c     0.898710    0.204447    0.971826    0.000000
    98  O2    c     0.771303    0.682209    0.305429    0.000000
    99  O2    c     0.278878    0.078606    0.645544    0.000000
   100  O2    c     0.056118    0.765121    0.477779    0.000000
   101  O2    c     0.187597    0.281796    0.809844    0.000000
   102  O2    c     0.681368    0.894626    0.146641    0.000000
   103  O2    c     0.183633    0.884944    0.352984    0.000000
   104  O2    c     0.685728    0.778280    0.018395    0.000000
   105  O2    c     0.078338    0.283366    0.686323    0.000000
   106  O2    c     0.778940    0.078359    0.851683    0.000000
   107  O2    c     0.277054    0.191943    0.519338    0.000000
   108  O2    c     0.886600    0.692566    0.185206    0.000000
   109  O2    c     0.302499    0.634100    0.247408    0.000000
   110  O2    c     0.326081    0.656683    0.581071    0.000000
   111  O2    c     0.305724    0.659328    0.913216    0.000000
   112  O2    c     0.658249    0.334925    0.750050    0.000000
   113  O3    c     0.610975    0.303411    0.085235    0.000000
   114  O2    c     0.657590    0.315359    0.417498    0.000000
   115  O2    c     0.358849    0.313451    0.967056    0.000000
   116  O2    c     0.651676    0.030225    0.305384    0.000000
   117  O2    c     0.932563    0.604277    0.637477    0.000000
   118  O3    c     0.594255    0.666006    0.471489    0.000000
   119  O2    c     0.309672    0.934053    0.802130    0.000000
   120  O2    c     0.021978    0.368510    0.132779    0.000000
   121  O2    c     0.310985    0.360030    0.360722    0.000000
   122  O3    c     0.043689    0.671052    0.025656    0.000000
   123  O2    c     0.604373    0.937125    0.694241    0.000000
   124  O2    c     0.652704    0.607424    0.860407    0.000000
   125  O2    c     0.924491    0.300571    0.530562    0.000000
   126  O2    c     0.358498    0.034946    0.196974    0.000000
   127  O3    c     0.751023    0.280384    0.004131    0.000000
   128  O2    c     0.677753    0.454256    0.343404    0.000000
   129  O2    c     0.511087    0.209850    0.676963    0.000000
   130  O2    c     0.192766    0.672969    0.509737    0.000000
   131  O2    c     0.288200    0.514078    0.840185    0.000000
   132  O2    c     0.448745    0.764329    0.176009    0.000000
   133  O2    c     0.282924    0.755605    0.320855    0.000000
   134  O2    c     0.455879    0.684107    0.985823    0.000000
   135  O2    c     0.207346    0.515307    0.654808    0.000000
   136  O2    c     0.679101    0.209799    0.821862    0.000000
   137  O2    c     0.507911    0.292052    0.487841    0.000000
   138  O2    c     0.751955    0.459125    0.152765    0.000000
   139  O1    c     0.765070    0.539909    0.017086    0.000000
   140  O2    c     0.449110    0.246461    0.363449    0.000000
   141  O2    c     0.729390    0.196146    0.693922    0.000000
   142  O2    c     0.183349    0.441210    0.526703    0.000000
   143  O2    c     0.519738    0.733496    0.859249    0.000000
   144  O2    c     0.229834    0.775764    0.193653    0.000000
   145  O2    c     0.515170    0.771399    0.304136    0.000000
   146  O2    c     0.235354    0.449268    0.969254    0.000000
   147  O2    c     0.190993    0.731356    0.636035    0.000000
   148  O2    c     0.446259    0.193297    0.804730    0.000000
   149  O3    c     0.735302    0.516327    0.476470    0.000000
   150  O2    c     0.766970    0.245601    0.132154    0.000000
   151  O2    c     0.213795    0.306644    0.894830    0.000000
   152  O2    c     0.658909    0.898773    0.231460    0.000000
   153  O2    c     0.055966    0.741768    0.563483    0.000000
   154  O3    c     0.760229    0.675048    0.390424    0.000000
   155  O2    c     0.301682    0.069677    0.730239    0.000000
   156  O2    c     0.893511    0.229619    0.060096    0.000000
   157  O2    c     0.304949    0.228550    0.433744    0.000000
   158  O3    c     0.884810    0.671545    0.100438    0.000000
   159  O2    c     0.749364    0.072842    0.767128    0.000000
   160  O2    c     0.664620    0.750277    0.933078    0.000000
   161  O2    c     0.067478    0.301343    0.601915    0.000000
   162  O2    c     0.213005    0.896652    0.268225    0.000000
   163  O2    c     0.569329    0.541604    0.989033    0.000000
   164  O2    c     0.422257    0.014704    0.324707    0.000000
   165  O2    c     0.949035    0.391586    0.657653    0.000000
   166  O2    c     0.392621    0.432185    0.488608    0.000000
   167  O2    c     0.539746    0.950832    0.821718    0.000000
   168  O2    c     0.006536    0.578617    0.149018    0.000000
   169  O2    c     0.537413    0.570127    0.341188    0.000000
   170  O2    c     0.005121    0.437532    0.005874    0.000000
   171  O2    c     0.389449    0.951177    0.674346    0.000000
   172  O2    c     0.424362    0.391717    0.841208    0.000000
   173  O2    c     0.937433    0.527740    0.509534    0.000000
   174  O2    c     0.574353    0.023260    0.177399    0.000000
   175  O2    c     0.566967    0.154706    0.252436    0.000000
   176  O2    c     0.806652    0.390638    0.584780    0.000000
   177  O2    c     0.569202    0.402882    0.915420    0.000000
   178  O2    c     0.395126    0.813792    0.747485    0.000000
   179  O2    c     0.143957    0.571379    0.079530    0.000000
   180  O2    c     0.394987    0.567693    0.413666    0.000000
   181  F     c     0.433493    0.892875    0.249642    0.000000
   182  F     c     0.068144    0.522411    0.582821    0.000000
   183  F     c     0.433453    0.533231    0.913736    0.000000
   184  F     c     0.527978    0.076232    0.748542    0.000000
   185  F     c     0.851918    0.443029    0.070990    0.000000
   186  F     c     0.560993    0.478232    0.420346    0.000000
   187  O2    s     0.901833    0.000433    0.999082    0.000000
   188  O2    s     0.980135    0.906730    0.331287    0.000000
   189  O2    s     0.051514    0.055772    0.663651    0.000000
   190  O2    s     0.053558    0.981606    0.497931    0.000000
   191  O2    s     0.981745    0.055587    0.830196    0.000000
   192  O2    s     0.910668    0.920978    0.164340    0.000000
   193  O2    s     0.331227    0.572041    0.329801    0.000000
   194  O2    s     0.390166    0.747628    0.663873    0.000000
   195  O2    s     0.225422    0.635447    0.996404    0.000000
   196  O2    s     0.630679    0.393046    0.832666    0.000000
   197  O2    s     0.572501    0.226236    0.170053    0.000000
   198  O2    s     0.734235    0.323083    0.502020    0.000000
   199  O3    s     0.565315    0.335349    0.997853    0.000000
   200  O2    s     0.744302    0.393136    0.667739    0.000000
   201  O2    s     0.629001    0.220238    0.335557    0.000000
   202  O2    s     0.374038    0.629470    0.497105    0.000000
   203  O2    s     0.215484    0.581049    0.163995    0.000000
   204  O2    s     0.334427    0.744799    0.830613    0.000000
   205  O2    s     0.109209    0.201365    0.966516    0.000000
   206  O2    s     0.764985    0.893097    0.302572    0.000000
   207  O2    s     0.069837    0.857523    0.635053    0.000000
   208  O3    s     0.852041    0.773782    0.466900    0.000000
   209  O2    s     0.196893    0.072521    0.801544    0.000000
   210  O2    s     0.886423    0.115808    0.133395    0.000000
   211  O2    s     0.196962    0.105478    0.362432    0.000000
   212  O3    s     0.909129    0.804411    0.026912    0.000000
   213  O2    s     0.856894    0.075485    0.695145    0.000000
   214  O2    s     0.767383    0.858872    0.860814    0.000000
   215  O2    s     0.065754    0.192233    0.529839    0.000000
   216  O2    s     0.106416    0.900255    0.195985    0.000000
   217  O2    s     0.912096    0.855345    0.247227    0.000000
   218  O2    s     0.119345    0.049003    0.581305    0.000000
   219  O2    s     0.915721    0.052650    0.913560    0.000000
   220  O2    s     0.051688    0.118105    0.747244    0.000000
   221  O2    s     0.837048    0.922044    0.082172    0.000000
   222  O2    s     0.049219    0.911403    0.414805    0.000000
   223  O2    s     0.903847    0.203730    0.975066    0.000000
   224  O2    s     0.771667    0.689424    0.308658    0.000000
   225  O2    s     0.272619    0.070874    0.648038    0.000000
   226  O2    s     0.050168    0.764267    0.480604    0.000000
   227  O2    s     0.188644    0.275490    0.812536    0.000000
   228  O2    s     0.687383    0.902188    0.149094    0.000000
   229  O2    s     0.185030    0.892403    0.350299    0.000000
   230  O2    s     0.691712    0.778732    0.015675    0.000000
   231  O2    s     0.070497    0.276907    0.683607    0.000000
   232  O2    s     0.777630    0.070920    0.848989    0.000000
   233  O2    s     0.271574    0.193045    0.516585    0.000000
   234  O2    s     0.893446    0.699191    0.182501    0.000000
   235  O2    s     0.308495    0.646030    0.247529    0.000000
   236  O2    s     0.313979    0.650792    0.581189    0.000000
   237  O2    s     0.312090    0.653658    0.913279    0.000000
   238  O2    s     0.652224    0.323014    0.750009    0.000000
   239  O3    s     0.623540    0.308899    0.086915    0.000000
   240  O2    s     0.651893    0.319807    0.417205    0.000000
   241  O2    s     0.361397    0.323276    0.965024    0.000000
   242  O2    s     0.641673    0.023663    0.303048    0.000000
   243  O2    s     0.939103    0.601099    0.635145    0.000000
   244  O3    s     0.586400    0.653848    0.469257    0.000000
   245  O2    s     0.319681    0.940952    0.799918    0.000000
   246  O2    s     0.016077    0.371643    0.130617    0.000000
   247  O2    s     0.320218    0.363082    0.362917    0.000000
   248  O3    s     0.038433    0.660961    0.027051    0.000000
   249  O2    s     0.601246    0.943946    0.696490    0.000000
   250  O2    s     0.642951    0.604260    0.862767    0.000000
   251  O2    s     0.931755    0.311183    0.532734    0.000000
   252  O2    s     0.361457    0.028088    0.199224    0.000000
   253  O3    s     0.762001    0.288032    0.007023    0.000000
   254  O2    s     0.670646    0.453437    0.346221    0.000000
   255  O2    s     0.511588    0.202601    0.680065    0.000000
   256  O2    s     0.185766    0.665061    0.512779    0.000000
   257  O2    s     0.295620    0.514661    0.843485    0.000000
   258  O2    s     0.448269    0.771080    0.179242    0.000000
   259  O2    s     0.290606    0.762776    0.317834    0.000000
   260  O2    s     0.454782    0.675701    0.982778    0.000000
   261  O2    s     0.199846    0.515318    0.651681    0.000000
   262  O2    s     0.671359    0.202705    0.818715    0.000000
   263  O2    s     0.508517    0.299169    0.485326    0.000000
   264  O2    s     0.758315    0.459171    0.149951    0.000000
   265  O1    s     0.772428    0.539684    0.020177    0.000000
   266  O2    s     0.451114    0.252454    0.365533    0.000000
   267  O2    s     0.721495    0.190716    0.696546    0.000000
   268  O2    s     0.178029    0.443783    0.529410    0.000000
   269  O2    s     0.516829    0.725122    0.861758    0.000000
   270  O2    s     0.238095    0.781078    0.196251    0.000000
   271  O2    s     0.512549    0.776705    0.301575    0.000000
   272  O2    s     0.243634    0.452369    0.966555    0.000000
   273  O2    s     0.185396    0.723132    0.633609    0.000000
   274  O2    s     0.448850    0.188190    0.802079    0.000000
   275  O3    s     0.724962    0.508870    0.473670    0.000000
   276  O2    s     0.771581    0.251791    0.130264    0.000000
   277  O2    s     0.223900    0.316248    0.895684    0.000000
   278  O2    s     0.649375    0.898550    0.232288    0.000000
   279  O2    s     0.056866    0.732975    0.564376    0.000000
   280  O3    s     0.748470    0.663230    0.389807    0.000000
   281  O2    s     0.311379    0.070010    0.731103    0.000000
   282  O2    s     0.892543    0.236927    0.061135    0.000000
   283  O2    s     0.313520    0.236057    0.432877    0.000000
   284  O3    s     0.885537    0.662828    0.100678    0.000000
   285  O2    s     0.739894    0.072938    0.766222    0.000000
   286  O2    s     0.654614    0.741033    0.932157    0.000000
   287  O2    s     0.067370    0.310791    0.600946    0.000000
   288  O2    s     0.222338    0.896490    0.267327    0.000000
   289  O2    s     0.565928    0.542730    0.985693    0.000000
   290  O2    s     0.422142    0.009943    0.321328    0.000000
   291  O2    s     0.953766    0.396201    0.654263    0.000000
   292  O2    s     0.395619    0.430801    0.485693    0.000000
   293  O2    s     0.540011    0.955796    0.818394    0.000000
   294  O2    s     0.002975    0.574588    0.146583    0.000000
   295  O2    s     0.537390    0.566680    0.344115    0.000000
   296  O2    s     0.003038    0.437374    0.008745    0.000000
   297  O2    s     0.394202    0.956171    0.677741    0.000000
   298  O2    s     0.424217    0.396733    0.844453    0.000000
   299  O2    s     0.942366    0.528725    0.512892    0.000000
   300  O2    s     0.569305    0.017861    0.180672    0.000000
   301  O2    s     0.561268    0.143462    0.252336    0.000000
   302  O2    s     0.817898    0.396340    0.584708    0.000000
   303  O2    s     0.563715    0.407603    0.915125    0.000000
   304  O2    s     0.400790    0.824857    0.747554    0.000000
   305  O2    s     0.134762    0.567093    0.079725    0.000000
   306  O2    s     0.399679    0.563026    0.413426    0.000000
   307  F     s     0.433233    0.892416    0.249609    0.000000
   308  F     s     0.068678    0.522375    0.582804    0.000000
   309  F     s     0.432768    0.533749    0.913699    0.000000
   310  F     s     0.528241    0.076722    0.748512    0.000000
   311  F     s     0.842655    0.440353    0.068643    0.000000
   312  F     s     0.569880    0.487177    0.421844    0.000000
--------------------------------------------------------------------------------

  Final Cartesian lattice vectors (Angstroms) :

       11.996156   -0.022548   -0.022318
       -6.084853   10.350606   -0.009260
       -0.188060   -0.198421   29.498676


  Final cell parameters and derivatives :

--------------------------------------------------------------------------------
       a           11.996198 Angstrom     dE/de1(xx)     0.001682 eV/strain
       b           12.006689 Angstrom     dE/de2(yy)     0.001731 eV/strain
       c           29.499943 Angstrom     dE/de3(zz)     0.001667 eV/strain
       alpha       90.191303 Degrees      dE/de4(yz)    -0.000585 eV/strain
       beta        90.471126 Degrees      dE/de5(xz)    -0.000103 eV/strain
       gamma      120.557696 Degrees      dE/de6(xy)    -0.000342 eV/strain
--------------------------------------------------------------------------------

  Primitive cell volume =          3658.636697 Angs**3

  Density of cell =      1.748764 g/cm**3

  Non-primitive cell volume =          3658.636697 Angs**3


  Final internal derivatives :

--------------------------------------------------------------------------------
   No.  Atomic          a             b             c           Radius
        Label          (eV)          (eV)          (eV)        (eV/Angs)
--------------------------------------------------------------------------------
      1 Ge    c       0.000000      0.000000      0.000000      0.000000
      2 Si    c      -0.000044      0.000624      0.000083      0.000000
      3 Si    c      -0.000243      0.000319     -0.000618      0.000000
      4 Si    c      -0.000183     -0.000172      0.000870      0.000000
      5 Si    c       0.000312     -0.000058     -0.000083      0.000000
      6 Si    c       0.000027     -0.000056     -0.000088      0.000000
      7 Si    c       0.000080     -0.000048     -0.000301      0.000000
      8 Si    c       0.000519     -0.000606     -0.000480      0.000000
      9 Si    c      -0.000045     -0.000361      0.000352      0.000000
     10 Si    c      -0.000442     -0.000151     -0.001578      0.000000
     11 Si    c       0.000065      0.001372     -0.000406      0.000000
     12 Si    c       0.000403     -0.000072      0.004873      0.000000
     13 Si    c      -0.002206      0.000651     -0.004450      0.000000
     14 Si    c      -0.000548     -0.000588     -0.000666      0.000000
     15 Si    c      -0.000320      0.000349      0.000142      0.000000
     16 Si    c       0.000977     -0.000725     -0.000128      0.000000
     17 Si    c       0.000460     -0.000017     -0.000128      0.000000
     18 Si    c      -0.000001     -0.000346      0.000291      0.000000
     19 Si    c       0.000893     -0.000193      0.000702      0.000000
     20 Si    c      -0.000255     -0.001353      0.002950      0.000000
     21 Si    c       0.000256     -0.000235      0.000261      0.000000
     22 Si    c      -0.000487      0.000346     -0.000758      0.000000
     23 Si    c       0.000177      0.000395      0.000491      0.000000
     24 Si    c      -0.000296     -0.000379      0.000128      0.000000
     25 Si    c       0.000354      0.000162      0.000227      0.000000
     26 Si    c       0.000158     -0.000010      0.000011      0.000000
     27 Si    c       0.000020      0.000541     -0.000273      0.000000
     28 Si    c       0.000049      0.000293     -0.000520      0.000000
     29 Si    c      -0.000444      0.000140     -0.000209      0.000000
     30 Si    c       0.000880      0.000306      0.003102      0.000000
     31 Si    c       0.000645      0.000436      0.000289      0.000000
[...]
     59 Si    c       0.000210      0.000141      0.000484      0.000000
     60 Si    c      -0.000089     -0.000181     -0.000317      0.000000
     61 O2    c       0.001246     -0.001881      0.003217      0.000000
     62 O2    c       0.000106      0.000186     -0.000022      0.000000
     63 O2    c       0.000235      0.000154      0.000208      0.000000
     64 O2    c      -0.000099      0.000053      0.000032      0.000000
     65 O2    c       0.000157      0.000075      0.000020      0.000000
     66 O2    c       0.000231     -0.000337      0.000274      0.000000
     67 O2    c      -0.000017     -0.000218      0.000057      0.000000
     68 O2    c       0.000274     -0.000223      0.000009      0.000000
     69 O2    c       0.000270      0.000653      0.000638      0.000000
     70 O2    c       0.000091      0.000180     -0.001223      0.000000
     71 O2    c      -0.000081     -0.000082      0.000436      0.000000
     72 O2    c      -0.000249     -0.000092     -0.000249      0.000000
     73 O3    c      -0.000880     -0.003245      0.001284      0.000000
     74 O2    c      -0.000309      0.000288     -0.000222      0.000000
     75 O2    c      -0.000173     -0.000212     -0.000349      0.000000
     76 O2    c       0.000020      0.000319      0.000733      0.000000
     77 O2    c       0.000202     -0.000192      0.000024      0.000000
     78 O2    c       0.000280      0.000236     -0.000315      0.000000
     79 O2    c       0.001854     -0.000130      0.000240      0.000000
     80 O2    c       0.000039     -0.000113     -0.000325      0.000000
     81 O2    c       0.000071      0.000255      0.000090      0.000000
     82 O3    c      -0.000493     -0.000079      0.000083      0.000000
     83 O2    c       0.000079      0.000224     -0.000701      0.000000
     84 O2    c      -0.000041      0.000303      0.000712      0.000000
     85 O2    c      -0.000025     -0.000286     -0.000351      0.000000
     86 O3    c       0.003765     -0.002947     -0.000212      0.000000
     87 O2    c       0.000081     -0.000103     -0.000330      0.000000
     88 O2    c      -0.000002      0.000287     -0.000009      0.000000
     89 O2    c       0.000335      0.000320      0.000109      0.000000
     90 O2    c       0.000242      0.000040     -0.000341      0.000000
     91 O2    c      -0.000263      0.000398      0.002246      0.000000
     92 O2    c       0.000086      0.000132      0.000080      0.000000
     93 O2    c      -0.000128     -0.000414     -0.003021      0.000000
     94 O2    c       0.000289      0.000025      0.001289      0.000000
     95 O2    c      -0.000437      0.000592      0.000710      0.000000
     96 O2    c      -0.000065      0.000159     -0.000147      0.000000
     97 O2    c      -0.002804      0.002721      0.000662      0.000000
     98 O2    c      -0.000027     -0.000134     -0.000273      0.000000
     99 O2    c      -0.000136      0.000220     -0.000047      0.000000
    100 O2    c       0.000416      0.000105      0.000780      0.000000
    101 O2    c       0.000120      0.000237     -0.000870      0.000000
    102 O2    c       0.000214     -0.000043     -0.000062      0.000000
    103 O2    c      -0.000268      0.000228     -0.000133      0.000000
    104 O2    c      -0.002120      0.000354      0.000800      0.000000
    105 O2    c       0.000189     -0.000148      0.000075      0.000000
    106 O2    c       0.000007     -0.000043     -0.000403      0.000000
    107 O2    c      -0.000116      0.000039     -0.000064      0.000000
    108 O2    c       0.000227     -0.000600     -0.000147      0.000000
    109 O2    c       0.000124      0.000262     -0.000568      0.000000
    110 O2    c       0.000473     -0.000020      0.001339      0.000000
    111 O2    c       0.000857     -0.000437      0.000775      0.000000
    112 O2    c      -0.000204      0.000100     -0.000530      0.000000
    113 O3    c      -0.001141     -0.000540      0.001932      0.000000
    114 O2    c      -0.000530     -0.000061      0.000313      0.000000
    115 O2    c      -0.000616      0.000619     -0.000793      0.000000
    116 O2    c      -0.000086     -0.000076     -0.000103      0.000000
    117 O2    c      -0.000024      0.000089     -0.000089      0.000000
    118 O3    c       0.001712     -0.002034     -0.002030      0.000000
    119 O2    c      -0.000165      0.000556     -0.000176      0.000000
    120 O2    c       0.000515      0.000284      0.001147      0.000000
    121 O2    c       0.000176     -0.000363      0.000208      0.000000
    122 O3    c       0.000846      0.001184     -0.000925      0.000000
    123 O2    c       0.000016     -0.000027      0.000345      0.000000
    124 O2    c      -0.000189      0.000209      0.000449      0.000000
    125 O2    c       0.000772      0.000374      0.000928      0.000000
    126 O2    c       0.000202     -0.000171      0.000308      0.000000
    127 O3    c       0.001871     -0.000948     -0.000464      0.000000
    128 O2    c      -0.000698      0.000334      0.000419      0.000000
    129 O2    c       0.000091      0.000173      0.000416      0.000000
    130 O2    c       0.000056      0.000398     -0.000099      0.000000
    131 O2    c       0.000471     -0.000339      0.000575      0.000000
    132 O2    c      -0.000076      0.000036      0.001075      0.000000
    133 O2    c       0.000113      0.000334     -0.000692      0.000000
    134 O2    c       0.000857     -0.000586     -0.000632      0.000000
    135 O2    c       0.000247      0.000285     -0.000668      0.000000
    136 O2    c       0.000072     -0.000112     -0.000699      0.000000
    137 O2    c      -0.000075      0.000108     -0.000322      0.000000
    138 O2    c      -0.000269      0.000115      0.000579      0.000000
    139 O1    c      -0.000463     -0.000442      0.000913      0.000000
    140 O2    c      -0.000021      0.000085     -0.000120      0.000000
    141 O2    c      -0.000112     -0.000236      0.000461      0.000000
    142 O2    c       0.000028      0.000159      0.001067      0.000000
    143 O2    c       0.000121     -0.000027      0.000352      0.000000
    144 O2    c       0.000459      0.000022      0.000726      0.000000
    145 O2    c       0.000017      0.000143     -0.000533      0.000000
    146 O2    c       0.000610     -0.000342     -0.000823      0.000000
    147 O2    c       0.000110      0.000222      0.000403      0.000000
    148 O2    c       0.000216      0.000189     -0.000477      0.000000
    149 O3    c      -0.001073      0.000856     -0.001331      0.000000
    150 O2    c       0.000671     -0.000278      0.000305      0.000000
    151 O2    c       0.000213      0.000158      0.000497      0.000000
    152 O2    c      -0.000219     -0.000005      0.000486      0.000000
    153 O2    c       0.000038      0.000253     -0.000554      0.000000
    154 O3    c      -0.000596     -0.000268      0.003043      0.000000
    155 O2    c       0.000170      0.000237      0.000399      0.000000
    156 O2    c       0.000333      0.000066     -0.001876      0.000000
    157 O2    c      -0.000103     -0.000088      0.000720      0.000000
    158 O3    c       0.000051      0.001206      0.008487      0.000000
    159 O2    c      -0.000395      0.000062      0.000308      0.000000
    160 O2    c      -0.000138      0.000169      0.000157      0.000000
    161 O2    c      -0.000059      0.000573     -0.001500      0.000000
    162 O2    c       0.000492     -0.000166     -0.000089      0.000000
    163 O2    c      -0.000137      0.000539     -0.001154      0.000000
    164 O2    c       0.000315     -0.000021     -0.000658      0.000000
    165 O2    c       0.000154      0.000217     -0.000781      0.000000
    166 O2    c       0.000341     -0.000340     -0.001128      0.000000
    167 O2    c       0.000367     -0.000143     -0.000426      0.000000
    168 O2    c       0.000517     -0.000031      0.001729      0.000000
    169 O2    c       0.000532     -0.000562      0.000451      0.000000
    170 O2    c       0.000734     -0.000030     -0.001080      0.000000
    171 O2    c       0.000134      0.000238      0.000302      0.000000
    172 O2    c      -0.000122      0.000407      0.000480      0.000000
    173 O2    c       0.000124      0.000190      0.000854      0.000000
    174 O2    c       0.000067     -0.000191      0.000619      0.000000
    175 O2    c       0.000033      0.000021      0.000049      0.000000
    176 O2    c       0.000261      0.000221     -0.000895      0.000000
    177 O2    c      -0.000772      0.000864     -0.000479      0.000000
    178 O2    c       0.000347     -0.000107      0.000227      0.000000
    179 O2    c       0.000646      0.000006      0.001457      0.000000
    180 O2    c       0.000507     -0.000587      0.001315      0.000000
    181 F     c      -0.000018     -0.000175     -0.000055      0.000000
    182 F     c       0.000079     -0.000273     -0.000104      0.000000
    183 F     c       0.000121     -0.000203      0.000576      0.000000
    184 F     c       0.000102      0.000055     -0.000233      0.000000
    185 F     c      -0.001096      0.000748     -0.003827      0.000000
    186 F     c       0.000096      0.000569      0.001402      0.000000
    187 O2    s       0.002545     -0.001735      0.002113      0.000000
    188 O2    s       0.000075     -0.000292     -0.000341      0.000000
    189 O2    s       0.000089      0.000118     -0.000092      0.000000
    190 O2    s       0.000023     -0.000107     -0.000200      0.000000
    191 O2    s       0.000211      0.000263      0.000107      0.000000
    192 O2    s       0.000220     -0.000544     -0.000006      0.000000
    193 O2    s      -0.000088     -0.000028      0.001030      0.000000
    194 O2    s      -0.000092      0.000257      0.000186      0.000000
    195 O2    s       0.000095      0.000224      0.000424      0.000000
    196 O2    s       0.000372     -0.000037     -0.000296      0.000000
    197 O2    s       0.000672      0.000071      0.000387      0.000000
    198 O2    s       0.000383      0.000060     -0.001046      0.000000
    199 O3    s       0.002331      0.002175      0.001264      0.000000
    200 O2    s       0.000322     -0.000024     -0.000254      0.000000
    201 O2    s       0.000002      0.000045      0.000550      0.000000
    202 O2    s       0.000154      0.000339     -0.000193      0.000000
    203 O2    s       0.000391     -0.000176      0.000188      0.000000
    204 O2    s      -0.000214      0.000470      0.000331      0.000000
    205 O2    s       0.002312      0.000420     -0.003010      0.000000
    206 O2    s      -0.000106      0.000134      0.000109      0.000000
    207 O2    s       0.000264      0.000071      0.000183      0.000000
    208 O3    s      -0.000169     -0.000529     -0.000668      0.000000
    209 O2    s       0.000204     -0.000009     -0.000201      0.000000
    210 O2    s       0.000063      0.000451      0.001385      0.000000
    211 O2    s      -0.000390     -0.001086     -0.000655      0.000000
    212 O3    s       0.001060     -0.002403      0.002407      0.000000
    213 O2    s      -0.000038      0.000236     -0.000596      0.000000
    214 O2    s       0.000539      0.000266     -0.000190      0.000000
    215 O2    s       0.000177      0.000320     -0.000025      0.000000
    216 O2    s       0.000439      0.000045     -0.000239      0.000000
    217 O2    s       0.000032      0.000079      0.001712      0.000000
    218 O2    s       0.000110     -0.000037      0.000185      0.000000
    219 O2    s       0.000267      0.000049     -0.003191      0.000000
    220 O2    s      -0.000004      0.000337      0.001170      0.000000
    221 O2    s      -0.000107     -0.000218      0.001492      0.000000
    222 O2    s       0.000409     -0.000179      0.000242      0.000000
    223 O2    s      -0.002588      0.002980      0.000655      0.000000
    224 O2    s       0.000277     -0.000647     -0.000145      0.000000
    225 O2    s       0.000148      0.000004     -0.000371      0.000000
    226 O2    s       0.000648      0.000032      0.000233      0.000000
    227 O2    s      -0.000322      0.000132     -0.000706      0.000000
    228 O2    s       0.000144     -0.000171      0.000067      0.000000
    229 O2    s      -0.000172      0.000180      0.000282      0.000000
    230 O2    s      -0.000509     -0.000489      0.003105      0.000000
    231 O2    s      -0.000063      0.000128      0.000626      0.000000
    232 O2    s      -0.000148      0.000262     -0.000823      0.000000
    233 O2    s      -0.000521     -0.000431      0.001005      0.000000
    234 O2    s       0.000527     -0.000252      0.000282      0.000000
    235 O2    s      -0.000023      0.000398      0.000058      0.000000
    236 O2    s       0.000169      0.000302      0.000827      0.000000
    237 O2    s       0.000445     -0.000074      0.000354      0.000000
    238 O2    s       0.000483     -0.000706     -0.000390      0.000000
    239 O3    s       0.002427      0.001205     -0.000311      0.000000
    240 O2    s       0.000533     -0.000648     -0.000055      0.000000
    241 O2    s       0.000420      0.000107     -0.001311      0.000000
    242 O2    s      -0.000214     -0.000075      0.000181      0.000000
    243 O2    s       0.000257     -0.000193      0.000344      0.000000
    244 O3    s       0.000677     -0.000707     -0.001665      0.000000
    245 O2    s       0.000105      0.000268     -0.000395      0.000000
    246 O2    s       0.000823      0.000444      0.001497      0.000000
    247 O2    s      -0.000489      0.000071     -0.000217      0.000000
    248 O3    s      -0.000024     -0.000230     -0.000136      0.000000
    249 O2    s      -0.000344      0.000565      0.000393      0.000000
    250 O2    s       0.000422     -0.000070      0.000351      0.000000
    251 O2    s       0.000365      0.000552      0.000794      0.000000
    252 O2    s       0.000449      0.000047      0.000009      0.000000
    253 O3    s       0.000730      0.000650      0.003088      0.000000
    254 O2    s       0.000117      0.000104     -0.000213      0.000000
    255 O2    s       0.000794     -0.000174      0.000429      0.000000
    256 O2    s       0.000072      0.000352     -0.000397      0.000000
    257 O2    s       0.000198     -0.000066      0.000397      0.000000
    258 O2    s      -0.000007      0.000114      0.001057      0.000000
    259 O2    s       0.000002      0.000117     -0.000264      0.000000
    260 O2    s       0.000431     -0.000096     -0.000496      0.000000
    261 O2    s       0.000094      0.000691     -0.000488      0.000000
    262 O2    s      -0.000141      0.000025     -0.001651      0.000000
    263 O2    s       0.000093     -0.000555      0.000419      0.000000
    264 O2    s       0.000052     -0.000267      0.002153      0.000000
    265 O1    s      -0.000249      0.000320     -0.000597      0.000000
    266 O2    s       0.000323     -0.000592     -0.000569      0.000000
    267 O2    s      -0.000080      0.000045      0.000899      0.000000
    268 O2    s      -0.000081      0.000478      0.000668      0.000000
    269 O2    s      -0.000020      0.000277      0.000223      0.000000
    270 O2    s       0.000220      0.000014      0.000856      0.000000
    271 O2    s      -0.000184      0.000292      0.000087      0.000000
    272 O2    s       0.000592      0.000019     -0.000776      0.000000
    273 O2    s       0.000066      0.000212      0.000669      0.000000
    274 O2    s       0.000999     -0.000198     -0.000350      0.000000
    275 O3    s      -0.000414     -0.000454     -0.002271      0.000000
    276 O2    s      -0.000108      0.000034      0.002050      0.000000
    277 O2    s       0.000373      0.000249      0.000252      0.000000
    278 O2    s      -0.000217      0.000129      0.000250      0.000000
    279 O2    s       0.000501      0.000215     -0.000399      0.000000
    280 O3    s       0.000072     -0.000588      0.002436      0.000000
    281 O2    s       0.000470     -0.000326      0.000480      0.000000
    282 O2    s      -0.000048      0.000264     -0.001481      0.000000
    283 O2    s      -0.000004     -0.000168      0.000539      0.000000
    284 O3    s       0.000222      0.002357      0.002836      0.000000
    285 O2    s      -0.000857      0.000892      0.000002      0.000000
    286 O2    s       0.000365     -0.000758     -0.000068      0.000000
    287 O2    s      -0.000331      0.000743     -0.000887      0.000000
    288 O2    s       0.000422     -0.000350      0.000309      0.000000
    289 O2    s       0.000489     -0.000809     -0.001485      0.000000
    290 O2    s       0.000860      0.000070     -0.000504      0.000000
    291 O2    s      -0.000107      0.000284     -0.000692      0.000000
    292 O2    s      -0.000261      0.000234     -0.000273      0.000000
    293 O2    s      -0.000395      0.000532     -0.000793      0.000000
    294 O2    s       0.000243     -0.000180      0.002400      0.000000
    295 O2    s       0.000098      0.000057     -0.000544      0.000000
    296 O2    s       0.000699     -0.000140      0.001034      0.000000
    297 O2    s       0.000130     -0.000019      0.000598      0.000000
    298 O2    s       0.000119      0.000255      0.000253      0.000000
    299 O2    s       0.000859     -0.000191      0.000508      0.000000
    300 O2    s       0.000071      0.000040      0.000446      0.000000
    301 O2    s      -0.000059     -0.000120     -0.000390      0.000000
    302 O2    s       0.000926     -0.000103     -0.000417      0.000000
    303 O2    s      -0.000167      0.000595      0.000061      0.000000
    304 O2    s      -0.000179      0.000553      0.000278      0.000000
    305 O2    s       0.000942     -0.000440      0.000767      0.000000
    306 O2    s      -0.000577      0.000677      0.000761      0.000000
    307 F     s       0.000021     -0.000085      0.000085      0.000000
    308 F     s       0.000128     -0.000101     -0.000248      0.000000
    309 F     s       0.000123     -0.000066      0.000652      0.000000
    310 F     s       0.000184     -0.000051     -0.000207      0.000000
    311 F     s      -0.002259     -0.000683     -0.004016      0.000000
    312 F     s       0.000469      0.000442      0.001420      0.000000
--------------------------------------------------------------------------------
  Maximum abs         0.003765      0.003245      0.008487      0.000000
--------------------------------------------------------------------------------


  Time to end of optimisation =    1007.1461 seconds


  Peak dynamic memory used =      19.13 MB 


  Timing analysis for GULP :

--------------------------------------------------------------------------------
  Task / Subroutine                                          Time (Seconds)
--------------------------------------------------------------------------------
  Calculation of reciprocal space energy and derivatives         23.2355
  Calculation of real space energy and derivatives              883.6360
  Calculation of three-body energy and derivatives               89.3059
  Calculation of matrix inversion                                 9.6755
  Global summation overhead                                       0.0016
--------------------------------------------------------------------------------
  Total CPU time                                               1007.1462
--------------------------------------------------------------------------------


  Dump file written as out.res                                                 
  CIF file written as out.cif                                                 


  Job Finished at 04:49.19 10th November   2016                               

