********************************************************************************
*                       GENERAL UTILITY LATTICE PROGRAM                        *
*                                 Julian Gale                                  *
*                      Nanochemistry Research Institute                        *
*                           Department of Chemistry                            *
*                    Curtin University, Western Australia                      *
********************************************************************************
* Version = 4.2.0 * Last modified =  20th January 2014                         *
********************************************************************************
*  optimise     - perform optimisation run                                     *
*  conp         - constant pressure calculation                                *
*  qok          - running with non charge neutral cell is OK                   *
********************************************************************************

  Job Started  at 02:52.46 18th November   2016                               

  Number of CPUs =     1


  Total number of configurations input =   1

********************************************************************************
*  Input for Configuration =   1                                               *
********************************************************************************

  Formula = Si57Ge3O120F6                                               

  Number of irreducible atoms/shells =     312


  Total number atoms/shells =     312

  Dimensionality = 3               :  Bulk   


  Charge on solid   =  -6.000000 =>neutralising background added


  Cartesian lattice vectors (Angstroms) :

       11.948998    0.000000    0.000000
       -5.907291   10.398124    0.000000
       -0.149302    0.167598   29.454809

  Cell parameters (Angstroms/Degrees):

  a =      11.9490    alpha =  89.5731
  b =      11.9590    beta  =  90.2904
  c =      29.4557    gamma = 119.6014

  Initial cell volume =        3659.676263 Angs**3

  Temperature of configuration =  0.000     K 

  Pressure of configuration =         0.000 GPa 

  Fractional coordinates of asymmetric unit :

--------------------------------------------------------------------------------
   No.  Atomic       x           y          z         Charge      Occupancy
        Label      (Frac)      (Frac)     (Frac)        (e)         (Frac)  
--------------------------------------------------------------------------------
      1 Si    c    0.699600    0.375700    0.033890     4.00000    1.000000    
      2 Si    c    0.625920 *  0.322809 *  0.367403 *   4.00000    1.000000    
      3 Si    c    0.679048 *  0.290201 *  0.698424 *   4.00000    1.000000    
      4 Si    c    0.302919 *  0.614820 *  0.537218 *   4.00000    1.000000    
      5 Si    c    0.385027 *  0.676872 *  0.869526 *   4.00000    1.000000    
      6 Si    c    0.327977 *  0.703084 *  0.201625 *   4.00000    1.000000    
      7 Si    c    0.384866 *  0.704668 *  0.302432 *   4.00000    1.000000    
      8 Si    c    0.326060 *  0.616909 *  0.971682 *   4.00000    1.000000    
      9 Si    c    0.296944 *  0.668697 *  0.637412 *   4.00000    1.000000    
     10 Si    c    0.632006 *  0.297994 *  0.799394 *   4.00000    1.000000    
     11 Si    c    0.677222 *  0.369240 *  0.468478 *   4.00000    1.000000    
     12 Si    c    0.706026 *  0.324431 *  0.135805 *   4.00000    1.000000    
     13 Ge    c    0.532951 *  0.426941 *  0.965728 *   4.00000    1.000000    
     14 Si    c    0.587088 *  0.113848 *  0.302256 *   4.00000    1.000000    
     15 Si    c    0.888821 *  0.464611 *  0.634276 *   4.00000    1.000000    
     16 Si    c    0.469452 *  0.574216 *  0.470588 *   4.00000    1.000000    
     17 Si    c    0.426790 *  0.889663 *  0.803937 *   4.00000    1.000000    
     18 Si    c    0.117103 *  0.530039 *  0.136919 *   4.00000    1.000000    
     19 Si    c    0.422094 *  0.531556 *  0.368496 *   4.00000    1.000000    
     20 Si    c    0.112683 *  0.578939 *  0.035468 *   4.00000    1.000000    
     21 Si    c    0.470324 *  0.878523 *  0.702452 *   4.00000    1.000000    
     22 Si    c    0.603389 *  0.467533 *  0.866700 *   4.00000    1.000000    
     23 Si    c    0.889595 *  0.410755 *  0.532995 *   4.00000    1.000000    
     24 Si    c    0.532854 *  0.113937 *  0.200536 *   4.00000    1.000000    
     25 Ge    c    0.311737 *  0.393106 *  0.854187 *   4.00000    1.000000    
     26 Si    c    0.605180 *  0.904669 *  0.186389 *   4.00000    1.000000    
     27 Si    c    0.100724 *  0.689744 *  0.519237 *   4.00000    1.000000    
     28 Si    c    0.703930 *  0.602495 *  0.355206 *   4.00000    1.000000    
     29 Si    c    0.400332 *  0.089355 *  0.687250 *   4.00000    1.000000    
     30 Si    c    0.905151 *  0.300460 *  0.021456 *   4.00000    1.000000    
     31 Si    c    0.399644 *  0.293434 *  0.482652 *   4.00000    1.000000    
     32 Si    c    0.907336 *  0.600962 *  0.150330 *   4.00000    1.000000    
     33 Si    c    0.707072 *  0.094755 *  0.815733 *   4.00000    1.000000    
     34 Si    c    0.609685 *  0.699806 *  0.989181 *   4.00000    1.000000    
     35 Si    c    0.095618 *  0.390623 *  0.651892 *   4.00000    1.000000    
     36 Si    c    0.307998 *  0.906169 *  0.317024 *   4.00000    1.000000    
     37 Si    c    0.252253 *  0.327941 *  0.957175 *   4.00000    1.000000    
     38 Si    c    0.664252 *  0.912129 *  0.287083 *   4.00000    1.000000    
     39 Si    c    0.088759 *  0.742232 *  0.619326 *   4.00000    1.000000    
     40 Si    c    0.747630 *  0.649903 *  0.456460 *   4.00000    1.000000    
     41 Si    c    0.349403 *  0.091271 *  0.787995 *   4.00000    1.000000    
     42 Si    c    0.916557 *  0.253101 *  0.122178 *   4.00000    1.000000    
     43 Si    c    0.345098 *  0.251861 *  0.381500 *   4.00000    1.000000    
     44 Si    c    0.911064 *  0.656412 *  0.049404 *   4.00000    1.000000    
     45 Si    c    0.749490 *  0.079446 *  0.714954 *   4.00000    1.000000    
     46 Si    c    0.670953 *  0.745145 *  0.886179 *   4.00000    1.000000    
     47 Si    c    0.092586 *  0.335983 *  0.551257 *   4.00000    1.000000    
     48 Si    c    0.255620 *  0.912608 *  0.216349 *   4.00000    1.000000    
     49 Si    c    0.969769 *  0.119858 *  0.970704 *   4.00000    1.000000    
     50 Si    c    0.882327 *  0.849114 *  0.302563 *   4.00000    1.000000    
     51 Si    c    0.152325 *  0.022113 *  0.636131 *   4.00000    1.000000    
     52 Ge    c    0.030177 *  0.872437 *  0.469061 *   4.00000    1.000000    
     53 Si    c    0.124434 *  0.146283 *  0.802691 *   4.00000    1.000000    
     54 Si    c    0.854567 *  0.973690 *  0.137197 *   4.00000    1.000000    
     55 Si    c    0.127510 *  0.975274 *  0.366323 *   4.00000    1.000000    
     56 Si    c    0.854552 *  0.880851 *  0.036872 *   4.00000    1.000000    
     57 Si    c    0.028370 *  0.140417 *  0.701668 *   4.00000    1.000000    
     58 Si    c    0.885281 *  0.026707 *  0.869030 *   4.00000    1.000000    
     59 Si    c    0.154165 *  0.118460 *  0.535191 *   4.00000    1.000000    
     60 Si    c    0.974291 *  0.847356 *  0.201625 *   4.00000    1.000000    
     61 O2    c    0.932177 *  0.998097 *  0.002652 *   0.87073    1.000000    
     62 O2    c    0.006522 *  0.933027 *  0.333206 *   0.87073    1.000000    
     63 O2    c    0.072593 *  0.062907 *  0.669144 *   0.87073    1.000000    
     64 O3    c    0.067097 *  0.998088 *  0.504844 *   1.33043    1.000000    
     65 O2    c    0.007658 *  0.063857 *  0.837248 *   0.87073    1.000000    
     66 O2    c    0.932277 *  0.930262 *  0.170444 *   0.87073    1.000000    
     67 O2    c    0.347024 *  0.582352 *  0.335765 *   0.87073    1.000000    
     68 O2    c    0.417701 *  0.751263 *  0.671205 *   0.87073    1.000000    
     69 O2    c    0.238585 *  0.653844 *  0.002764 *   0.87073    1.000000    
     70 O2    c    0.676904 *  0.425738 *  0.829602 *   0.87073    1.000000    
     71 O2    c    0.582311 *  0.239754 *  0.168240 *   0.87073    1.000000    
     72 O2    c    0.764677 *  0.331486 *  0.500692 *   0.87073    1.000000    
     73 O3    c    0.581951 *  0.339133 *  0.001873 *   1.33043    1.000000    
     74 O2    c    0.760759 *  0.412718 *  0.665441 *   0.87073    1.000000    
     75 O2    c    0.664437 *  0.239503 *  0.334243 *   0.87073    1.000000    
     76 O2    c    0.424629 *  0.651284 *  0.504390 *   0.87073    1.000000    
     77 O2    c    0.243342 *  0.580201 *  0.169327 *   0.87073    1.000000    
     78 O2    c    0.352132 *  0.768184 *  0.838269 *   0.87073    1.000000    
     79 O2    c    0.121352 *  0.210950 *  0.977611 *   0.87073    1.000000    
     80 O2    c    0.791046 *  0.912469 *  0.307225 *   0.87073    1.000000    
     81 O2    c    0.087423 *  0.867584 *  0.639458 *   0.87073    1.000000    
     82 O3    c    0.868134 *  0.772919 *  0.477984 *   1.33043    1.000000    
     83 O2    c    0.225969 *  0.094023 *  0.809183 *   0.87073    1.000000    
     84 O2    c    0.916717 *  0.126972 *  0.142985 *   0.87073    1.000000    
     85 O2    c    0.219747 *  0.128956 *  0.360090 *   0.87073    1.000000    
     86 O2    c    0.910501 *  0.783852 *  0.029916 *   0.87073    1.000000    
     87 O2    c    0.874605 *  0.077204 *  0.694848 *   0.87073    1.000000    
     88 O2    c    0.792385 *  0.872940 *  0.865449 *   0.87073    1.000000    
     89 O2    c    0.094309 *  0.212643 *  0.530484 *   0.87073    1.000000    
     90 O2    c    0.128349 *  0.911636 *  0.196435 *   0.87073    1.000000    
     91 O2    c    0.931636 *  0.854691 *  0.252129 *   0.87073    1.000000    
     92 O2    c    0.145104 *  0.068978 *  0.586241 *   0.87073    1.000000    
     93 O2    c    0.934092 *  0.069653 *  0.919626 *   0.87073    1.000000    
     94 O2    c    0.065123 *  0.122376 *  0.752446 *   0.87073    1.000000    
     95 O2    c    0.873982 *  0.935874 *  0.087114 *   0.87073    1.000000    
     96 O3    c    0.070422 *  0.938648 *  0.416039 *   1.33043    1.000000    
     97 O2    c    0.898632 *  0.200206 *  0.982924 *   0.87073    1.000000    
     98 O2    c    0.802578 *  0.699754 *  0.317358 *   0.87073    1.000000    
     99 O2    c    0.302657 *  0.089035 *  0.649003 *   0.87073    1.000000    
    100 O3    c    0.107626 *  0.786136 *  0.479688 *   1.33043    1.000000    
    101 O3    c    0.201422 *  0.295950 *  0.812822 *   1.33043    1.000000    
    102 O2    c    0.702174 *  0.904071 *  0.147944 *   0.87073    1.000000    
    103 O2    c    0.210264 *  0.904836 *  0.355633 *   0.87073    1.000000    
    104 O2    c    0.702206 *  0.808121 *  0.025508 *   0.87073    1.000000    
    105 O2    c    0.096028 *  0.292811 *  0.690595 *   0.87073    1.000000    
    106 O2    c    0.806758 *  0.098266 *  0.853960 *   0.87073    1.000000    
    107 O2    c    0.304056 *  0.193419 *  0.520703 *   0.87073    1.000000    
    108 O2    c    0.905407 *  0.697502 *  0.188419 *   0.87073    1.000000    
    109 O2    c    0.328185 *  0.646741 *  0.252292 *   0.87073    1.000000    
    110 O2    c    0.357973 *  0.669322 *  0.587894 *   0.87073    1.000000    
    111 O2    c    0.332313 *  0.672007 *  0.920579 *   0.87073    1.000000    
    112 O2    c    0.684050 *  0.349380 *  0.748392 *   0.87073    1.000000    
    113 O2    c    0.650139 *  0.324982 *  0.085701 *   0.87073    1.000000    
    114 O2    c    0.680180 *  0.316754 *  0.417831 *   0.87073    1.000000    
    115 O3    c    0.367521 *  0.312499 *  0.976341 *   1.33043    1.000000    
    116 O2    c    0.674543 *  0.044426 *  0.305458 *   0.87073    1.000000    
    117 O2    c    0.956422 *  0.620350 *  0.637755 *   0.87073    1.000000    
    118 O2    c    0.624493 *  0.659582 *  0.473873 *   0.87073    1.000000    
    119 O2    c    0.340516 *  0.959807 *  0.807462 *   0.87073    1.000000    
    120 O2    c    0.048891 *  0.374070 *  0.140878 *   0.87073    1.000000    
    121 O2    c    0.335833 *  0.376098 *  0.364432 *   0.87073    1.000000    
    122 O2    c    0.045204 *  0.668001 *  0.031454 *   0.87073    1.000000    
    123 O2    c    0.626224 *  0.945902 *  0.698529 *   0.87073    1.000000    
    124 O2    c    0.685337 *  0.625468 *  0.868165 *   0.87073    1.000000    
    125 O2    c    0.960540 *  0.324946 *  0.531790 *   0.87073    1.000000    
    126 O2    c    0.376645 *  0.044993 *  0.197684 *   0.87073    1.000000    
    127 O2    c    0.772360 *  0.301259 *  0.014194 *   0.87073    1.000000    
    128 O2    c    0.701797 *  0.467727 *  0.346559 *   0.87073    1.000000    
    129 O2    c    0.533949 *  0.221084 *  0.677847 *   0.87073    1.000000    
    130 O2    c    0.235757 *  0.690565 *  0.514421 *   0.87073    1.000000    
    131 O3    c    0.309988 *  0.536430 *  0.848569 *   1.33043    1.000000    
    132 O2    c    0.471243 *  0.771366 *  0.179361 *   0.87073    1.000000    
    133 O2    c    0.309540 *  0.772712 *  0.324882 *   0.87073    1.000000    
    134 O2    c    0.469949 *  0.691414 *  0.992719 *   0.87073    1.000000    
    135 O2    c    0.227450 *  0.525451 *  0.660037 *   0.87073    1.000000    
    136 O2    c    0.705854 *  0.228208 *  0.822323 *   0.87073    1.000000    
    137 O2    c    0.533781 *  0.292632 *  0.490399 *   0.87073    1.000000    
    138 O2    c    0.775037 *  0.466834 *  0.158387 *   0.87073    1.000000    
    139 O2    c    0.787930 *  0.532367 *  0.029164 *   0.87073    1.000000    
    140 O2    c    0.470562 *  0.251418 *  0.361941 *   0.87073    1.000000    
    141 O2    c    0.749208 *  0.204110 *  0.693831 *   0.87073    1.000000    
    142 O2    c    0.220338 *  0.459996 *  0.532727 *   0.87073    1.000000    
    143 O2    c    0.538896 *  0.733663 *  0.867499 *   0.87073    1.000000    
    144 O2    c    0.254830 *  0.786433 *  0.197021 *   0.87073    1.000000    
    145 O2    c    0.540605 *  0.785622 *  0.307039 *   0.87073    1.000000    
    146 O2    c    0.261714 *  0.462808 *  0.972967 *   0.87073    1.000000    
    147 O2    c    0.215518 *  0.744224 *  0.639785 *   0.87073    1.000000    
    148 O2    c    0.476110 *  0.218630 *  0.805743 *   0.87073    1.000000    
    149 O2    c    0.749983 *  0.523891 *  0.475174 *   0.87073    1.000000    
    150 O2    c    0.789320 *  0.251179 *  0.141193 *   0.87073    1.000000    
    151 O3    c    0.235934 *  0.310488 *  0.902719 *   1.33043    1.000000    
    152 O2    c    0.680801 *  0.909733 *  0.232779 *   0.87073    1.000000    
    153 O2    c    0.090289 *  0.761197 *  0.564727 *   0.87073    1.000000    
    154 O2    c    0.773764 *  0.672371 *  0.402192 *   0.87073    1.000000    
    155 O2    c    0.328558 *  0.089683 *  0.733728 *   0.87073    1.000000    
    156 O2    c    0.914358 *  0.232042 *  0.067959 *   0.87073    1.000000    
    157 O2    c    0.326355 *  0.226434 *  0.435766 *   0.87073    1.000000    
    158 O2    c    0.909202 *  0.674072 *  0.103706 *   0.87073    1.000000    
    159 O2    c    0.773895 *  0.086948 *  0.769128 *   0.87073    1.000000    
    160 O2    c    0.679964 *  0.759256 *  0.940430 *   0.87073    1.000000    
    161 O2    c    0.092718 *  0.317177 *  0.605677 *   0.87073    1.000000    
    162 O2    c    0.237159 *  0.911257 *  0.270719 *   0.87073    1.000000    
    163 O3    c    0.602960 *  0.567874 *  0.000297 *   1.33043    1.000000    
    164 O2    c    0.446863 *  0.030973 *  0.325939 *   0.87073    1.000000    
    165 O2    c    0.970078 *  0.405675 *  0.659282 *   0.87073    1.000000    
    166 O2    c    0.410942 *  0.431185 *  0.492382 *   0.87073    1.000000    
    167 O2    c    0.569387 *  0.969210 *  0.826133 *   0.87073    1.000000    
    168 O2    c    0.034308 *  0.589109 *  0.159781 *   0.87073    1.000000    
    169 O2    c    0.565108 *  0.591067 *  0.346984 *   0.87073    1.000000    
    170 O2    c    0.031708 *  0.438582 *  0.011885 *   0.87073    1.000000    
    171 O2    c    0.412263 *  0.962399 *  0.679376 *   0.87073    1.000000    
    172 O3    c    0.462372 *  0.417219 *  0.843714 *   1.33043    1.000000    
    173 O2    c    0.975685 *  0.551251 *  0.509758 *   0.87073    1.000000    
    174 O2    c    0.589338 *  0.029250 *  0.177489 *   0.87073    1.000000    
    175 O2    c    0.585873 *  0.166547 *  0.251359 *   0.87073    1.000000    
    176 O2    c    0.836301 *  0.412570 *  0.583508 *   0.87073    1.000000    
    177 O3    c    0.605531 *  0.408052 *  0.914834 *   1.33043    1.000000    
    178 O2    c    0.420728 *  0.829268 *  0.754017 *   0.87073    1.000000    
    179 O2    c    0.170772 *  0.581772 *  0.085868 *   0.87073    1.000000    
    180 O2    c    0.417385 *  0.579004 *  0.419817 *   0.87073    1.000000    
    181 F     c    0.456746 *  0.905873 *  0.252422 *   0.56000    1.000000    
    182 F     c    0.096582 *  0.542791 *  0.586003 *   0.56000    1.000000    
    183 F     c    0.473491 *  0.515275 *  0.926841 *   0.56000    1.000000    
    184 F     c    0.551148 *  0.088562 *  0.752128 *   0.56000    1.000000    
    185 F     c    0.915238 *  0.454652 *  0.086309 *   0.56000    1.000000    
    186 F     c    0.551066 *  0.447726 *  0.419502 *   0.56000    1.000000    
    187 O2    s    0.927602 *  0.998593 *  0.002908 *  -2.87073    1.000000    
    188 O2    s    0.005967 *  0.928263 *  0.333422 *  -2.87073    1.000000    
    189 O2    s    0.076515 *  0.067065 *  0.669122 *  -2.87073    1.000000    
    190 O3    s    0.073434 *  0.000361 *  0.505056 *  -3.33043    1.000000    
    191 O2    s    0.006818 *  0.068662 *  0.837006 *  -2.87073    1.000000    
    192 O2    s    0.928225 *  0.925798 *  0.170204 *  -2.87073    1.000000    
    193 O2    s    0.358700 *  0.589606 *  0.335741 *  -2.87073    1.000000    
    194 O2    s    0.410814 *  0.755993 *  0.670980 *  -2.87073    1.000000    
    195 O2    s    0.235357 *  0.642433 *  0.002696 *  -2.87073    1.000000    
    196 O2    s    0.665019 *  0.416681 *  0.830139 *  -2.87073    1.000000    
    197 O2    s    0.589749 *  0.235306 *  0.168289 *  -2.87073    1.000000    
    198 O2    s    0.768620 *  0.343450 *  0.500732 *  -2.87073    1.000000    
    199 O3    s    0.591591 *  0.349220 *  0.002914 *  -3.33043    1.000000    
    200 O2    s    0.765362 *  0.405265 *  0.665695 *  -2.87073    1.000000    
    201 O2    s    0.652571 *  0.235268 *  0.334406 *  -2.87073    1.000000    
    202 O2    s    0.416552 *  0.639575 *  0.504351 *  -2.87073    1.000000    
    203 O2    s    0.239262 *  0.587783 *  0.169378 *  -2.87073    1.000000    
    204 O2    s    0.363283 *  0.770912 *  0.838080 *  -2.87073    1.000000    
    205 O2    s    0.118437 *  0.213332 *  0.974692 *  -2.87073    1.000000    
    206 O2    s    0.787647 *  0.905667 *  0.304669 *  -2.87073    1.000000    
    207 O2    s    0.094438 *  0.871042 *  0.637051 *  -2.87073    1.000000    
    208 O3    s    0.869417 *  0.768781 *  0.475101 *  -3.33043    1.000000    
    209 O2    s    0.228468 *  0.099095 *  0.806347 *  -2.87073    1.000000    
    210 O2    s    0.910043 *  0.123538 *  0.140253 *  -2.87073    1.000000    
    211 O2    s    0.223095 *  0.125625 *  0.362934 *  -2.87073    1.000000    
    212 O2    s    0.904599 *  0.781169 *  0.032613 *  -2.87073    1.000000    
    213 O2    s    0.877884 *  0.084095 *  0.697616 *  -2.87073    1.000000    
    214 O2    s    0.789460 *  0.875812 *  0.867990 *  -2.87073    1.000000    
    215 O2    s    0.100589 *  0.215782 *  0.533204 *  -2.87073    1.000000    
    216 O2    s    0.125189 *  0.904904 *  0.199030 *  -2.87073    1.000000    
    217 O2    s    0.930839 *  0.853220 *  0.252163 *  -2.87073    1.000000    
    218 O2    s    0.146971 *  0.069099 *  0.586305 *  -2.87073    1.000000    
    219 O2    s    0.932461 *  0.070302 *  0.919518 *  -2.87073    1.000000    
    220 O2    s    0.067568 *  0.127017 *  0.752327 *  -2.87073    1.000000    
    221 O2    s    0.869580 *  0.933843 *  0.087007 *  -2.87073    1.000000    
    222 O3    s    0.072991 *  0.936720 *  0.415381 *  -3.33043    1.000000    
    223 O2    s    0.906941 *  0.201601 *  0.985464 *  -2.87073    1.000000    
    224 O2    s    0.800827 *  0.705578 *  0.319721 *  -2.87073    1.000000    
    225 O2    s    0.296716 *  0.081846 *  0.651645 *  -2.87073    1.000000    
    226 O3    s    0.100611 *  0.783912 *  0.482630 *  -3.33043    1.000000    
    227 O3    s    0.201799 *  0.287903 *  0.814861 *  -3.33043    1.000000    
    228 O2    s    0.708327 *  0.911436 *  0.150713 *  -2.87073    1.000000    
    229 O2    s    0.211471 *  0.912313 *  0.352877 *  -2.87073    1.000000    
    230 O2    s    0.708638 *  0.804672 *  0.022985 *  -2.87073    1.000000    
    231 O2    s    0.088939 *  0.286789 *  0.687854 *  -2.87073    1.000000    
    232 O2    s    0.804851 *  0.090229 *  0.851600 *  -2.87073    1.000000    
    233 O2    s    0.298062 *  0.195748 *  0.518317 *  -2.87073    1.000000    
    234 O2    s    0.913020 *  0.703721 *  0.185932 *  -2.87073    1.000000    
    235 O2    s    0.333945 *  0.658352 *  0.252271 *  -2.87073    1.000000    
    236 O2    s    0.346224 *  0.663743 *  0.587784 *  -2.87073    1.000000    
    237 O2    s    0.337138 *  0.666908 *  0.920532 *  -2.87073    1.000000    
    238 O2    s    0.678101 *  0.337861 *  0.748521 *  -2.87073    1.000000    
    239 O2    s    0.660948 *  0.329951 *  0.085885 *  -2.87073    1.000000    
    240 O2    s    0.674370 *  0.322730 *  0.417906 *  -2.87073    1.000000    
    241 O3    s    0.366528 *  0.321964 *  0.973532 *  -3.33043    1.000000    
    242 O2    s    0.664464 *  0.037738 *  0.303200 *  -2.87073    1.000000    
    243 O2    s    0.963204 *  0.616989 *  0.635479 *  -2.87073    1.000000    
    244 O2    s    0.621072 *  0.649488 *  0.471663 *  -2.87073    1.000000    
    245 O2    s    0.350439 *  0.966220 *  0.805048 *  -2.87073    1.000000    
    246 O2    s    0.042144 *  0.377473 *  0.138523 *  -2.87073    1.000000    
    247 O2    s    0.345716 *  0.379053 *  0.366664 *  -2.87073    1.000000    
    248 O2    s    0.038491 *  0.657670 *  0.033702 *  -2.87073    1.000000    
    249 O2    s    0.623110 *  0.952906 *  0.700653 *  -2.87073    1.000000    
    250 O2    s    0.675895 *  0.622763 *  0.869941 *  -2.87073    1.000000    
    251 O2    s    0.967066 *  0.335047 *  0.533981 *  -2.87073    1.000000    
    252 O2    s    0.380016 *  0.038252 *  0.199931 *  -2.87073    1.000000    
    253 O2    s    0.779696 *  0.308670 *  0.017018 *  -2.87073    1.000000    
    254 O2    s    0.694183 *  0.466866 *  0.349651 *  -2.87073    1.000000    
    255 O2    s    0.534878 *  0.214341 *  0.681000 *  -2.87073    1.000000    
    256 O2    s    0.228456 *  0.682499 *  0.517385 *  -2.87073    1.000000    
    257 O3    s    0.317771 *  0.539344 *  0.851153 *  -3.33043    1.000000    
    258 O2    s    0.470654 *  0.778367 *  0.182404 *  -2.87073    1.000000    
    259 O2    s    0.317102 *  0.779776 *  0.321722 *  -2.87073    1.000000    
    260 O2    s    0.469184 *  0.684465 *  0.990125 *  -2.87073    1.000000    
    261 O2    s    0.220771 *  0.525986 *  0.656856 *  -2.87073    1.000000    
    262 O2    s    0.698365 *  0.221147 *  0.819229 *  -2.87073    1.000000    
    263 O2    s    0.534544 *  0.300578 *  0.487303 *  -2.87073    1.000000    
    264 O2    s    0.781908 *  0.466372 *  0.155202 *  -2.87073    1.000000    
    265 O2    s    0.793085 *  0.530686 *  0.031848 *  -2.87073    1.000000    
    266 O2    s    0.473197 *  0.259056 *  0.364618 *  -2.87073    1.000000    
    267 O2    s    0.741798 *  0.199499 *  0.696566 *  -2.87073    1.000000    
    268 O2    s    0.215034 *  0.462914 *  0.535224 *  -2.87073    1.000000    
    269 O2    s    0.536904 *  0.728826 *  0.869724 *  -2.87073    1.000000    
    270 O2    s    0.262707 *  0.791482 *  0.199581 *  -2.87073    1.000000    
    271 O2    s    0.537688 *  0.790928 *  0.304425 *  -2.87073    1.000000    
    272 O2    s    0.267930 *  0.465912 *  0.971223 *  -2.87073    1.000000    
    273 O2    s    0.210360 *  0.736000 *  0.637356 *  -2.87073    1.000000    
    274 O2    s    0.478432 *  0.213007 *  0.803235 *  -2.87073    1.000000    
    275 O2    s    0.742021 *  0.521216 *  0.472493 *  -2.87073    1.000000    
    276 O2    s    0.794534 *  0.259098 *  0.138605 *  -2.87073    1.000000    
    277 O3    s    0.243836 *  0.318983 *  0.903823 *  -3.33043    1.000000    
    278 O2    s    0.671126 *  0.909464 *  0.233690 *  -2.87073    1.000000    
    279 O2    s    0.091109 *  0.752104 *  0.565826 *  -2.87073    1.000000    
    280 O2    s    0.763914 *  0.662834 *  0.402873 *  -2.87073    1.000000    
    281 O2    s    0.338264 *  0.089811 *  0.734640 *  -2.87073    1.000000    
    282 O2    s    0.913666 *  0.241376 *  0.068841 *  -2.87073    1.000000    
    283 O2    s    0.335916 *  0.236008 *  0.434996 *  -2.87073    1.000000    
    284 O2    s    0.909213 *  0.664497 *  0.102893 *  -2.87073    1.000000    
    285 O2    s    0.764279 *  0.086985 *  0.768294 *  -2.87073    1.000000    
    286 O2    s    0.672052 *  0.751829 *  0.939319 *  -2.87073    1.000000    
    287 O2    s    0.092998 *  0.326911 *  0.604824 *  -2.87073    1.000000    
    288 O2    s    0.246568 *  0.910879 *  0.269845 *  -2.87073    1.000000    
    289 O3    s    0.598658 *  0.572505 *  0.996704 *  -3.33043    1.000000    
    290 O2    s    0.446548 *  0.026027 *  0.322523 *  -2.87073    1.000000    
    291 O2    s    0.975367 *  0.410308 *  0.655914 *  -2.87073    1.000000    
    292 O2    s    0.415993 *  0.431278 *  0.489045 *  -2.87073    1.000000    
    293 O2    s    0.569160 *  0.974369 *  0.822705 *  -2.87073    1.000000    
    294 O2    s    0.029179 *  0.584054 *  0.156379 *  -2.87073    1.000000    
    295 O2    s    0.565099 *  0.585903 *  0.350136 *  -2.87073    1.000000    
    296 O2    s    0.026657 *  0.438560 *  0.015324 *  -2.87073    1.000000    
    297 O2    s    0.417280 *  0.967412 *  0.682676 *  -2.87073    1.000000    
    298 O3    s    0.462275 *  0.419866 *  0.846752 *  -3.33043    1.000000    
    299 O2    s    0.980154 *  0.551321 *  0.513195 *  -2.87073    1.000000    
    300 O2    s    0.584975 *  0.024447 *  0.180862 *  -2.87073    1.000000    
    301 O2    s    0.580514 *  0.155607 *  0.251419 *  -2.87073    1.000000    
    302 O2    s    0.847345 *  0.417848 *  0.583568 *  -2.87073    1.000000    
    303 O3    s    0.600455 *  0.415472 *  0.913192 *  -3.33043    1.000000    
    304 O2    s    0.426439 *  0.840517 *  0.753870 *  -2.87073    1.000000    
    305 O2    s    0.159295 *  0.576168 *  0.085908 *  -2.87073    1.000000    
    306 O2    s    0.423201 *  0.573644 *  0.419788 *  -2.87073    1.000000    
    307 F     s    0.456583 *  0.905532 *  0.252508 *  -1.56000    1.000000    
    308 F     s    0.096817 *  0.543082 *  0.586048 *  -1.56000    1.000000    
    309 F     s    0.476759 *  0.509246 *  0.928947 *  -1.56000    1.000000    
    310 F     s    0.551082 *  0.088518 *  0.752221 *  -1.56000    1.000000    
    311 F     s    0.915896 *  0.454895 *  0.086377 *  -1.56000    1.000000    
    312 F     s    0.551322 *  0.447527 *  0.419586 *  -1.56000    1.000000    
--------------------------------------------------------------------------------



********************************************************************************
*  General input information                                                   *
********************************************************************************

  Species output for all configurations : 

--------------------------------------------------------------------------------
  Species    Type    Atomic    Atomic    Charge       Radii (Angs)     Library
                     Number     Mass       (e)     Cova   Ionic  VDW   Symbol
--------------------------------------------------------------------------------
    Si       Core       14      28.09   4.000000   1.200  0.000  2.100          
    O1       Core        8      16.00   1.733957   0.730  0.000  1.360          
    O1       Shell       8       0.00  -3.733957   0.730  0.000  1.360          
    O2       Core        8      16.00   0.870733   0.730  0.000  1.360          
    O2       Shell       8       0.00  -2.870733   0.730  0.000  1.360          
    O3       Core        8      16.00   1.330431   0.730  0.000  1.360          
    O3       Shell       8       0.00  -3.330431   0.730  0.000  1.360          
    F        Core        9      19.00   0.560000   0.710  0.000  1.300          
    F        Shell       9       0.00  -1.560000   0.710  0.000  1.300          
    Ge       Core       32      72.61   4.000000   1.170  0.000  1.750          
--------------------------------------------------------------------------------


  Lattice summation method               =    Ewald          (3-D)
                                         =    Parry          (2-D)
                                         =    Saunders et al (1-D)
  Accuracy factor for lattice sums       =   12.000


  Time limit = Infinity

  Maximum range for interatomic potentials =        16.000000 Angstroms

  Taper potentials to zero over   1.0000 Angstroms using polynomial

  General interatomic potentials :

--------------------------------------------------------------------------------
Atom  Types   Potential         A         B         C         D     Cutoffs(Ang)
  1     2                                                            Min    Max 
--------------------------------------------------------------------------------
Si   c O1   s Buckingham    0.132E+04 0.318      10.1      0.00     0.000 16.000
Si   c O2   s Buckingham    0.132E+04 0.318      10.1      0.00     0.000 16.000
Si   c O3   s Buckingham    0.132E+04 0.318      10.1      0.00     0.000 16.000
Ge   c O1   s Buckingham    0.150E+04 0.326      16.8      0.00     0.000 16.000
Ge   c O2   s Buckingham    0.150E+04 0.326      16.8      0.00     0.000 16.000
Ge   c O3   s Buckingham    0.150E+04 0.326      16.8      0.00     0.000 16.000
O1   s O1   s Buckingham    0.228E+05 0.149      10.9      0.00     0.000 16.000
O1   s O2   s Buckingham    0.228E+05 0.149      10.9      0.00     0.000 16.000
O1   s O3   s Buckingham    0.228E+05 0.149      10.9      0.00     0.000 16.000
O2   s O2   s Buckingham    0.228E+05 0.149      10.9      0.00     0.000 16.000
O2   s O3   s Buckingham    0.228E+05 0.149      10.9      0.00     0.000 16.000
O3   s O3   s Buckingham    0.228E+05 0.149      10.9      0.00     0.000 16.000
Si   c F    s Buckingham     977.     0.282      0.00      0.00     0.000 16.000
Ge   c F    s Buckingham     681.     0.320      0.00      0.00     0.000 16.000
F    s F    s Buckingham     540.     0.262      0.00      0.00     0.000 16.000
O1   s F    s Buckingham    0.168E+04 0.268      0.00      0.00     0.000 16.000
O2   s F    s Buckingham    0.168E+04 0.268      0.00      0.00     0.000 16.000
O3   s F    s Buckingham    0.168E+04 0.268      0.00      0.00     0.000 16.000
O2   c O2   s Spring (c-s)   76.0      0.00      0.00      0.00     0.000  0.800
O3   c O3   s Spring (c-s)   128.      0.00      0.00      0.00     0.000  0.800
O1   c O1   s Spring (c-s)   180.      0.00      0.00      0.00     0.000  0.800
F    c F    s Spring (c-s)   33.5      0.00      0.00      0.00     0.000  0.800
--------------------------------------------------------------------------------

  General Three-body potentials :

  Harmonic form:

--------------------------------------------------------------------------------
Atom    Atom    Atom           Force Constants            Theta     Cutoffs  
  1       2       3     (eVrad**-2/eVrad**-3/eVrad**-4)   (deg)  1-2  1-3  2-3
--------------------------------------------------------------------------------
Si    c O1    s O1    s  1.261        0.0000    0.0000   109.470 0.00 0.00 0.00
                                                                 1.90 1.90 3.50
Si    c O1    s O2    s  1.261        0.0000    0.0000   109.470 0.00 0.00 0.00
                                                                 1.90 1.90 3.50
Si    c O2    s O2    s  1.261        0.0000    0.0000   109.470 0.00 0.00 0.00
                                                                 1.90 1.90 3.50
--------------------------------------------------------------------------------

********************************************************************************
*  Output for configuration   1                                                *
********************************************************************************


  Components of energy : 

--------------------------------------------------------------------------------
  Interatomic potentials     =        2061.67206331 eV
  Three-body potentials      =           0.43549960 eV
  Monopole - monopole (real) =       -6611.23284790 eV
  Monopole - monopole (recip)=       -3170.51366581 eV
  Monopole - monopole (total)=       -9781.74651371 eV
  Neutralising energy        =          -6.45834224 eV
--------------------------------------------------------------------------------
  Total lattice energy       =       -7726.09729304 eV
--------------------------------------------------------------------------------
  Total lattice energy       =         -745450.2846 kJ/(mole unit cells)
--------------------------------------------------------------------------------


  Number of variables =      939

  Maximum number of calculations  =          5000
  Maximum Hessian update interval =            10
  Maximum step size               =   0.100000000
  Maximum parameter tolerance     =   0.000010000
  Maximum function  tolerance     =   0.000010000
  Maximum gradient  tolerance     =   0.001000000
  Maximum gradient  component     =   0.010000000

  Symmetry not applied to optimisation

  Cell parameters to be optimised using strains

  Newton-Raphson optimiser to be used

  BFGS hessian update to be used

  Dumpfile to be written after every cycle

  Start of bulk optimisation :

  Cycle:      0 Energy:     -7726.097293  Gnorm:      0.000147  CPU:    2.041
  ** Hessian calculated **
  Cycle:      1 Energy:     -7726.099589  Gnorm:      0.000093  CPU:    6.608
  Cycle:      2 Energy:     -7726.100165  Gnorm:      0.000081  CPU:   10.799
  Cycle:      3 Energy:     -7726.100309  Gnorm:      0.000051  CPU:   14.990
  Cycle:      4 Energy:     -7726.100334  Gnorm:      0.000037  CPU:   17.827
  Cycle:      5 Energy:     -7726.100346  Gnorm:      0.000026  CPU:   20.664


  **** Optimisation achieved ****


  Final energy =   -7726.10035176 eV
  Final Gnorm  =       0.00001865

  Components of energy : 

--------------------------------------------------------------------------------
  Interatomic potentials     =        2061.65277884 eV
  Three-body potentials      =           0.43587296 eV
  Monopole - monopole (real) =       -6611.32733348 eV
  Monopole - monopole (recip)=       -3170.40355207 eV
  Monopole - monopole (total)=       -9781.73088555 eV
  Neutralising energy        =          -6.45811801 eV
--------------------------------------------------------------------------------
  Total lattice energy       =       -7726.10035176 eV
--------------------------------------------------------------------------------
  Total lattice energy       =         -745450.5797 kJ/(mole unit cells)
--------------------------------------------------------------------------------

  Final fractional coordinates of atoms :

--------------------------------------------------------------------------------
   No.  Atomic        x           y          z          Radius
        Label       (Frac)      (Frac)     (Frac)       (Angs) 
--------------------------------------------------------------------------------
     1  Si    c     0.699600    0.375700    0.033890    0.000000
     2  Si    c     0.626268    0.319790    0.367172    0.000000
     3  Si    c     0.678427    0.286231    0.698148    0.000000
     4  Si    c     0.302652    0.610751    0.536911    0.000000
     5  Si    c     0.384577    0.673279    0.869203    0.000000
     6  Si    c     0.328396    0.700862    0.201316    0.000000
     7  Si    c     0.385149    0.701672    0.302113    0.000000
     8  Si    c     0.325699    0.614272    0.971404    0.000000
     9  Si    c     0.296547    0.664512    0.637101    0.000000
    10  Si    c     0.631059    0.294089    0.799111    0.000000
    11  Si    c     0.677212    0.365721    0.468246    0.000000
    12  Si    c     0.706440    0.323299    0.135717    0.000000
    13  Ge    c     0.531634    0.424010    0.965482    0.000000
    14  Si    c     0.587455    0.110956    0.302082    0.000000
    15  Si    c     0.888474    0.460518    0.634035    0.000000
    16  Si    c     0.469428    0.570577    0.470248    0.000000
    17  Si    c     0.426066    0.885728    0.803525    0.000000
    18  Si    c     0.117514    0.528241    0.136583    0.000000
    19  Si    c     0.422367    0.528356    0.368135    0.000000
    20  Si    c     0.112651    0.577175    0.035172    0.000000
    21  Si    c     0.469785    0.874460    0.702077    0.000000
    22  Si    c     0.602530    0.463700    0.866496    0.000000
    23  Si    c     0.889346    0.406750    0.532761    0.000000
    24  Si    c     0.533586    0.112027    0.200370    0.000000
    25  Ge    c     0.310834    0.389367    0.853906    0.000000
    26  Si    c     0.605598    0.902523    0.186261    0.000000
    27  Si    c     0.100445    0.685698    0.518941    0.000000
    28  Si    c     0.704301    0.599426    0.354876    0.000000
    29  Si    c     0.399841    0.085355    0.686941    0.000000
    30  Si    c     0.904423    0.299105    0.021146    0.000000
    31  Si    c     0.399542    0.289767    0.482378    0.000000
    32  Si    c     0.908157    0.599578    0.150168    0.000000
    33  Si    c     0.706177    0.090793    0.815339    0.000000
    34  Si    c     0.609140    0.696906    0.989084    0.000000
    35  Si    c     0.095256    0.386478    0.651599    0.000000
    36  Si    c     0.308397    0.903249    0.316787    0.000000
    37  Si    c     0.251121    0.325037    0.956988    0.000000
    38  Si    c     0.664545    0.909225    0.286905    0.000000
    39  Si    c     0.088409    0.738149    0.619033    0.000000
    40  Si    c     0.747611    0.646347    0.456157    0.000000
    41  Si    c     0.348546    0.087246    0.787651    0.000000
    42  Si    c     0.916583    0.251386    0.121826    0.000000
    43  Si    c     0.345397    0.248658    0.381194    0.000000
    44  Si    c     0.911885    0.655638    0.049307    0.000000
    45  Si    c     0.748895    0.075424    0.714599    0.000000
    46  Si    c     0.670448    0.741516    0.886029    0.000000
    47  Si    c     0.092317    0.331966    0.550972    0.000000
    48  Si    c     0.256279    0.910560    0.216131    0.000000
    49  Si    c     0.968329    0.117901    0.970431    0.000000
    50  Si    c     0.882689    0.846353    0.302374    0.000000
    51  Si    c     0.151865    0.018034    0.635877    0.000000
    52  Ge    c     0.030168    0.868660    0.468798    0.000000
    53  Si    c     0.123637    0.142311    0.802466    0.000000
    54  Si    c     0.855007    0.972000    0.137015    0.000000
    55  Si    c     0.127832    0.972121    0.366127    0.000000
    56  Si    c     0.854024    0.878899    0.036684    0.000000
    57  Si    c     0.027757    0.136218    0.701410    0.000000
    58  Si    c     0.884509    0.023261    0.868844    0.000000
    59  Si    c     0.154020    0.114580    0.534941    0.000000
    60  Si    c     0.975139    0.845926    0.201407    0.000000
    61  O2    c     0.930369    0.996199    0.002414    0.000000
    62  O2    c     0.006656    0.929862    0.333130    0.000000
    63  O2    c     0.072051    0.058542    0.668990    0.000000
    64  O3    c     0.067094    0.994014    0.504704    0.000000
    65  O2    c     0.007116    0.060260    0.837177    0.000000
    66  O2    c     0.933280    0.929020    0.170209    0.000000
    67  O2    c     0.347340    0.579195    0.335387    0.000000
    68  O2    c     0.417285    0.747188    0.670865    0.000000
    69  O2    c     0.238401    0.651689    0.002374    0.000000
    70  O2    c     0.675869    0.421710    0.829375    0.000000
    71  O2    c     0.582921    0.238122    0.168201    0.000000
    72  O2    c     0.764439    0.327697    0.500467    0.000000
    73  O3    c     0.581569    0.337764    0.001962    0.000000
    74  O2    c     0.760387    0.408782    0.665193    0.000000
    75  O2    c     0.664893    0.236487    0.334071    0.000000
    76  O2    c     0.424406    0.647422    0.504075    0.000000
    77  O2    c     0.243815    0.578196    0.168939    0.000000
    78  O2    c     0.351484    0.764292    0.837866    0.000000
    79  O2    c     0.119919    0.208582    0.977421    0.000000
    80  O2    c     0.791195    0.909447    0.307121    0.000000
    81  O2    c     0.087045    0.863501    0.639138    0.000000
    82  O3    c     0.868096    0.769330    0.477670    0.000000
    83  O2    c     0.225059    0.089881    0.808865    0.000000
    84  O2    c     0.916854    0.125296    0.142631    0.000000
    85  O2    c     0.220083    0.125764    0.359799    0.000000
    86  O2    c     0.911328    0.783016    0.029751    0.000000
    87  O2    c     0.874045    0.073181    0.694511    0.000000
    88  O2    c     0.792052    0.869407    0.865405    0.000000
    89  O2    c     0.094074    0.208681    0.530166    0.000000
    90  O2    c     0.129202    0.910064    0.196254    0.000000
    91  O2    c     0.932370    0.853020    0.251924    0.000000
    92  O2    c     0.144785    0.065249    0.586029    0.000000
    93  O2    c     0.932877    0.067259    0.919402    0.000000
    94  O2    c     0.064085    0.118219    0.752263    0.000000
    95  O2    c     0.873800    0.933964    0.086907    0.000000
    96  O3    c     0.070977    0.935543    0.415883    0.000000
    97  O2    c     0.897518    0.198686    0.982558    0.000000
    98  O2    c     0.802982    0.696826    0.317029    0.000000
    99  O2    c     0.302194    0.084989    0.648691    0.000000
   100  O3    c     0.107340    0.782043    0.479369    0.000000
   101  O3    c     0.200770    0.291997    0.812554    0.000000
   102  O2    c     0.702710    0.902078    0.147844    0.000000
   103  O2    c     0.210507    0.901615    0.355400    0.000000
   104  O2    c     0.701619    0.805098    0.025427    0.000000
   105  O2    c     0.095630    0.288595    0.690295    0.000000
   106  O2    c     0.805829    0.094426    0.853558    0.000000
   107  O2    c     0.303903    0.189644    0.520413    0.000000
   108  O2    c     0.906293    0.696094    0.188259    0.000000
   109  O2    c     0.328547    0.644144    0.251935    0.000000
   110  O2    c     0.357630    0.665130    0.587593    0.000000
   111  O2    c     0.331553    0.668489    0.920188    0.000000
   112  O2    c     0.683198    0.345402    0.748100    0.000000
   113  O2    c     0.650461    0.324837    0.085736    0.000000
   114  O2    c     0.680395    0.313505    0.417589    0.000000
   115  O3    c     0.366250    0.309121    0.976023    0.000000
   116  O2    c     0.674848    0.041479    0.305295    0.000000
   117  O2    c     0.956118    0.616252    0.637485    0.000000
   118  O2    c     0.624442    0.655996    0.473564    0.000000
   119  O2    c     0.339700    0.955773    0.807087    0.000000
   120  O2    c     0.049033    0.372253    0.140465    0.000000
   121  O2    c     0.336157    0.372906    0.364094    0.000000
   122  O2    c     0.045654    0.666736    0.031199    0.000000
   123  O2    c     0.625692    0.941897    0.698173    0.000000
   124  O2    c     0.684488    0.621681    0.867930    0.000000
   125  O2    c     0.960241    0.320886    0.531530    0.000000
   126  O2    c     0.377390    0.042941    0.197512    0.000000
   127  O2    c     0.772138    0.300900    0.014122    0.000000
   128  O2    c     0.702209    0.464668    0.346271    0.000000
   129  O2    c     0.533407    0.217137    0.677537    0.000000
   130  O2    c     0.235470    0.686509    0.514139    0.000000
   131  O3    c     0.309731    0.532964    0.848161    0.000000
   132  O2    c     0.471714    0.769320    0.179081    0.000000
   133  O2    c     0.309820    0.769695    0.324577    0.000000
   134  O2    c     0.469637    0.689192    0.992345    0.000000
   135  O2    c     0.227075    0.521276    0.659756    0.000000
   136  O2    c     0.704857    0.224184    0.821974    0.000000
   137  O2    c     0.533711    0.289046    0.490126    0.000000
   138  O2    c     0.775827    0.465570    0.158374    0.000000
   139  O2    c     0.788154    0.532080    0.029116    0.000000
   140  O2    c     0.470930    0.248321    0.361647    0.000000
   141  O2    c     0.748581    0.200130    0.693527    0.000000
   142  O2    c     0.220080    0.455946    0.532419    0.000000
   143  O2    c     0.538493    0.730262    0.867349    0.000000
   144  O2    c     0.255381    0.784368    0.196771    0.000000
   145  O2    c     0.540845    0.782583    0.306769    0.000000
   146  O2    c     0.261529    0.460194    0.972934    0.000000
   147  O2    c     0.215129    0.740059    0.639471    0.000000
   148  O2    c     0.475171    0.214622    0.805396    0.000000
   149  O2    c     0.749967    0.520362    0.474932    0.000000
   150  O2    c     0.789561    0.249812    0.140879    0.000000
   151  O3    c     0.234734    0.307607    0.902534    0.000000
   152  O2    c     0.681220    0.907152    0.232599    0.000000
   153  O2    c     0.089957    0.757078    0.564433    0.000000
   154  O2    c     0.773971    0.669061    0.401897    0.000000
   155  O2    c     0.327858    0.085666    0.733381    0.000000
   156  O2    c     0.913891    0.230533    0.067593    0.000000
   157  O2    c     0.326508    0.223044    0.435451    0.000000
   158  O2    c     0.910156    0.673140    0.103614    0.000000
   159  O2    c     0.773145    0.082959    0.768771    0.000000
   160  O2    c     0.679648    0.755577    0.940278    0.000000
   161  O2    c     0.092428    0.313057    0.605392    0.000000
   162  O2    c     0.237748    0.908806    0.270506    0.000000
   163  O3    c     0.601449    0.564653    0.000246    0.000000
   164  O2    c     0.447220    0.027967    0.325764    0.000000
   165  O2    c     0.969693    0.401502    0.659026    0.000000
   166  O2    c     0.410875    0.427539    0.492057    0.000000
   167  O2    c     0.568587    0.965194    0.825746    0.000000
   168  O2    c     0.035059    0.587555    0.159562    0.000000
   169  O2    c     0.565441    0.587918    0.346657    0.000000
   170  O2    c     0.031327    0.436962    0.011563    0.000000
   171  O2    c     0.411778    0.958411    0.679016    0.000000
   172  O3    c     0.461416    0.413141    0.843581    0.000000
   173  O2    c     0.975461    0.547213    0.509503    0.000000
   174  O2    c     0.590133    0.027360    0.177352    0.000000
   175  O2    c     0.586390    0.164069    0.251238    0.000000
   176  O2    c     0.836013    0.408499    0.583274    0.000000
   177  O3    c     0.604462    0.404513    0.914698    0.000000
   178  O2    c     0.420080    0.825240    0.753638    0.000000
   179  O2    c     0.171040    0.579965    0.085510    0.000000
   180  O2    c     0.417519    0.575591    0.419475    0.000000
   181  F     c     0.457326    0.903288    0.252192    0.000000
   182  F     c     0.096274    0.538544    0.585743    0.000000
   183  F     c     0.472714    0.512153    0.926603    0.000000
   184  F     c     0.550323    0.084467    0.751774    0.000000
   185  F     c     0.915705    0.453958    0.086099    0.000000
   186  F     c     0.551332    0.444435    0.419192    0.000000
   187  O2    s     0.925959    0.996674    0.002675    0.000000
   188  O2    s     0.006144    0.925141    0.333320    0.000000
   189  O2    s     0.075966    0.062751    0.668947    0.000000
   190  O3    s     0.073425    0.996347    0.504896    0.000000
   191  O2    s     0.006233    0.065042    0.836905    0.000000
   192  O2    s     0.929158    0.924496    0.169978    0.000000
   193  O2    s     0.358998    0.586456    0.335370    0.000000
   194  O2    s     0.410391    0.751912    0.670640    0.000000
   195  O2    s     0.235169    0.640261    0.002327    0.000000
   196  O2    s     0.664020    0.412693    0.829908    0.000000
   197  O2    s     0.590347    0.233699    0.168232    0.000000
   198  O2    s     0.768407    0.339670    0.500506    0.000000
   199  O3    s     0.591181    0.347922    0.002963    0.000000
   200  O2    s     0.764962    0.401309    0.665445    0.000000
   201  O2    s     0.652996    0.232260    0.334228    0.000000
   202  O2    s     0.416343    0.635713    0.504034    0.000000
   203  O2    s     0.239727    0.585771    0.169005    0.000000
   204  O2    s     0.362664    0.767062    0.837683    0.000000
   205  O2    s     0.117070    0.210981    0.974489    0.000000
   206  O2    s     0.787834    0.902683    0.304549    0.000000
   207  O2    s     0.094052    0.866956    0.636740    0.000000
   208  O3    s     0.869391    0.765185    0.474793    0.000000
   209  O2    s     0.227568    0.094986    0.806036    0.000000
   210  O2    s     0.910202    0.121862    0.139917    0.000000
   211  O2    s     0.223423    0.122436    0.362650    0.000000
   212  O2    s     0.905283    0.780214    0.032454    0.000000
   213  O2    s     0.877312    0.080052    0.697285    0.000000
   214  O2    s     0.789069    0.872280    0.867918    0.000000
   215  O2    s     0.100360    0.211819    0.532896    0.000000
   216  O2    s     0.126021    0.903301    0.198840    0.000000
   217  O2    s     0.931541    0.851451    0.251961    0.000000
   218  O2    s     0.146656    0.065310    0.586087    0.000000
   219  O2    s     0.931274    0.067837    0.919292    0.000000
   220  O2    s     0.066609    0.122875    0.752135    0.000000
   221  O2    s     0.869422    0.931953    0.086807    0.000000
   222  O3    s     0.073469    0.933549    0.415213    0.000000
   223  O2    s     0.905814    0.200024    0.985099    0.000000
   224  O2    s     0.801225    0.702643    0.319403    0.000000
   225  O2    s     0.296249    0.077798    0.651341    0.000000
   226  O3    s     0.100349    0.779845    0.482319    0.000000
   227  O3    s     0.201125    0.283982    0.814600    0.000000
   228  O2    s     0.708859    0.909474    0.150605    0.000000
   229  O2    s     0.211735    0.909132    0.352648    0.000000
   230  O2    s     0.708061    0.801772    0.022891    0.000000
   231  O2    s     0.088521    0.282576    0.687561    0.000000
   232  O2    s     0.803937    0.086401    0.851216    0.000000
   233  O2    s     0.297922    0.191975    0.518034    0.000000
   234  O2    s     0.913903    0.702323    0.185764    0.000000
   235  O2    s     0.334302    0.655744    0.251926    0.000000
   236  O2    s     0.345883    0.659564    0.587483    0.000000
   237  O2    s     0.336458    0.663468    0.920157    0.000000
   238  O2    s     0.677266    0.333902    0.748233    0.000000
   239  O2    s     0.661245    0.329714    0.085915    0.000000
   240  O2    s     0.674571    0.319484    0.417668    0.000000
   241  O3    s     0.365265    0.318644    0.973236    0.000000
   242  O2    s     0.664767    0.034794    0.303032    0.000000
   243  O2    s     0.962893    0.612896    0.635209    0.000000
   244  O2    s     0.621029    0.645901    0.471351    0.000000
   245  O2    s     0.349631    0.962207    0.804671    0.000000
   246  O2    s     0.042309    0.375678    0.138126    0.000000
   247  O2    s     0.346030    0.375861    0.366327    0.000000
   248  O2    s     0.038899    0.656414    0.033463    0.000000
   249  O2    s     0.622574    0.948895    0.700294    0.000000
   250  O2    s     0.675099    0.619003    0.869714    0.000000
   251  O2    s     0.966772    0.330999    0.533721    0.000000
   252  O2    s     0.380749    0.036211    0.199755    0.000000
   253  O2    s     0.779544    0.308190    0.016917    0.000000
   254  O2    s     0.694588    0.463821    0.349364    0.000000
   255  O2    s     0.534338    0.210393    0.680693    0.000000
   256  O2    s     0.228167    0.678442    0.517100    0.000000
   257  O3    s     0.317440    0.535825    0.850764    0.000000
   258  O2    s     0.471111    0.776292    0.182138    0.000000
   259  O2    s     0.317396    0.776765    0.321423    0.000000
   260  O2    s     0.468828    0.682133    0.989790    0.000000
   261  O2    s     0.220399    0.521817    0.656571    0.000000
   262  O2    s     0.697379    0.217154    0.818880    0.000000
   263  O2    s     0.534472    0.296991    0.487034    0.000000
   264  O2    s     0.782649    0.465094    0.155167    0.000000
   265  O2    s     0.793264    0.530229    0.031801    0.000000
   266  O2    s     0.473541    0.255953    0.364329    0.000000
   267  O2    s     0.741176    0.195511    0.696260    0.000000
   268  O2    s     0.214777    0.458870    0.534919    0.000000
   269  O2    s     0.536484    0.725381    0.869556    0.000000
   270  O2    s     0.263253    0.789404    0.199327    0.000000
   271  O2    s     0.537932    0.787903    0.304159    0.000000
   272  O2    s     0.267630    0.463261    0.971148    0.000000
   273  O2    s     0.209973    0.731843    0.637045    0.000000
   274  O2    s     0.477514    0.209019    0.802894    0.000000
   275  O2    s     0.742006    0.517682    0.472246    0.000000
   276  O2    s     0.794776    0.257717    0.138308    0.000000
   277  O3    s     0.242670    0.316034    0.903626    0.000000
   278  O2    s     0.671534    0.906894    0.233519    0.000000
   279  O2    s     0.090781    0.747997    0.565532    0.000000
   280  O2    s     0.764118    0.659527    0.402570    0.000000
   281  O2    s     0.337564    0.085797    0.734303    0.000000
   282  O2    s     0.913226    0.239848    0.068494    0.000000
   283  O2    s     0.336062    0.232614    0.434691    0.000000
   284  O2    s     0.910140    0.663544    0.102780    0.000000
   285  O2    s     0.763528    0.082996    0.767931    0.000000
   286  O2    s     0.671703    0.748241    0.939167    0.000000
   287  O2    s     0.092703    0.322799    0.604538    0.000000
   288  O2    s     0.247143    0.908421    0.269627    0.000000
   289  O3    s     0.597288    0.569430    0.996641    0.000000
   290  O2    s     0.446903    0.023037    0.322342    0.000000
   291  O2    s     0.974984    0.406147    0.655656    0.000000
   292  O2    s     0.415925    0.427623    0.488725    0.000000
   293  O2    s     0.568369    0.970379    0.822313    0.000000
   294  O2    s     0.029897    0.582495    0.156156    0.000000
   295  O2    s     0.565426    0.582758    0.349805    0.000000
   296  O2    s     0.026289    0.436969    0.015006    0.000000
   297  O2    s     0.416791    0.963410    0.682320    0.000000
   298  O3    s     0.461331    0.415840    0.846600    0.000000
   299  O2    s     0.979925    0.547288    0.512939    0.000000
   300  O2    s     0.585720    0.022546    0.180723    0.000000
   301  O2    s     0.581031    0.153140    0.251282    0.000000
   302  O2    s     0.847056    0.413783    0.583334    0.000000
   303  O3    s     0.599413    0.411945    0.913020    0.000000
   304  O2    s     0.425797    0.836500    0.753485    0.000000
   305  O2    s     0.159548    0.574368    0.085562    0.000000
   306  O2    s     0.423332    0.570232    0.419444    0.000000
   307  F     s     0.457177    0.902943    0.252276    0.000000
   308  F     s     0.096510    0.538822    0.585791    0.000000
   309  F     s     0.476022    0.506034    0.928755    0.000000
   310  F     s     0.550244    0.084409    0.751866    0.000000
   311  F     s     0.916391    0.454268    0.086166    0.000000
   312  F     s     0.551601    0.444243    0.419275    0.000000
--------------------------------------------------------------------------------

  Final Cartesian lattice vectors (Angstroms) :

       11.948946    0.001163    0.001449
       -5.906253   10.398410    0.001530
       -0.145713    0.173962   29.455586


  Final cell parameters and derivatives :

--------------------------------------------------------------------------------
       a           11.948946 Angstrom     dE/de1(xx)     0.002796 eV/strain
       b           11.958711 Angstrom     dE/de2(yy)     0.002423 eV/strain
       c           29.456460 Angstrom     dE/de3(zz)     0.003087 eV/strain
       alpha       89.558459 Degrees      dE/de4(yz)    -0.000237 eV/strain
       beta        90.276446 Degrees      dE/de5(xz)     0.000364 eV/strain
       gamma      119.590818 Degrees      dE/de6(xy)    -0.000233 eV/strain
--------------------------------------------------------------------------------

  Primitive cell volume =          3660.057465 Angs**3

  Density of cell =      1.748085 g/cm**3

  Non-primitive cell volume =          3660.057465 Angs**3


  Final internal derivatives :

--------------------------------------------------------------------------------
   No.  Atomic          a             b             c           Radius
        Label          (eV)          (eV)          (eV)        (eV/Angs)
--------------------------------------------------------------------------------
      1 Si    c       0.000000      0.000000      0.000000      0.000000
      2 Si    c      -0.000095      0.000101      0.000074      0.000000
      3 Si    c      -0.000058      0.000198      0.000226      0.000000
      4 Si    c      -0.000163      0.000314      0.000101      0.000000
      5 Si    c       0.000065      0.000148     -0.000176      0.000000
      6 Si    c      -0.000259      0.000185      0.000068      0.000000
      7 Si    c      -0.000235      0.000253      0.000366      0.000000
      8 Si    c       0.000289     -0.000088      0.000229      0.000000
      9 Si    c      -0.000156      0.000343      0.000166      0.000000
     10 Si    c      -0.000003      0.000390     -0.000024      0.000000
     11 Si    c      -0.000143      0.000256     -0.000225      0.000000
     12 Si    c       0.000258     -0.000070      0.001856      0.000000
     13 Ge    c      -0.002796      0.003366     -0.004821      0.000000
     14 Si    c      -0.000103      0.000020      0.000373      0.000000
     15 Si    c      -0.000123      0.000332     -0.000055      0.000000
     16 Si    c      -0.000140      0.000179      0.000061      0.000000
     17 Si    c      -0.000010      0.000280      0.000024      0.000000
     18 Si    c      -0.000209      0.000025     -0.000029      0.000000
     19 Si    c      -0.000229      0.000230      0.000119      0.000000
     20 Si    c       0.000460     -0.000063      0.000305      0.000000
     21 Si    c      -0.000127      0.000301      0.000041      0.000000
     22 Si    c      -0.000058      0.000694     -0.001465      0.000000
     23 Si    c      -0.000094      0.000301     -0.000214      0.000000
     24 Si    c      -0.000174     -0.000245     -0.000146      0.000000
     25 Ge    c       0.000231      0.000539     -0.001640      0.000000
     26 Si    c      -0.000063      0.000122     -0.000386      0.000000
     27 Si    c      -0.000153      0.000290     -0.000128      0.000000
     28 Si    c      -0.000217      0.000179     -0.000057      0.000000
     29 Si    c      -0.000082      0.000278     -0.000115      0.000000
     30 Si    c       0.001014     -0.000935     -0.000884      0.000000
     31 Si    c      -0.000164      0.000273      0.000207      0.000000
     32 Si    c      -0.000090      0.000076      0.000581      0.000000
     33 Si    c      -0.000064      0.000316     -0.000004      0.000000
     34 Si    c       0.000302      0.000491      0.000529      0.000000
     35 Si    c      -0.000142      0.000304      0.000157      0.000000
     36 Si    c      -0.000122      0.000052      0.000358      0.000000
     37 Si    c       0.000529      0.000177     -0.000576      0.000000
     38 Si    c      -0.000209      0.000196      0.000066      0.000000
     39 Si    c      -0.000182      0.000346      0.000030      0.000000
     40 Si    c      -0.000142      0.000229      0.000330      0.000000
     41 Si    c      -0.000049      0.000341     -0.000148      0.000000
     42 Si    c       0.000104     -0.000120      0.001306      0.000000
     43 Si    c      -0.000258      0.000216      0.000248      0.000000
     44 Si    c      -0.000691      0.001026      0.000726      0.000000
     45 Si    c      -0.000145      0.000295     -0.000035      0.000000
     46 Si    c      -0.000142      0.000295      0.000308      0.000000
     47 Si    c      -0.000081      0.000247     -0.000010      0.000000
     48 Si    c      -0.000072     -0.000034     -0.000216      0.000000
     49 Si    c      -0.000137      0.000198      0.001583      0.000000
     50 Si    c      -0.000559      0.000282      0.001733      0.000000
     51 Si    c      -0.000058      0.000281     -0.000133      0.000000
     52 Ge    c      -0.000127      0.000045      0.000566      0.000000
     53 Si    c      -0.000003      0.000556      0.000133      0.000000
     54 Si    c      -0.000347      0.000067      0.000272      0.000000
     55 Si    c      -0.000121      0.000130      0.000031      0.000000
     56 Si    c      -0.000493      0.000609      0.002101      0.000000
     57 Si    c      -0.000142      0.000434     -0.000306      0.000000
     58 Si    c      -0.000213     -0.000066     -0.003932      0.000000
     59 Si    c      -0.000092      0.000323      0.000184      0.000000
     60 Si    c      -0.000244     -0.000006     -0.000444      0.000000
     61 O2    c       0.000917      0.000942     -0.003121      0.000000
     62 O2    c      -0.000172      0.000169      0.000116      0.000000
     63 O2    c      -0.000180      0.000338      0.000134      0.000000
     64 O3    c      -0.000266      0.000294      0.000406      0.000000
     65 O2    c      -0.000090      0.000339      0.000590      0.000000
     66 O2    c       0.000069     -0.000188      0.000471      0.000000
     67 O2    c      -0.000209      0.000164      0.000241      0.000000
     68 O2    c      -0.000150      0.000333      0.000238      0.000000
     69 O2    c      -0.000163      0.000369      0.000291      0.000000
     70 O2    c       0.000055      0.000351     -0.000114      0.000000
     71 O2    c      -0.000521      0.000181      0.000334      0.000000
     72 O2    c      -0.000132      0.000236     -0.000328      0.000000
     73 O3    c      -0.001051     -0.002448     -0.002287      0.000000
     74 O2    c      -0.000177      0.000387     -0.000040      0.000000
     75 O2    c      -0.000180      0.000178      0.000109      0.000000
     76 O2    c      -0.000164      0.000330      0.000096      0.000000
     77 O2    c      -0.000219      0.000024     -0.000123      0.000000
     78 O2    c      -0.000112      0.000443     -0.000193      0.000000
     79 O2    c       0.000033     -0.000059      0.000600      0.000000
     80 O2    c      -0.000164      0.000139     -0.000050      0.000000
     81 O2    c      -0.000125      0.000236     -0.000202      0.000000
     82 O3    c      -0.000246      0.000233     -0.000052      0.000000
     83 O2    c      -0.000013      0.000368      0.000096      0.000000
     84 O2    c      -0.000231      0.000342      0.000125      0.000000
     85 O2    c      -0.000194      0.000249      0.000309      0.000000
     86 O2    c       0.001324     -0.001578     -0.000960      0.000000
     87 O2    c      -0.000184      0.000299      0.000053      0.000000
     88 O2    c      -0.000059      0.000251     -0.000244      0.000000
     89 O2    c      -0.000160      0.000334      0.000041      0.000000
     90 O2    c      -0.000382      0.000151     -0.000130      0.000000
     91 O2    c       0.000245     -0.000053     -0.002756      0.000000
     92 O2    c      -0.000096      0.000353      0.000104      0.000000
     93 O2    c       0.000512      0.000402      0.004465      0.000000
     94 O2    c       0.000027      0.000369      0.000519      0.000000
     95 O2    c       0.000162     -0.000044     -0.001124      0.000000
     96 O3    c      -0.000134      0.000480     -0.001218      0.000000
     97 O2    c      -0.000183      0.000387      0.000051      0.000000
     98 O2    c      -0.000246      0.000037      0.000057      0.000000
     99 O2    c      -0.000060      0.000266     -0.000005      0.000000
    100 O3    c      -0.000027      0.000129     -0.000059      0.000000
    101 O3    c      -0.000057      0.000378      0.000014      0.000000
    102 O2    c      -0.000320      0.000109     -0.000025      0.000000
    103 O2    c      -0.000249      0.000173      0.000269      0.000000
    104 O2    c      -0.001014      0.000201     -0.000935      0.000000
    105 O2    c      -0.000142      0.000375      0.000069      0.000000
    106 O2    c      -0.000321      0.000652      0.000169      0.000000
    107 O2    c      -0.000151      0.000233      0.000164      0.000000
    108 O2    c      -0.000248      0.000041      0.000178      0.000000
    109 O2    c      -0.000172      0.000047      0.000141      0.000000
    110 O2    c      -0.000155      0.000347      0.000034      0.000000
    111 O2    c      -0.000009      0.000649     -0.001571      0.000000
    112 O2    c      -0.000050      0.000323     -0.000224      0.000000
    113 O2    c      -0.000617      0.000097     -0.002527      0.000000
    114 O2    c      -0.000150      0.000202      0.000390      0.000000
    115 O3    c       0.000282      0.000165      0.000290      0.000000
    116 O2    c      -0.000211      0.000163     -0.000111      0.000000
    117 O2    c      -0.000192      0.000350     -0.000100      0.000000
    118 O2    c      -0.000140      0.000244      0.000121      0.000000
    119 O2    c      -0.000010      0.000272     -0.000174      0.000000
    120 O2    c      -0.000104     -0.000062      0.000191      0.000000
    121 O2    c      -0.000214      0.000219      0.000101      0.000000
    122 O2    c       0.000126      0.000304     -0.000292      0.000000
    123 O2    c      -0.000118      0.000319      0.000217      0.000000
    124 O2    c       0.000094      0.000202     -0.000075      0.000000
    125 O2    c      -0.000151      0.000275     -0.000076      0.000000
    126 O2    c      -0.000214      0.000117     -0.000004      0.000000
    127 O2    c      -0.001210      0.000256     -0.001140      0.000000
    128 O2    c      -0.000199      0.000212     -0.000157      0.000000
    129 O2    c      -0.000105      0.000259     -0.000037      0.000000
    130 O2    c      -0.000161      0.000301      0.000066      0.000000
    131 O3    c      -0.000325      0.000724      0.000145      0.000000
    132 O2    c      -0.000229     -0.000068     -0.000137      0.000000
    133 O2    c      -0.000141      0.000080     -0.000013      0.000000
    134 O2    c      -0.000727      0.000562     -0.000092      0.000000
    135 O2    c      -0.000142      0.000332      0.000205      0.000000
    136 O2    c      -0.000009      0.000351      0.000182      0.000000
    137 O2    c      -0.000153      0.000220     -0.000026      0.000000
    138 O2    c      -0.000188      0.000171      0.000393      0.000000
    139 O2    c      -0.001430      0.000346     -0.000932      0.000000
    140 O2    c      -0.000238      0.000164      0.000167      0.000000
    141 O2    c      -0.000144      0.000346      0.000154      0.000000
    142 O2    c      -0.000109      0.000265     -0.000072      0.000000
    143 O2    c       0.000302      0.000184     -0.000221      0.000000
    144 O2    c      -0.000260      0.000140     -0.000084      0.000000
    145 O2    c      -0.000204      0.000108      0.000098      0.000000
    146 O2    c      -0.000389      0.000935      0.000716      0.000000
    147 O2    c      -0.000096      0.000292      0.000194      0.000000
    148 O2    c      -0.000102      0.000372     -0.000064      0.000000
    149 O2    c      -0.000139      0.000227      0.000090      0.000000
    150 O2    c       0.000029     -0.000224      0.000510      0.000000
    151 O3    c      -0.000276     -0.000311      0.003426      0.000000
    152 O2    c      -0.000071      0.000016      0.000455      0.000000
    153 O2    c      -0.000171      0.000328      0.000082      0.000000
    154 O2    c      -0.000178      0.000247     -0.000304      0.000000
    155 O2    c      -0.000118      0.000355     -0.000027      0.000000
    156 O2    c       0.000163     -0.000223     -0.000863      0.000000
    157 O2    c      -0.000207      0.000185     -0.000308      0.000000
    158 O2    c      -0.000273      0.000259     -0.000311      0.000000
    159 O2    c      -0.000059      0.000307      0.000138      0.000000
    160 O2    c       0.000350      0.000346     -0.002179      0.000000
    161 O2    c      -0.000142      0.000298      0.000189      0.000000
    162 O2    c      -0.000347      0.000187     -0.000027      0.000000
    163 O3    c       0.001709     -0.000751      0.002272      0.000000
    164 O2    c      -0.000173      0.000169      0.000075      0.000000
    165 O2    c      -0.000098      0.000277     -0.000020      0.000000
    166 O2    c      -0.000191      0.000280      0.000193      0.000000
    167 O2    c      -0.000049      0.000325     -0.000093      0.000000
    168 O2    c      -0.000356      0.000179      0.000482      0.000000
    169 O2    c      -0.000233      0.000230      0.000215      0.000000
    170 O2    c       0.000260     -0.000031     -0.000375      0.000000
    171 O2    c      -0.000053      0.000207      0.000103      0.000000
    172 O3    c       0.000161      0.000436     -0.000024      0.000000
    173 O2    c      -0.000155      0.000300     -0.000259      0.000000
    174 O2    c      -0.000262      0.000252     -0.000075      0.000000
    175 O2    c      -0.000204      0.000251      0.000250      0.000000
    176 O2    c      -0.000209      0.000356      0.000534      0.000000
    177 O3    c       0.000741     -0.000495     -0.000290      0.000000
    178 O2    c      -0.000096      0.000294     -0.000191      0.000000
    179 O2    c      -0.000032      0.000048      0.000298      0.000000
    180 O2    c      -0.000222      0.000245     -0.000171      0.000000
    181 F     c      -0.000190      0.000125     -0.000205      0.000000
    182 F     c      -0.000157      0.000316     -0.000046      0.000000
    183 F     c       0.000005      0.000301      0.000582      0.000000
    184 F     c      -0.000081      0.000303     -0.000001      0.000000
    185 F     c      -0.000030     -0.000082      0.000541      0.000000
    186 F     c      -0.000189      0.000201      0.000076      0.000000
    187 O2    s       0.000306      0.000468      0.000311      0.000000
    188 O2    s      -0.000217      0.000352      0.000184      0.000000
    189 O2    s       0.000052      0.000238      0.000010      0.000000
    190 O3    s      -0.000242      0.000354     -0.000441      0.000000
    191 O2    s       0.000310      0.000126     -0.001157      0.000000
    192 O2    s      -0.000113      0.000012      0.000365      0.000000
    193 O2    s      -0.000185      0.000137     -0.000177      0.000000
    194 O2    s      -0.000096      0.000260     -0.000244      0.000000
    195 O2    s      -0.000045      0.000273      0.000352      0.000000
    196 O2    s      -0.000014      0.000321      0.000147      0.000000
    197 O2    s      -0.000147      0.000002      0.000117      0.000000
    198 O2    s      -0.000147      0.000265      0.000572      0.000000
    199 O3    s       0.000159      0.002848      0.001650      0.000000
    200 O2    s      -0.000081      0.000201     -0.000061      0.000000
    201 O2    s      -0.000301      0.000220     -0.000115      0.000000
    202 O2    s      -0.000115      0.000224     -0.000007      0.000000
    203 O2    s      -0.000027      0.000032      0.000132      0.000000
    204 O2    s      -0.000106      0.000375      0.000080      0.000000
    205 O2    s       0.000122      0.000160     -0.000182      0.000000
    206 O2    s      -0.000324      0.000455      0.000286      0.000000
    207 O2    s      -0.000117      0.000320      0.000316      0.000000
    208 O3    s      -0.000178      0.000241      0.000033      0.000000
    209 O2    s       0.000063      0.000249      0.000004      0.000000
    210 O2    s      -0.000062      0.000005     -0.000002      0.000000
    211 O2    s      -0.000164      0.000199     -0.000490      0.000000
    212 O2    s       0.000008     -0.000090      0.001198      0.000000
    213 O2    s      -0.000134      0.000319     -0.000047      0.000000
    214 O2    s       0.000180     -0.000175     -0.000102      0.000000
    215 O2    s      -0.000170      0.000305     -0.000062      0.000000
    216 O2    s      -0.000194      0.000036     -0.000037      0.000000
    217 O2    s      -0.000230      0.000156      0.000612      0.000000
    218 O2    s      -0.000034      0.000352      0.000063      0.000000
    219 O2    s      -0.000073      0.000329     -0.000606      0.000000
    220 O2    s       0.000019      0.000304     -0.000193      0.000000
    221 O2    s      -0.000307      0.000522      0.001700      0.000000
    222 O3    s      -0.000161      0.000266      0.000698      0.000000
    223 O2    s       0.000170     -0.000001     -0.000479      0.000000
    224 O2    s      -0.000191     -0.000027      0.000129      0.000000
    225 O2    s      -0.000165      0.000318      0.000116      0.000000
    226 O3    s      -0.000148      0.000290      0.000265      0.000000
    227 O3    s       0.000066      0.000327     -0.000622      0.000000
    228 O2    s      -0.000275      0.000066     -0.000034      0.000000
    229 O2    s      -0.000199      0.000229     -0.000203      0.000000
    230 O2    s      -0.000679      0.000701      0.001074      0.000000
    231 O2    s      -0.000120      0.000346     -0.000180      0.000000
    232 O2    s      -0.000380      0.000702     -0.000621      0.000000
    233 O2    s      -0.000158      0.000237     -0.000209      0.000000
    234 O2    s      -0.000254      0.000096     -0.000076      0.000000
    235 O2    s      -0.000208      0.000122     -0.000080      0.000000
    236 O2    s      -0.000110      0.000274     -0.000006      0.000000
    237 O2    s      -0.000227      0.000568      0.000163      0.000000
    238 O2    s      -0.000084      0.000284      0.000329      0.000000
    239 O2    s      -0.000089      0.000125     -0.000073      0.000000
    240 O2    s      -0.000240      0.000232     -0.000521      0.000000
    241 O3    s       0.000281     -0.000109      0.000085      0.000000
    242 O2    s      -0.000203      0.000179      0.000184      0.000000
    243 O2    s      -0.000068      0.000253      0.000131      0.000000
    244 O2    s      -0.000173      0.000247     -0.000152      0.000000
    245 O2    s      -0.000100      0.000415      0.000394      0.000000
    246 O2    s      -0.000031     -0.000014     -0.000002      0.000000
    247 O2    s      -0.000170      0.000148     -0.000119      0.000000
    248 O2    s      -0.000257     -0.000187      0.000265      0.000000
    249 O2    s      -0.000062      0.000242     -0.000213      0.000000
    250 O2    s       0.000167      0.000240     -0.000298      0.000000
    251 O2    s      -0.000162      0.000324      0.000108      0.000000
    252 O2    s      -0.000252      0.000106      0.000046      0.000000
    253 O2    s      -0.000182      0.000846      0.001473      0.000000
    254 O2    s      -0.000234      0.000154      0.000234      0.000000
    255 O2    s      -0.000139      0.000320      0.000038      0.000000
    256 O2    s      -0.000122      0.000294     -0.000049      0.000000
    257 O3    s      -0.000240      0.000311     -0.000511      0.000000
    258 O2    s      -0.000195      0.000167      0.000060      0.000000
    259 O2    s      -0.000266      0.000201      0.000067      0.000000
    260 O2    s      -0.000076      0.000324      0.001510      0.000000
    261 O2    s      -0.000135      0.000289     -0.000314      0.000000
    262 O2    s      -0.000085      0.000348     -0.000147      0.000000
    263 O2    s      -0.000199      0.000272      0.000136      0.000000
    264 O2    s      -0.000533      0.000381      0.000146      0.000000
    265 O2    s       0.001886     -0.002120      0.000104      0.000000
    266 O2    s      -0.000192      0.000238     -0.000269      0.000000
    267 O2    s      -0.000029      0.000232     -0.000186      0.000000
    268 O2    s      -0.000192      0.000335      0.000141      0.000000
    269 O2    s      -0.000192      0.000494      0.000200      0.000000
    270 O2    s      -0.000178      0.000041      0.000045      0.000000
    271 O2    s      -0.000206      0.000198      0.000069      0.000000
    272 O2    s      -0.000165      0.000000      0.000298      0.000000
    273 O2    s      -0.000168      0.000315     -0.000251      0.000000
    274 O2    s       0.000038      0.000258      0.000189      0.000000
    275 O2    s      -0.000175      0.000282     -0.000138      0.000000
    276 O2    s      -0.000006     -0.000057     -0.000595      0.000000
    277 O3    s       0.000223      0.000338     -0.001708      0.000000
    278 O2    s      -0.000284      0.000225     -0.000380      0.000000
    279 O2    s      -0.000071      0.000238     -0.000104      0.000000
    280 O2    s      -0.000174      0.000164      0.000279      0.000000
    281 O2    s      -0.000036      0.000268      0.000115      0.000000
    282 O2    s      -0.000316      0.000430      0.000865      0.000000
    283 O2    s      -0.000169      0.000269      0.000242      0.000000
    284 O2    s       0.000050     -0.000319      0.000486      0.000000
    285 O2    s      -0.000057      0.000291     -0.000034      0.000000
    286 O2    s      -0.000150      0.000837      0.000547      0.000000
    287 O2    s      -0.000165      0.000330     -0.000163      0.000000
    288 O2    s      -0.000158      0.000100      0.000054      0.000000
    289 O3    s      -0.001012      0.000059     -0.002071      0.000000
    290 O2    s      -0.000268      0.000258     -0.000043      0.000000
    291 O2    s      -0.000170      0.000347     -0.000007      0.000000
    292 O2    s      -0.000125      0.000195     -0.000229      0.000000
    293 O2    s      -0.000096      0.000387      0.000181      0.000000
    294 O2    s      -0.000214      0.000167     -0.000164      0.000000
    295 O2    s      -0.000165      0.000109     -0.000256      0.000000
    296 O2    s      -0.000305      0.000462      0.000088      0.000000
    297 O2    s      -0.000191      0.000359     -0.000067      0.000000
    298 O3    s       0.000387      0.000135     -0.000413      0.000000
    299 O2    s      -0.000124      0.000258      0.000458      0.000000
    300 O2    s      -0.000250     -0.000023      0.000043      0.000000
    301 O2    s      -0.000229      0.000060     -0.000049      0.000000
    302 O2    s      -0.000077      0.000231     -0.000510      0.000000
    303 O3    s      -0.000355      0.000933      0.000470      0.000000
    304 O2    s      -0.000056      0.000307      0.000329      0.000000
    305 O2    s      -0.000081      0.000224     -0.000178      0.000000
    306 O2    s      -0.000136      0.000194      0.000144      0.000000
    307 F     s      -0.000313      0.000070      0.000381      0.000000
    308 F     s      -0.000159      0.000315      0.000046      0.000000
    309 F     s       0.000694     -0.000443      0.000290      0.000000
    310 F     s      -0.000098      0.000289      0.000113      0.000000
    311 F     s      -0.000358      0.000135     -0.001008      0.000000
    312 F     s      -0.000189      0.000227     -0.000089      0.000000
--------------------------------------------------------------------------------
  Maximum abs         0.002796      0.003366      0.004821      0.000000
--------------------------------------------------------------------------------


  Time to end of optimisation =      23.5042 seconds


  Peak dynamic memory used =      19.13 MB 


  Timing analysis for GULP :

--------------------------------------------------------------------------------
  Task / Subroutine                                          Time (Seconds)
--------------------------------------------------------------------------------
  Calculation of reciprocal space energy and derivatives          0.6480
  Calculation of real space energy and derivatives               20.3791
  Calculation of three-body energy and derivatives                2.0504
  Calculation of matrix inversion                                 0.3719
--------------------------------------------------------------------------------
  Total CPU time                                                 23.5042
--------------------------------------------------------------------------------


  Dump file written as out.res                                                 
  CIF file written as out.cif                                                 


  Job Finished at 02:53.10 18th November   2016                               

