********************************************************************************
*                       GENERAL UTILITY LATTICE PROGRAM                        *
*                                 Julian Gale                                  *
*                      Nanochemistry Research Institute                        *
*                           Department of Chemistry                            *
*                    Curtin University, Western Australia                      *
********************************************************************************
* Version = 4.2.0 * Last modified =  20th January 2014                         *
********************************************************************************
*  optimise     - perform optimisation run                                     *
*  conp         - constant pressure calculation                                *
*  qok          - running with non charge neutral cell is OK                   *
********************************************************************************

  Job Started  at 08:30.58 28th November   2016                               

  Number of CPUs =     1


  Total number of configurations input =   1

********************************************************************************
*  Input for Configuration =   1                                               *
********************************************************************************

  Formula = Si57Ge3O120F6                                               

  Number of irreducible atoms/shells =     312


  Total number atoms/shells =     312

  Dimensionality = 3               :  Bulk   


  Charge on solid   =  -6.000000 =>neutralising background added


  Cartesian lattice vectors (Angstroms) :

       11.945137    0.000000    0.000000
       -5.981002   10.376103    0.000000
       -0.195646    0.047480   29.553192

  Cell parameters (Angstroms/Degrees):

  a =      11.9451    alpha =  89.7308
  b =      11.9765    beta  =  90.3793
  c =      29.5539    gamma = 119.9600

  Initial cell volume =        3662.940107 Angs**3

  Temperature of configuration =  0.000     K 

  Pressure of configuration =         0.000 GPa 

  Fractional coordinates of asymmetric unit :

--------------------------------------------------------------------------------
   No.  Atomic       x           y          z         Charge      Occupancy
        Label      (Frac)      (Frac)     (Frac)        (e)         (Frac)  
--------------------------------------------------------------------------------
      1 Si    c    0.699600    0.375700    0.033890     4.00000    1.000000    
      2 Si    c    0.627191 *  0.319382 *  0.365930 *   4.00000    1.000000    
      3 Si    c    0.677528 *  0.288927 *  0.700116 *   4.00000    1.000000    
      4 Si    c    0.299304 *  0.614058 *  0.537991 *   4.00000    1.000000    
      5 Si    c    0.384777 *  0.673258 *  0.870343 *   4.00000    1.000000    
      6 Si    c    0.327860 *  0.706322 *  0.201946 *   4.00000    1.000000    
      7 Si    c    0.386520 *  0.714008 *  0.302024 *   4.00000    1.000000    
      8 Si    c    0.328050 *  0.619827 *  0.972143 *   4.00000    1.000000    
      9 Si    c    0.295672 *  0.669025 *  0.637838 *   4.00000    1.000000    
     10 Si    c    0.626656 *  0.294188 *  0.800511 *   4.00000    1.000000    
     11 Si    c    0.672653 *  0.364744 *  0.468980 *   4.00000    1.000000    
     12 Si    c    0.707109 *  0.326415 *  0.135262 *   4.00000    1.000000    
     13 Ge    c    0.534904 *  0.430855 *  0.966765 *   4.00000    1.000000    
     14 Si    c    0.596200 *  0.118746 *  0.300878 *   4.00000    1.000000    
     15 Si    c    0.885777 *  0.462785 *  0.635342 *   4.00000    1.000000    
     16 Si    c    0.463567 *  0.572202 *  0.471228 *   4.00000    1.000000    
     17 Si    c    0.422164 *  0.883037 *  0.804264 *   4.00000    1.000000    
     18 Si    c    0.117438 *  0.533107 *  0.136706 *   4.00000    1.000000    
     19 Si    c    0.413013 *  0.533836 *  0.367599 *   4.00000    1.000000    
     20 Si    c    0.114645 *  0.582215 *  0.035607 *   4.00000    1.000000    
     21 Si    c    0.469511 *  0.877541 *  0.703136 *   4.00000    1.000000    
     22 Si    c    0.598873 *  0.465461 *  0.867888 *   4.00000    1.000000    
     23 Si    c    0.886790 *  0.410623 *  0.534357 *   4.00000    1.000000    
     24 Si    c    0.536789 *  0.116243 *  0.199931 *   4.00000    1.000000    
     25 Si    c    0.310620 *  0.392630 *  0.855645 *   4.00000    1.000000    
     26 Si    c    0.606472 *  0.905677 *  0.185971 *   4.00000    1.000000    
     27 Si    c    0.098161 *  0.690665 *  0.520677 *   4.00000    1.000000    
     28 Si    c    0.700150 *  0.603169 *  0.354516 *   4.00000    1.000000    
     29 Si    c    0.398066 *  0.086191 *  0.688016 *   4.00000    1.000000    
     30 Si    c    0.905859 *  0.302364 *  0.021748 *   4.00000    1.000000    
     31 Si    c    0.391328 *  0.286343 *  0.486430 *   4.00000    1.000000    
     32 Si    c    0.908162 *  0.604520 *  0.149783 *   4.00000    1.000000    
     33 Si    c    0.702936 *  0.092516 *  0.817142 *   4.00000    1.000000    
     34 Si    c    0.612801 *  0.702780 *  0.989680 *   4.00000    1.000000    
     35 Si    c    0.093511 *  0.390067 *  0.652209 *   4.00000    1.000000    
     36 Si    c    0.313161 *  0.916893 *  0.317508 *   4.00000    1.000000    
     37 Si    c    0.254560 *  0.332585 *  0.957377 *   4.00000    1.000000    
     38 Si    c    0.668745 *  0.914723 *  0.286048 *   4.00000    1.000000    
     39 Si    c    0.086740 *  0.741884 *  0.620671 *   4.00000    1.000000    
     40 Si    c    0.746498 *  0.652467 *  0.456698 *   4.00000    1.000000    
     41 Si    c    0.343873 *  0.083760 *  0.788350 *   4.00000    1.000000    
     42 Si    c    0.916966 *  0.254579 *  0.122005 *   4.00000    1.000000    
     43 Ge    c    0.360468 *  0.268745 *  0.386435 *   4.00000    1.000000    
     44 Si    c    0.912154 *  0.658403 *  0.049067 *   4.00000    1.000000    
     45 Si    c    0.748961 *  0.079824 *  0.716885 *   4.00000    1.000000    
     46 Si    c    0.671312 *  0.744734 *  0.886941 *   4.00000    1.000000    
     47 Si    c    0.088467 *  0.334238 *  0.551879 *   4.00000    1.000000    
     48 Si    c    0.257956 *  0.916996 *  0.216859 *   4.00000    1.000000    
     49 Si    c    0.969984 *  0.121499 *  0.971183 *   4.00000    1.000000    
     50 Si    c    0.885318 *  0.850655 *  0.303120 *   4.00000    1.000000    
     51 Si    c    0.148408 *  0.020654 *  0.638821 *   4.00000    1.000000    
     52 Ge    c    0.032909 *  0.875528 *  0.469378 *   4.00000    1.000000    
     53 Si    c    0.126233 *  0.146566 *  0.804951 *   4.00000    1.000000    
     54 Si    c    0.856377 *  0.975456 *  0.137600 *   4.00000    1.000000    
     55 Si    c    0.133046 *  0.986351 *  0.367430 *   4.00000    1.000000    
     56 Si    c    0.858225 *  0.884157 *  0.037507 *   4.00000    1.000000    
     57 Si    c    0.029479 *  0.143643 *  0.704040 *   4.00000    1.000000    
     58 Si    c    0.883179 *  0.026866 *  0.870019 *   4.00000    1.000000    
     59 Si    c    0.149384 *  0.116629 *  0.538821 *   4.00000    1.000000    
     60 Si    c    0.975935 *  0.850467 *  0.202106 *   4.00000    1.000000    
     61 O2    c    0.937536 *  0.003550 *  0.004264 *   0.87073    1.000000    
     62 O2    c    0.007284 *  0.930947 *  0.334864 *   0.87073    1.000000    
     63 O2    c    0.073828 *  0.061869 *  0.673973 *   0.87073    1.000000    
     64 O3    c    0.067568 *  0.995931 *  0.507525 *   1.33043    1.000000    
     65 O2    c    0.007935 *  0.068438 *  0.838962 *   0.87073    1.000000    
     66 O2    c    0.933696 *  0.934837 *  0.172065 *   0.87073    1.000000    
     67 O2    c    0.345747 *  0.594974 *  0.336685 *   0.87073    1.000000    
     68 O2    c    0.417780 *  0.751162 *  0.671330 *   0.87073    1.000000    
     69 O2    c    0.241172 *  0.657494 *  0.003042 *   0.87073    1.000000    
     70 O2    c    0.668873 *  0.422399 *  0.830229 *   0.87073    1.000000    
     71 O2    c    0.583688 *  0.241218 *  0.167634 *   0.87073    1.000000    
     72 O2    c    0.762064 *  0.331867 *  0.501464 *   0.87073    1.000000    
     73 O3    c    0.581634 *  0.340372 *  0.001993 *   1.33043    1.000000    
     74 O2    c    0.758819 *  0.411234 *  0.667013 *   0.87073    1.000000    
     75 O2    c    0.677566 *  0.245192 *  0.332891 *   0.87073    1.000000    
     76 O2    c    0.421219 *  0.650234 *  0.505252 *   0.87073    1.000000    
     77 O2    c    0.242805 *  0.583030 *  0.169608 *   0.87073    1.000000    
     78 O2    c    0.348085 *  0.758159 *  0.837364 *   0.87073    1.000000    
     79 O2    c    0.122613 *  0.213666 *  0.975829 *   0.87073    1.000000    
     80 O2    c    0.794732 *  0.914665 *  0.306624 *   0.87073    1.000000    
     81 O2    c    0.083880 *  0.865760 *  0.641419 *   0.87073    1.000000    
     82 O3    c    0.868173 *  0.772140 *  0.478457 *   1.33043    1.000000    
     83 O2    c    0.217251 *  0.082605 *  0.808603 *   0.87073    1.000000    
     84 O2    c    0.917535 *  0.129084 *  0.142772 *   0.87073    1.000000    
     85 O3    c    0.216727 *  0.135385 *  0.363142 *   1.33043    1.000000    
     86 O2    c    0.912149 *  0.785994 *  0.029669 *   0.87073    1.000000    
     87 O2    c    0.875023 *  0.078430 *  0.697382 *   0.87073    1.000000    
     88 O2    c    0.792385 *  0.872465 *  0.865408 *   0.87073    1.000000    
     89 O2    c    0.088451 *  0.209420 *  0.531684 *   0.87073    1.000000    
     90 O2    c    0.130427 *  0.915481 *  0.196806 *   0.87073    1.000000    
     91 O2    c    0.935119 *  0.854234 *  0.253025 *   0.87073    1.000000    
     92 O2    c    0.132425 *  0.067143 *  0.590008 *   0.87073    1.000000    
     93 O2    c    0.929566 *  0.067033 *  0.920841 *   0.87073    1.000000    
     94 O2    c    0.068449 *  0.135758 *  0.755296 *   0.87073    1.000000    
     95 O2    c    0.878468 *  0.936623 *  0.088123 *   0.87073    1.000000    
     96 O3    c    0.068912 *  0.935408 *  0.416555 *   1.33043    1.000000    
     97 O2    c    0.899677 *  0.202114 *  0.983325 *   0.87073    1.000000    
     98 O2    c    0.799563 *  0.700230 *  0.317301 *   0.87073    1.000000    
     99 O2    c    0.300708 *  0.086598 *  0.649673 *   0.87073    1.000000    
    100 O3    c    0.106821 *  0.786671 *  0.481222 *   1.33043    1.000000    
    101 O2    c    0.212441 *  0.297954 *  0.816957 *   0.87073    1.000000    
    102 O2    c    0.702948 *  0.904439 *  0.147488 *   0.87073    1.000000    
    103 O2    c    0.220048 *  0.919274 *  0.356568 *   0.87073    1.000000    
    104 O2    c    0.705721 *  0.813576 *  0.025569 *   0.87073    1.000000    
    105 O2    c    0.096673 *  0.294303 *  0.690706 *   0.87073    1.000000    
    106 O2    c    0.802779 *  0.096447 *  0.855356 *   0.87073    1.000000    
    107 O2    c    0.302630 *  0.196791 *  0.528214 *   0.87073    1.000000    
    108 O2    c    0.905790 *  0.701030 *  0.187660 *   0.87073    1.000000    
    109 O2    c    0.328469 *  0.650892 *  0.252485 *   0.87073    1.000000    
    110 O2    c    0.355811 *  0.670392 *  0.588269 *   0.87073    1.000000    
    111 O2    c    0.330224 *  0.670260 *  0.920566 *   0.87073    1.000000    
    112 O2    c    0.681445 *  0.347237 *  0.750037 *   0.87073    1.000000    
    113 O2    c    0.649815 *  0.325282 *  0.085369 *   0.87073    1.000000    
    114 O2    c    0.674451 *  0.315154 *  0.418090 *   0.87073    1.000000    
    115 O3    c    0.367899 *  0.315063 *  0.976578 *   1.33043    1.000000    
    116 O2    c    0.682977 *  0.049237 *  0.303542 *   0.87073    1.000000    
    117 O2    c    0.953633 *  0.618761 *  0.638360 *   0.87073    1.000000    
    118 O2    c    0.619411 *  0.655816 *  0.472769 *   0.87073    1.000000    
    119 O2    c    0.335317 *  0.952459 *  0.807751 *   0.87073    1.000000    
    120 O2    c    0.049488 *  0.377029 *  0.140573 *   0.87073    1.000000    
    121 O3    c    0.324423 *  0.382615 *  0.361778 *   1.33043    1.000000    
    122 O2    c    0.047162 *  0.670863 *  0.031548 *   0.87073    1.000000    
    123 O2    c    0.625993 *  0.945698 *  0.699803 *   0.87073    1.000000    
    124 O2    c    0.681796 *  0.623959 *  0.867811 *   0.87073    1.000000    
    125 O2    c    0.957139 *  0.324820 *  0.532079 *   0.87073    1.000000    
    126 O2    c    0.380175 *  0.047352 *  0.197378 *   0.87073    1.000000    
    127 O2    c    0.772039 *  0.301283 *  0.014237 *   0.87073    1.000000    
    128 O2    c    0.697836 *  0.468092 *  0.348210 *   0.87073    1.000000    
    129 O2    c    0.532051 *  0.219038 *  0.679331 *   0.87073    1.000000    
    130 O2    c    0.231809 *  0.688788 *  0.515190 *   0.87073    1.000000    
    131 O2    c    0.313419 *  0.528597 *  0.850034 *   0.87073    1.000000    
    132 O2    c    0.470580 *  0.773172 *  0.178961 *   0.87073    1.000000    
    133 O2    c    0.311607 *  0.781869 *  0.324220 *   0.87073    1.000000    
    134 O2    c    0.473710 *  0.697045 *  0.992104 *   0.87073    1.000000    
    135 O2    c    0.226119 *  0.525433 *  0.659844 *   0.87073    1.000000    
    136 O2    c    0.700529 *  0.225343 *  0.823847 *   0.87073    1.000000    
    137 O2    c    0.529240 *  0.289331 *  0.490764 *   0.87073    1.000000    
    138 O2    c    0.775656 *  0.469385 *  0.157661 *   0.87073    1.000000    
    139 O2    c    0.789162 *  0.532932 *  0.028767 *   0.87073    1.000000    
    140 O3    c    0.474621 *  0.240658 *  0.358523 *   1.33043    1.000000    
    141 O2    c    0.749179 *  0.204473 *  0.695808 *   0.87073    1.000000    
    142 O2    c    0.217258 *  0.458562 *  0.533521 *   0.87073    1.000000    
    143 O2    c    0.539369 *  0.736503 *  0.869340 *   0.87073    1.000000    
    144 O2    c    0.254027 *  0.788801 *  0.198147 *   0.87073    1.000000    
    145 O2    c    0.543267 *  0.790495 *  0.306668 *   0.87073    1.000000    
    146 O2    c    0.263694 *  0.465622 *  0.974826 *   0.87073    1.000000    
    147 O2    c    0.213563 *  0.743434 *  0.640871 *   0.87073    1.000000    
    148 O2    c    0.470213 *  0.212479 *  0.806195 *   0.87073    1.000000    
    149 O2    c    0.735348 *  0.518664 *  0.472415 *   0.87073    1.000000    
    150 O2    c    0.789708 *  0.252839 *  0.140724 *   0.87073    1.000000    
    151 O2    c    0.243580 *  0.322166 *  0.902298 *   0.87073    1.000000    
    152 O2    c    0.683238 *  0.909441 *  0.231909 *   0.87073    1.000000    
    153 O2    c    0.090414 *  0.762619 *  0.566338 *   0.87073    1.000000    
    154 O2    c    0.763935 *  0.668593 *  0.402537 *   0.87073    1.000000    
    155 O2    c    0.324018 *  0.082524 *  0.734227 *   0.87073    1.000000    
    156 O2    c    0.914899 *  0.233603 *  0.067915 *   0.87073    1.000000    
    157 O3    c    0.310520 *  0.210042 *  0.442979 *   1.33043    1.000000    
    158 O2    c    0.909924 *  0.676468 *  0.103168 *   0.87073    1.000000    
    159 O2    c    0.771631 *  0.086577 *  0.770945 *   0.87073    1.000000    
    160 O2    c    0.685056 *  0.760329 *  0.940981 *   0.87073    1.000000    
    161 O2    c    0.088134 *  0.315710 *  0.606086 *   0.87073    1.000000    
    162 O2    c    0.242948 *  0.921524 *  0.270993 *   0.87073    1.000000    
    163 O3    c    0.606068 *  0.571969 *  0.002384 *   1.33043    1.000000    
    164 O2    c    0.456746 *  0.037231 *  0.325071 *   0.87073    1.000000    
    165 O2    c    0.967999 *  0.404827 *  0.659879 *   0.87073    1.000000    
    166 O2    c    0.409957 *  0.429546 *  0.492325 *   0.87073    1.000000    
    167 O2    c    0.564734 *  0.965359 *  0.826790 *   0.87073    1.000000    
    168 O2    c    0.035163 *  0.592892 *  0.159149 *   0.87073    1.000000    
    169 O2    c    0.559188 *  0.587094 *  0.348207 *   0.87073    1.000000    
    170 O2    c    0.032869 *  0.441090 *  0.012149 *   0.87073    1.000000    
    171 O2    c    0.411268 *  0.960377 *  0.679689 *   0.87073    1.000000    
    172 O2    c    0.452372 *  0.412729 *  0.848102 *   0.87073    1.000000    
    173 O2    c    0.969855 *  0.552381 *  0.511633 *   0.87073    1.000000    
    174 O2    c    0.593126 *  0.031493 *  0.177106 *   0.87073    1.000000    
    175 O2    c    0.592835 *  0.170678 *  0.250299 *   0.87073    1.000000    
    176 O2    c    0.831891 *  0.409315 *  0.584707 *   0.87073    1.000000    
    177 O3    c    0.606176 *  0.409885 *  0.915734 *   1.33043    1.000000    
    178 O2    c    0.417676 *  0.825724 *  0.754080 *   0.87073    1.000000    
    179 O2    c    0.172362 *  0.585394 *  0.085963 *   0.87073    1.000000    
    180 O2    c    0.412208 *  0.575297 *  0.420617 *   0.87073    1.000000    
    181 F     c    0.461080 *  0.908230 *  0.251481 *   0.56000    1.000000    
    182 F     c    0.092836 *  0.541361 *  0.586147 *   0.56000    1.000000    
    183 F     c    0.480048 *  0.522434 *  0.929665 *   0.56000    1.000000    
    184 F     c    0.548571 *  0.085642 *  0.752794 *   0.56000    1.000000    
    185 F     c    0.915368 *  0.455984 *  0.085969 *   0.56000    1.000000    
    186 F     c    0.507620 *  0.410977 *  0.414593 *   0.56000    1.000000    
    187 O2    s    0.932258 *  0.003452 *  0.004256 *  -2.87073    1.000000    
    188 O2    s    0.006402 *  0.927455 *  0.334596 *  -2.87073    1.000000    
    189 O2    s    0.077100 *  0.066430 *  0.673448 *  -2.87073    1.000000    
    190 O3    s    0.073494 *  0.998692 *  0.507632 *  -3.33043    1.000000    
    191 O2    s    0.007372 *  0.072530 *  0.838592 *  -2.87073    1.000000    
    192 O2    s    0.929743 *  0.929905 *  0.171565 *  -2.87073    1.000000    
    193 O2    s    0.357290 *  0.600859 *  0.336394 *  -2.87073    1.000000    
    194 O2    s    0.410565 *  0.755788 *  0.671165 *  -2.87073    1.000000    
    195 O2    s    0.237914 *  0.646030 *  0.002950 *  -2.87073    1.000000    
    196 O2    s    0.657421 *  0.413388 *  0.830916 *  -2.87073    1.000000    
    197 O2    s    0.591463 *  0.236958 *  0.167678 *  -2.87073    1.000000    
    198 O2    s    0.765458 *  0.343324 *  0.501422 *  -2.87073    1.000000    
    199 O3    s    0.591437 *  0.350546 *  0.003065 *  -3.33043    1.000000    
    200 O2    s    0.763416 *  0.403831 *  0.667213 *  -2.87073    1.000000    
    201 O2    s    0.664522 *  0.240154 *  0.333050 *  -2.87073    1.000000    
    202 O2    s    0.412992 *  0.638424 *  0.505137 *  -2.87073    1.000000    
    203 O2    s    0.238774 *  0.590679 *  0.169593 *  -2.87073    1.000000    
    204 O2    s    0.359448 *  0.761780 *  0.837522 *  -2.87073    1.000000    
    205 O2    s    0.119910 *  0.216406 *  0.973280 *  -2.87073    1.000000    
    206 O2    s    0.791245 *  0.907806 *  0.304125 *  -2.87073    1.000000    
    207 O2    s    0.090983 *  0.869361 *  0.639031 *  -2.87073    1.000000    
    208 O3    s    0.867917 *  0.767396 *  0.475472 *  -3.33043    1.000000    
    209 O2    s    0.220680 *  0.089509 *  0.806151 *  -2.87073    1.000000    
    210 O2    s    0.910942 *  0.125612 *  0.140103 *  -2.87073    1.000000    
    211 O3    s    0.216731 *  0.127266 *  0.365153 *  -3.33043    1.000000    
    212 O2    s    0.906431 *  0.783430 *  0.032430 *  -2.87073    1.000000    
    213 O2    s    0.878360 *  0.085470 *  0.700069 *  -2.87073    1.000000    
    214 O2    s    0.789417 *  0.875533 *  0.868107 *  -2.87073    1.000000    
    215 O2    s    0.094881 *  0.213005 *  0.534565 *  -2.87073    1.000000    
    216 O2    s    0.127183 *  0.908718 *  0.199424 *  -2.87073    1.000000    
    217 O2    s    0.934059 *  0.853388 *  0.252948 *  -2.87073    1.000000    
    218 O2    s    0.136144 *  0.067259 *  0.589937 *  -2.87073    1.000000    
    219 O2    s    0.928725 *  0.068464 *  0.920593 *  -2.87073    1.000000    
    220 O2    s    0.070600 *  0.137826 *  0.755160 *  -2.87073    1.000000    
    221 O2    s    0.873704 *  0.935008 *  0.087909 *  -2.87073    1.000000    
    222 O3    s    0.071789 *  0.934746 *  0.416750 *  -3.33043    1.000000    
    223 O2    s    0.907922 *  0.203411 *  0.985850 *  -2.87073    1.000000    
    224 O2    s    0.797824 *  0.705477 *  0.319812 *  -2.87073    1.000000    
    225 O2    s    0.294518 *  0.079479 *  0.652496 *  -2.87073    1.000000    
    226 O3    s    0.099943 *  0.784480 *  0.484140 *  -3.33043    1.000000    
    227 O2    s    0.213456 *  0.291742 *  0.819676 *  -2.87073    1.000000    
    228 O2    s    0.709318 *  0.912004 *  0.150316 *  -2.87073    1.000000    
    229 O2    s    0.221108 *  0.925632 *  0.353619 *  -2.87073    1.000000    
    230 O2    s    0.712223 *  0.809752 *  0.023171 *  -2.87073    1.000000    
    231 O2    s    0.089229 *  0.288130 *  0.688177 *  -2.87073    1.000000    
    232 O2    s    0.801035 *  0.088582 *  0.852948 *  -2.87073    1.000000    
    233 O2    s    0.295571 *  0.197356 *  0.525197 *  -2.87073    1.000000    
    234 O2    s    0.913571 *  0.707153 *  0.185307 *  -2.87073    1.000000    
    235 O2    s    0.334325 *  0.662920 *  0.252370 *  -2.87073    1.000000    
    236 O2    s    0.343953 *  0.664507 *  0.588175 *  -2.87073    1.000000    
    237 O2    s    0.335720 *  0.665518 *  0.920459 *  -2.87073    1.000000    
    238 O2    s    0.675360 *  0.335655 *  0.750083 *  -2.87073    1.000000    
    239 O2    s    0.660856 *  0.330451 *  0.085506 *  -2.87073    1.000000    
    240 O2    s    0.669664 *  0.320673 *  0.418335 *  -2.87073    1.000000    
    241 O3    s    0.366807 *  0.324762 *  0.973788 *  -3.33043    1.000000    
    242 O2    s    0.672459 *  0.042322 *  0.301415 *  -2.87073    1.000000    
    243 O2    s    0.960454 *  0.615442 *  0.636195 *  -2.87073    1.000000    
    244 O2    s    0.616468 *  0.646619 *  0.470892 *  -2.87073    1.000000    
    245 O2    s    0.345181 *  0.958844 *  0.805382 *  -2.87073    1.000000    
    246 O2    s    0.042651 *  0.380273 *  0.138229 *  -2.87073    1.000000    
    247 O3    s    0.336246 *  0.390191 *  0.364185 *  -3.33043    1.000000    
    248 O2    s    0.040424 *  0.660480 *  0.033744 *  -2.87073    1.000000    
    249 O2    s    0.622748 *  0.952676 *  0.701937 *  -2.87073    1.000000    
    250 O2    s    0.672686 *  0.621361 *  0.869841 *  -2.87073    1.000000    
    251 O2    s    0.963570 *  0.334783 *  0.534410 *  -2.87073    1.000000    
    252 O2    s    0.383472 *  0.040760 *  0.199693 *  -2.87073    1.000000    
    253 O2    s    0.779441 *  0.308894 *  0.017083 *  -2.87073    1.000000    
    254 O2    s    0.690880 *  0.467302 *  0.350712 *  -2.87073    1.000000    
    255 O2    s    0.532950 *  0.212210 *  0.682442 *  -2.87073    1.000000    
    256 O2    s    0.224776 *  0.681027 *  0.518246 *  -2.87073    1.000000    
    257 O2    s    0.320600 *  0.529586 *  0.852753 *  -2.87073    1.000000    
    258 O2    s    0.470426 *  0.780376 *  0.182073 *  -2.87073    1.000000    
    259 O2    s    0.319577 *  0.789064 *  0.321162 *  -2.87073    1.000000    
    260 O2    s    0.472457 *  0.689484 *  0.989719 *  -2.87073    1.000000    
    261 O2    s    0.219307 *  0.525976 *  0.656745 *  -2.87073    1.000000    
    262 O2    s    0.693179 *  0.218329 *  0.820714 *  -2.87073    1.000000    
    263 O2    s    0.530317 *  0.296842 *  0.488024 *  -2.87073    1.000000    
    264 O2    s    0.782580 *  0.468933 *  0.154506 *  -2.87073    1.000000    
    265 O2    s    0.794295 *  0.531553 *  0.031475 *  -2.87073    1.000000    
    266 O3    s    0.481830 *  0.250938 *  0.361322 *  -3.33043    1.000000    
    267 O2    s    0.741569 *  0.199708 *  0.698499 *  -2.87073    1.000000    
    268 O2    s    0.211818 *  0.461467 *  0.535971 *  -2.87073    1.000000    
    269 O2    s    0.536757 *  0.730450 *  0.871329 *  -2.87073    1.000000    
    270 O2    s    0.262328 *  0.794157 *  0.200558 *  -2.87073    1.000000    
    271 O2    s    0.540600 *  0.796050 *  0.303987 *  -2.87073    1.000000    
    272 O2    s    0.269916 *  0.468761 *  0.972748 *  -2.87073    1.000000    
    273 O2    s    0.208422 *  0.735379 *  0.638407 *  -2.87073    1.000000    
    274 O2    s    0.472660 *  0.206906 *  0.803719 *  -2.87073    1.000000    
    275 O2    s    0.729738 *  0.516622 *  0.470355 *  -2.87073    1.000000    
    276 O2    s    0.795063 *  0.260788 *  0.138157 *  -2.87073    1.000000    
    277 O2    s    0.251966 *  0.330845 *  0.902754 *  -2.87073    1.000000    
    278 O2    s    0.673726 *  0.909618 *  0.232871 *  -2.87073    1.000000    
    279 O2    s    0.090753 *  0.753266 *  0.567401 *  -2.87073    1.000000    
    280 O2    s    0.755433 *  0.660032 *  0.403216 *  -2.87073    1.000000    
    281 O2    s    0.333856 *  0.083023 *  0.735166 *  -2.87073    1.000000    
    282 O2    s    0.914219 *  0.242969 *  0.068804 *  -2.87073    1.000000    
    283 O3    s    0.322062 *  0.221642 *  0.443643 *  -3.33043    1.000000    
    284 O2    s    0.909973 *  0.666946 *  0.102382 *  -2.87073    1.000000    
    285 O2    s    0.761955 *  0.086477 *  0.770046 *  -2.87073    1.000000    
    286 O2    s    0.676573 *  0.753004 *  0.939792 *  -2.87073    1.000000    
    287 O2    s    0.088730 *  0.325568 *  0.605246 *  -2.87073    1.000000    
    288 O2    s    0.251875 *  0.920598 *  0.270106 *  -2.87073    1.000000    
    289 O3    s    0.601859 *  0.576809 *  0.998644 *  -3.33043    1.000000    
    290 O2    s    0.455963 *  0.032605 *  0.321711 *  -2.87073    1.000000    
    291 O2    s    0.973174 *  0.409417 *  0.656516 *  -2.87073    1.000000    
    292 O2    s    0.413823 *  0.429778 *  0.489463 *  -2.87073    1.000000    
    293 O2    s    0.564449 *  0.970325 *  0.823403 *  -2.87073    1.000000    
    294 O2    s    0.029910 *  0.587730 *  0.155786 *  -2.87073    1.000000    
    295 O2    s    0.560089 *  0.583369 *  0.350848 *  -2.87073    1.000000    
    296 O2    s    0.027850 *  0.441074 *  0.015566 *  -2.87073    1.000000    
    297 O2    s    0.416155 *  0.965438 *  0.683068 *  -2.87073    1.000000    
    298 O2    s    0.451168 *  0.415844 *  0.850910 *  -2.87073    1.000000    
    299 O2    s    0.974734 *  0.552104 *  0.514951 *  -2.87073    1.000000    
    300 O2    s    0.588498 *  0.026606 *  0.180448 *  -2.87073    1.000000    
    301 O2    s    0.587392 *  0.159639 *  0.250376 *  -2.87073    1.000000    
    302 O2    s    0.843156 *  0.414997 *  0.584722 *  -2.87073    1.000000    
    303 O3    s    0.600824 *  0.417165 *  0.913944 *  -3.33043    1.000000    
    304 O2    s    0.423475 *  0.836998 *  0.754052 *  -2.87073    1.000000    
    305 O2    s    0.160816 *  0.579721 *  0.085937 *  -2.87073    1.000000    
    306 O2    s    0.417658 *  0.570924 *  0.420821 *  -2.87073    1.000000    
    307 F     s    0.461003 *  0.907593 *  0.251517 *  -1.56000    1.000000    
    308 F     s    0.092989 *  0.541555 *  0.586117 *  -1.56000    1.000000    
    309 F     s    0.483992 *  0.516311 *  0.932142 *  -1.56000    1.000000    
    310 F     s    0.548568 *  0.085645 *  0.752837 *  -1.56000    1.000000    
    311 F     s    0.915936 *  0.456108 *  0.086024 *  -1.56000    1.000000    
    312 F     s    0.498749 *  0.402176 *  0.413041 *  -1.56000    1.000000    
--------------------------------------------------------------------------------



********************************************************************************
*  General input information                                                   *
********************************************************************************

  Species output for all configurations : 

--------------------------------------------------------------------------------
  Species    Type    Atomic    Atomic    Charge       Radii (Angs)     Library
                     Number     Mass       (e)     Cova   Ionic  VDW   Symbol
--------------------------------------------------------------------------------
    Si       Core       14      28.09   4.000000   1.200  0.000  2.100          
    O1       Core        8      16.00   1.733957   0.730  0.000  1.360          
    O1       Shell       8       0.00  -3.733957   0.730  0.000  1.360          
    O2       Core        8      16.00   0.870733   0.730  0.000  1.360          
    O2       Shell       8       0.00  -2.870733   0.730  0.000  1.360          
    O3       Core        8      16.00   1.330431   0.730  0.000  1.360          
    O3       Shell       8       0.00  -3.330431   0.730  0.000  1.360          
    F        Core        9      19.00   0.560000   0.710  0.000  1.300          
    F        Shell       9       0.00  -1.560000   0.710  0.000  1.300          
    Ge       Core       32      72.61   4.000000   1.170  0.000  1.750          
--------------------------------------------------------------------------------


  Lattice summation method               =    Ewald          (3-D)
                                         =    Parry          (2-D)
                                         =    Saunders et al (1-D)
  Accuracy factor for lattice sums       =   12.000


  Time limit = Infinity

  Maximum range for interatomic potentials =        16.000000 Angstroms

  Taper potentials to zero over   1.0000 Angstroms using polynomial

  General interatomic potentials :

--------------------------------------------------------------------------------
Atom  Types   Potential         A         B         C         D     Cutoffs(Ang)
  1     2                                                            Min    Max 
--------------------------------------------------------------------------------
Si   c O1   s Buckingham    0.132E+04 0.318      10.1      0.00     0.000 16.000
Si   c O2   s Buckingham    0.132E+04 0.318      10.1      0.00     0.000 16.000
Si   c O3   s Buckingham    0.132E+04 0.318      10.1      0.00     0.000 16.000
Ge   c O1   s Buckingham    0.150E+04 0.326      16.8      0.00     0.000 16.000
Ge   c O2   s Buckingham    0.150E+04 0.326      16.8      0.00     0.000 16.000
Ge   c O3   s Buckingham    0.150E+04 0.326      16.8      0.00     0.000 16.000
O1   s O1   s Buckingham    0.228E+05 0.149      10.9      0.00     0.000 16.000
O1   s O2   s Buckingham    0.228E+05 0.149      10.9      0.00     0.000 16.000
O1   s O3   s Buckingham    0.228E+05 0.149      10.9      0.00     0.000 16.000
O2   s O2   s Buckingham    0.228E+05 0.149      10.9      0.00     0.000 16.000
O2   s O3   s Buckingham    0.228E+05 0.149      10.9      0.00     0.000 16.000
O3   s O3   s Buckingham    0.228E+05 0.149      10.9      0.00     0.000 16.000
Si   c F    s Buckingham     977.     0.282      0.00      0.00     0.000 16.000
Ge   c F    s Buckingham     681.     0.320      0.00      0.00     0.000 16.000
F    s F    s Buckingham     540.     0.262      0.00      0.00     0.000 16.000
O1   s F    s Buckingham    0.168E+04 0.268      0.00      0.00     0.000 16.000
O2   s F    s Buckingham    0.168E+04 0.268      0.00      0.00     0.000 16.000
O3   s F    s Buckingham    0.168E+04 0.268      0.00      0.00     0.000 16.000
O2   c O2   s Spring (c-s)   76.0      0.00      0.00      0.00     0.000  0.800
O3   c O3   s Spring (c-s)   128.      0.00      0.00      0.00     0.000  0.800
O1   c O1   s Spring (c-s)   180.      0.00      0.00      0.00     0.000  0.800
F    c F    s Spring (c-s)   33.5      0.00      0.00      0.00     0.000  0.800
--------------------------------------------------------------------------------

  General Three-body potentials :

  Harmonic form:

--------------------------------------------------------------------------------
Atom    Atom    Atom           Force Constants            Theta     Cutoffs  
  1       2       3     (eVrad**-2/eVrad**-3/eVrad**-4)   (deg)  1-2  1-3  2-3
--------------------------------------------------------------------------------
Si    c O1    s O1    s  1.261        0.0000    0.0000   109.470 0.00 0.00 0.00
                                                                 1.90 1.90 3.50
Si    c O1    s O2    s  1.261        0.0000    0.0000   109.470 0.00 0.00 0.00
                                                                 1.90 1.90 3.50
Si    c O2    s O2    s  1.261        0.0000    0.0000   109.470 0.00 0.00 0.00
                                                                 1.90 1.90 3.50
--------------------------------------------------------------------------------

********************************************************************************
*  Output for configuration   1                                                *
********************************************************************************


  Components of energy : 

--------------------------------------------------------------------------------
  Interatomic potentials     =        2063.81422416 eV
  Three-body potentials      =           0.45114150 eV
  Monopole - monopole (real) =       -6614.78195267 eV
  Monopole - monopole (recip)=       -3169.57327495 eV
  Monopole - monopole (total)=       -9784.35522762 eV
  Neutralising energy        =          -6.45642344 eV
--------------------------------------------------------------------------------
  Total lattice energy       =       -7726.54628540 eV
--------------------------------------------------------------------------------
  Total lattice energy       =         -745493.6055 kJ/(mole unit cells)
--------------------------------------------------------------------------------


  Number of variables =      939

  Maximum number of calculations  =          1000
  Maximum Hessian update interval =            10
  Maximum step size               =   1.000000000
  Maximum parameter tolerance     =   0.000010000
  Maximum function  tolerance     =   0.000010000
  Maximum gradient  tolerance     =   0.001000000
  Maximum gradient  component     =   0.010000000

  Symmetry not applied to optimisation

  Cell parameters to be optimised using strains

  Newton-Raphson optimiser to be used

  BFGS hessian update to be used

  Dumpfile to be written after every cycle

  Start of bulk optimisation :

  Cycle:      0 Energy:     -7726.546285  Gnorm:      0.006341  CPU:    1.684
  ** Hessian calculated **
  Cycle:      1 Energy:     -7726.546377  Gnorm:      0.001744  CPU:    4.974
  Cycle:      2 Energy:     -7726.546410  Gnorm:      0.001879  CPU:    7.174
  Cycle:      3 Energy:     -7726.546530  Gnorm:      0.004821  CPU:   11.039
  Cycle:      4 Energy:     -7726.546892  Gnorm:      0.004626  CPU:   14.794
  Cycle:      5 Energy:     -7726.547397  Gnorm:      0.003605  CPU:   18.126
  Cycle:      6 Energy:     -7726.547835  Gnorm:      0.004121  CPU:   21.405
  Cycle:      7 Energy:     -7726.548188  Gnorm:      0.005216  CPU:   25.045
  Cycle:      8 Energy:     -7726.548571  Gnorm:      0.005199  CPU:   27.989
  Cycle:      9 Energy:     -7726.548959  Gnorm:      0.005495  CPU:   30.748
  Cycle:     10 Energy:     -7726.549254  Gnorm:      0.004659  CPU:   33.519
  ** Hessian calculated **
  Cycle:     11 Energy:     -7726.549376  Gnorm:      0.002663  CPU:   38.487
  Cycle:     12 Energy:     -7726.549482  Gnorm:      0.003938  CPU:   41.202
  Cycle:     13 Energy:     -7726.549668  Gnorm:      0.003331  CPU:   43.136
  Cycle:     14 Energy:     -7726.549784  Gnorm:      0.003305  CPU:   45.759
  Cycle:     15 Energy:     -7726.549918  Gnorm:      0.003669  CPU:   48.533
  Cycle:     16 Energy:     -7726.550034  Gnorm:      0.002570  CPU:   51.540
  Cycle:     17 Energy:     -7726.550102  Gnorm:      0.002332  CPU:   53.917
  Cycle:     18 Energy:     -7726.550173  Gnorm:      0.002543  CPU:   56.984
  Cycle:     19 Energy:     -7726.550241  Gnorm:      0.001879  CPU:   59.000
  Cycle:     20 Energy:     -7726.550288  Gnorm:      0.002305  CPU:   62.012
  ** Hessian calculated **
  Cycle:     21 Energy:     -7726.550617  Gnorm:      0.002283  CPU:   69.058
  Cycle:     22 Energy:     -7726.551133  Gnorm:      0.002247  CPU:   73.089
  Cycle:     23 Energy:     -7726.551907  Gnorm:      0.002192  CPU:   77.857
  Cycle:     24 Energy:     -7726.552852  Gnorm:      0.002123  CPU:   82.057
  Cycle:     25 Energy:     -7726.554394  Gnorm:      0.002006  CPU:   86.220
  Cycle:     26 Energy:     -7726.556261  Gnorm:      0.001854  CPU:   89.985
  Cycle:     27 Energy:     -7726.559141  Gnorm:      0.001591  CPU:   94.543
  Cycle:     28 Energy:     -7726.562228  Gnorm:      0.001249  CPU:   98.250
  Cycle:     29 Energy:     -7726.565345  Gnorm:      0.000767  CPU:  101.737
  Cycle:     30 Energy:     -7726.567078  Gnorm:      0.000240  CPU:  105.471
  ** Hessian calculated **
  Cycle:     31 Energy:     -7726.567219  Gnorm:      0.000008  CPU:  109.982


  **** Optimisation achieved ****


  Final energy =   -7726.56721890 eV
  Final Gnorm  =       0.00000004

  Components of energy : 

--------------------------------------------------------------------------------
  Interatomic potentials     =        2063.51110919 eV
  Three-body potentials      =           0.45382744 eV
  Monopole - monopole (real) =       -6615.38937469 eV
  Monopole - monopole (recip)=       -3168.68816067 eV
  Monopole - monopole (total)=       -9784.07753536 eV
  Neutralising energy        =          -6.45462016 eV
--------------------------------------------------------------------------------
  Total lattice energy       =       -7726.56721890 eV
--------------------------------------------------------------------------------
  Total lattice energy       =         -745495.6252 kJ/(mole unit cells)
--------------------------------------------------------------------------------

  Final fractional coordinates of atoms :

--------------------------------------------------------------------------------
   No.  Atomic        x           y          z          Radius
        Label       (Frac)      (Frac)     (Frac)       (Angs) 
--------------------------------------------------------------------------------
     1  Si    c     0.699600    0.375700    0.033890    0.000000
     2  Si    c     0.623005    0.312984    0.365904    0.000000
     3  Si    c     0.670202    0.277684    0.699962    0.000000
     4  Si    c     0.291720    0.602487    0.538002    0.000000
     5  Si    c     0.380412    0.664016    0.869824    0.000000
     6  Si    c     0.327940    0.704538    0.201534    0.000000
     7  Si    c     0.386108    0.710305    0.301826    0.000000
     8  Si    c     0.324906    0.612823    0.971831    0.000000
     9  Si    c     0.288520    0.657304    0.637943    0.000000
    10  Si    c     0.620361    0.283868    0.800437    0.000000
    11  Si    c     0.666264    0.356143    0.469230    0.000000
    12  Si    c     0.707838    0.324688    0.135319    0.000000
    13  Ge    c     0.530419    0.424175    0.966603    0.000000
    14  Si    c     0.595369    0.114265    0.300926    0.000000
    15  Si    c     0.879150    0.451571    0.635600    0.000000
    16  Si    c     0.457369    0.563113    0.471154    0.000000
    17  Si    c     0.416670    0.873516    0.803979    0.000000
    18  Si    c     0.117815    0.530183    0.136276    0.000000
    19  Si    c     0.408895    0.527039    0.367235    0.000000
    20  Si    c     0.112953    0.578170    0.035167    0.000000
    21  Si    c     0.462940    0.866953    0.702800    0.000000
    22  Si    c     0.593822    0.456266    0.867668    0.000000
    23  Si    c     0.879859    0.399778    0.534548    0.000000
    24  Si    c     0.536765    0.114322    0.199957    0.000000
    25  Si    c     0.305584    0.383611    0.855241    0.000000
    26  Si    c     0.606231    0.903948    0.185994    0.000000
    27  Si    c     0.090586    0.679350    0.520751    0.000000
    28  Si    c     0.696034    0.596490    0.354501    0.000000
    29  Si    c     0.391129    0.075423    0.687855    0.000000
    30  Si    c     0.903763    0.299345    0.021281    0.000000
    31  Si    c     0.384867    0.277375    0.486466    0.000000
    32  Si    c     0.909252    0.602136    0.149654    0.000000
    33  Si    c     0.697011    0.082410    0.816916    0.000000
    34  Si    c     0.609468    0.695966    0.989700    0.000000
    35  Si    c     0.086983    0.378879    0.652412    0.000000
    36  Si    c     0.312962    0.913221    0.317611    0.000000
    37  Si    c     0.250406    0.325568    0.957266    0.000000
    38  Si    c     0.668196    0.910935    0.286082    0.000000
    39  Si    c     0.079520    0.730300    0.620871    0.000000
    40  Si    c     0.740303    0.643688    0.456970    0.000000
    41  Si    c     0.337933    0.073772    0.788284    0.000000
    42  Si    c     0.917147    0.251955    0.121643    0.000000
    43  Ge    c     0.356307    0.262290    0.386238    0.000000
    44  Si    c     0.912560    0.656640    0.048936    0.000000
    45  Si    c     0.742162    0.068966    0.716581    0.000000
    46  Si    c     0.666833    0.735600    0.886710    0.000000
    47  Si    c     0.081384    0.323251    0.551996    0.000000
    48  Si    c     0.258157    0.915258    0.216849    0.000000
    49  Si    c     0.965404    0.116429    0.971000    0.000000
    50  Si    c     0.882743    0.844089    0.303217    0.000000
    51  Si    c     0.140871    0.008874    0.638748    0.000000
    52  Ge    c     0.027049    0.865543    0.469202    0.000000
    53  Si    c     0.120571    0.136684    0.804989    0.000000
    54  Si    c     0.855660    0.972561    0.137616    0.000000
    55  Si    c     0.130616    0.979428    0.367626    0.000000
    56  Si    c     0.855083    0.879525    0.037527    0.000000
    57  Si    c     0.022468    0.132083    0.704023    0.000000
    58  Si    c     0.878008    0.017860    0.870113    0.000000
    59  Si    c     0.142931    0.106328    0.538741    0.000000
    60  Si    c     0.975482    0.847312    0.202208    0.000000
    61  O2    c     0.932633    0.999684    0.004613    0.000000
    62  O2    c     0.004834    0.922595    0.335017    0.000000
    63  O2    c     0.066071    0.049952    0.673839    0.000000
    64  O3    c     0.062335    0.986505    0.507066    0.000000
    65  O2    c     0.003266    0.059633    0.839389    0.000000
    66  O2    c     0.932499    0.931560    0.172308    0.000000
    67  O2    c     0.343901    0.590385    0.336194    0.000000
    68  O2    c     0.411024    0.740292    0.671212    0.000000
    69  O2    c     0.238809    0.652095    0.002373    0.000000
    70  O2    c     0.663004    0.412175    0.830079    0.000000
    71  O2    c     0.584639    0.239643    0.167762    0.000000
    72  O2    c     0.754972    0.321988    0.501663    0.000000
    73  O3    c     0.580203    0.337378    0.002320    0.000000
    74  O2    c     0.751959    0.400106    0.667033    0.000000
    75  O2    c     0.675443    0.240204    0.333184    0.000000
    76  O2    c     0.413651    0.639753    0.505216    0.000000
    77  O2    c     0.243610    0.581379    0.169108    0.000000
    78  O2    c     0.343023    0.748658    0.836987    0.000000
    79  O2    c     0.118113    0.207317    0.975521    0.000000
    80  O2    c     0.793655    0.909749    0.306701    0.000000
    81  O2    c     0.076835    0.854200    0.641566    0.000000
    82  O3    c     0.862341    0.763461    0.478462    0.000000
    83  O2    c     0.211659    0.072842    0.808655    0.000000
    84  O2    c     0.918084    0.126412    0.142236    0.000000
    85  O3    c     0.212398    0.128417    0.363302    0.000000
    86  O2    c     0.911715    0.783720    0.029546    0.000000
    87  O2    c     0.868209    0.067549    0.697190    0.000000
    88  O2    c     0.788167    0.863535    0.865499    0.000000
    89  O2    c     0.081119    0.198381    0.531859    0.000000
    90  O2    c     0.130147    0.913760    0.197181    0.000000
    91  O2    c     0.932615    0.847911    0.253100    0.000000
    92  O2    c     0.124957    0.054686    0.589732    0.000000
    93  O2    c     0.923647    0.059493    0.920969    0.000000
    94  O2    c     0.061295    0.123929    0.755377    0.000000
    95  O2    c     0.875374    0.931232    0.088259    0.000000
    96  O3    c     0.065900    0.926288    0.416537    0.000000
    97  O2    c     0.896515    0.198609    0.982818    0.000000
    98  O2    c     0.795655    0.693954    0.317436    0.000000
    99  O2    c     0.293124    0.075250    0.649590    0.000000
   100  O3    c     0.099375    0.775315    0.481259    0.000000
   101  O2    c     0.207044    0.288114    0.816736    0.000000
   102  O2    c     0.702639    0.903172    0.147506    0.000000
   103  O2    c     0.219770    0.914797    0.356738    0.000000
   104  O2    c     0.702656    0.807075    0.025450    0.000000
   105  O2    c     0.090088    0.282697    0.690802    0.000000
   106  O2    c     0.797162    0.086629    0.855079    0.000000
   107  O2    c     0.296096    0.187669    0.528222    0.000000
   108  O2    c     0.907131    0.698514    0.187504    0.000000
   109  O2    c     0.328883    0.648907    0.252034    0.000000
   110  O2    c     0.348207    0.658104    0.588374    0.000000
   111  O2    c     0.325975    0.661061    0.920002    0.000000
   112  O2    c     0.674209    0.336201    0.749839    0.000000
   113  O2    c     0.650811    0.325314    0.085515    0.000000
   114  O2    c     0.668618    0.307653    0.418250    0.000000
   115  O3    c     0.363723    0.307649    0.976372    0.000000
   116  O2    c     0.682804    0.045420    0.303695    0.000000
   117  O2    c     0.946857    0.607345    0.638687    0.000000
   118  O2    c     0.613154    0.646890    0.472996    0.000000
   119  O2    c     0.329556    0.942560    0.807606    0.000000
   120  O2    c     0.049918    0.374216    0.140152    0.000000
   121  O3    c     0.320213    0.376090    0.361244    0.000000
   122  O2    c     0.046656    0.668005    0.031120    0.000000
   123  O2    c     0.619314    0.935121    0.699416    0.000000
   124  O2    c     0.676823    0.614707    0.867465    0.000000
   125  O2    c     0.949884    0.313708    0.532238    0.000000
   126  O2    c     0.380134    0.045600    0.197321    0.000000
   127  O2    c     0.770928    0.300171    0.014113    0.000000
   128  O2    c     0.693978    0.461678    0.348304    0.000000
   129  O2    c     0.524875    0.208096    0.679024    0.000000
   130  O2    c     0.224044    0.677256    0.515344    0.000000
   131  O2    c     0.309198    0.519792    0.849247    0.000000
   132  O2    c     0.470565    0.771830    0.178655    0.000000
   133  O2    c     0.311390    0.778198    0.323985    0.000000
   134  O2    c     0.470582    0.690779    0.991712    0.000000
   135  O2    c     0.219463    0.514083    0.660185    0.000000
   136  O2    c     0.694559    0.215103    0.823641    0.000000
   137  O2    c     0.522903    0.280632    0.490889    0.000000
   138  O2    c     0.777089    0.467325    0.157831    0.000000
   139  O2    c     0.788860    0.532083    0.028553    0.000000
   140  O3    c     0.470636    0.234875    0.358108    0.000000
   141  O2    c     0.741872    0.193317    0.695513    0.000000
   142  O2    c     0.209827    0.447198    0.533399    0.000000
   143  O2    c     0.534988    0.727399    0.868925    0.000000
   144  O2    c     0.254525    0.787463    0.197946    0.000000
   145  O2    c     0.542691    0.786723    0.306592    0.000000
   146  O2    c     0.260822    0.458805    0.975046    0.000000
   147  O2    c     0.206323    0.731575    0.640992    0.000000
   148  O2    c     0.464134    0.202209    0.806221    0.000000
   149  O2    c     0.728939    0.509941    0.472845    0.000000
   150  O2    c     0.790579    0.251138    0.140511    0.000000
   151  O2    c     0.239007    0.315150    0.902168    0.000000
   152  O2    c     0.682991    0.906730    0.231901    0.000000
   153  O2    c     0.082562    0.750657    0.566501    0.000000
   154  O2    c     0.758449    0.660613    0.402817    0.000000
   155  O2    c     0.317718    0.072460    0.734126    0.000000
   156  O2    c     0.913845    0.231099    0.067507    0.000000
   157  O3    c     0.305348    0.202400    0.442698    0.000000
   158  O2    c     0.910685    0.674298    0.103067    0.000000
   159  O2    c     0.765011    0.075881    0.770664    0.000000
   160  O2    c     0.681043    0.751398    0.940765    0.000000
   161  O2    c     0.081857    0.304881    0.606235    0.000000
   162  O2    c     0.243574    0.919290    0.271027    0.000000
   163  O3    c     0.601362    0.564876    0.002522    0.000000
   164  O2    c     0.456501    0.032839    0.325389    0.000000
   165  O2    c     0.961529    0.393653    0.660168    0.000000
   166  O2    c     0.403669    0.420563    0.492243    0.000000
   167  O2    c     0.559046    0.955573    0.826648    0.000000
   168  O2    c     0.036118    0.590217    0.158909    0.000000
   169  O2    c     0.555018    0.580046    0.348013    0.000000
   170  O2    c     0.030879    0.437491    0.011561    0.000000
   171  O2    c     0.404477    0.949798    0.679447    0.000000
   172  O2    c     0.447186    0.403298    0.847934    0.000000
   173  O2    c     0.962677    0.541194    0.511709    0.000000
   174  O2    c     0.593163    0.029849    0.177071    0.000000
   175  O2    c     0.592267    0.167581    0.250496    0.000000
   176  O2    c     0.825357    0.398506    0.584918    0.000000
   177  O3    c     0.601384    0.401779    0.915694    0.000000
   178  O2    c     0.411965    0.815958    0.753848    0.000000
   179  O2    c     0.171876    0.581672    0.085411    0.000000
   180  O2    c     0.407055    0.567187    0.420385    0.000000
   181  F     c     0.462133    0.906698    0.251411    0.000000
   182  F     c     0.085823    0.529470    0.586378    0.000000
   183  F     c     0.475709    0.514876    0.929429    0.000000
   184  F     c     0.541944    0.075312    0.752590    0.000000
   185  F     c     0.916032    0.454716    0.085590    0.000000
   186  F     c     0.502296    0.403610    0.414563    0.000000
   187  O2    s     0.927525    0.999326    0.004514    0.000000
   188  O2    s     0.003906    0.919441    0.334737    0.000000
   189  O2    s     0.069465    0.054574    0.673333    0.000000
   190  O3    s     0.068099    0.989135    0.507241    0.000000
   191  O2    s     0.002546    0.063595    0.838936    0.000000
   192  O2    s     0.928717    0.926719    0.171770    0.000000
   193  O2    s     0.355334    0.596091    0.335946    0.000000
   194  O2    s     0.403801    0.744873    0.671052    0.000000
   195  O2    s     0.235522    0.640578    0.002347    0.000000
   196  O2    s     0.651604    0.403280    0.830763    0.000000
   197  O2    s     0.592247    0.235314    0.167788    0.000000
   198  O2    s     0.758479    0.333494    0.501632    0.000000
   199  O3    s     0.589888    0.347692    0.003295    0.000000
   200  O2    s     0.756544    0.392681    0.667231    0.000000
   201  O2    s     0.662299    0.235082    0.333295    0.000000
   202  O2    s     0.405590    0.627973    0.505094    0.000000
   203  O2    s     0.239450    0.588860    0.169111    0.000000
   204  O2    s     0.354456    0.752324    0.837135    0.000000
   205  O2    s     0.115484    0.210166    0.973001    0.000000
   206  O2    s     0.790055    0.902838    0.304202    0.000000
   207  O2    s     0.083865    0.857770    0.639161    0.000000
   208  O3    s     0.862051    0.758623    0.475491    0.000000
   209  O2    s     0.215036    0.079713    0.806187    0.000000
   210  O2    s     0.911338    0.122942    0.139649    0.000000
   211  O3    s     0.212607    0.120334    0.365280    0.000000
   212  O2    s     0.905816    0.780926    0.032328    0.000000
   213  O2    s     0.871522    0.074523    0.699887    0.000000
   214  O2    s     0.785093    0.866592    0.868160    0.000000
   215  O2    s     0.087680    0.202037    0.534715    0.000000
   216  O2    s     0.126953    0.906866    0.199722    0.000000
   217  O2    s     0.931794    0.847420    0.253029    0.000000
   218  O2    s     0.128803    0.055151    0.589716    0.000000
   219  O2    s     0.923052    0.061045    0.920688    0.000000
   220  O2    s     0.063641    0.126266    0.755223    0.000000
   221  O2    s     0.870873    0.929999    0.088022    0.000000
   222  O3    s     0.068560    0.925755    0.416736    0.000000
   223  O2    s     0.904686    0.199757    0.985363    0.000000
   224  O2    s     0.794039    0.699124    0.319915    0.000000
   225  O2    s     0.287013    0.068151    0.652411    0.000000
   226  O3    s     0.092605    0.773220    0.484170    0.000000
   227  O2    s     0.208063    0.282001    0.819444    0.000000
   228  O2    s     0.709015    0.910555    0.150346    0.000000
   229  O2    s     0.220635    0.920993    0.353772    0.000000
   230  O2    s     0.709140    0.803426    0.023089    0.000000
   231  O2    s     0.082613    0.276574    0.688281    0.000000
   232  O2    s     0.795423    0.078801    0.852707    0.000000
   233  O2    s     0.289066    0.188125    0.525203    0.000000
   234  O2    s     0.914734    0.704614    0.185169    0.000000
   235  O2    s     0.334618    0.660787    0.251955    0.000000
   236  O2    s     0.336394    0.652357    0.588271    0.000000
   237  O2    s     0.331605    0.656517    0.919924    0.000000
   238  O2    s     0.668206    0.324661    0.749903    0.000000
   239  O2    s     0.661719    0.330273    0.085671    0.000000
   240  O2    s     0.663918    0.313190    0.418503    0.000000
   241  O3    s     0.362603    0.317387    0.973615    0.000000
   242  O2    s     0.672199    0.038453    0.301546    0.000000
   243  O2    s     0.953668    0.604054    0.636502    0.000000
   244  O2    s     0.610268    0.637730    0.471096    0.000000
   245  O2    s     0.339431    0.948991    0.805224    0.000000
   246  O2    s     0.043094    0.377484    0.137824    0.000000
   247  O3    s     0.332005    0.383701    0.363664    0.000000
   248  O2    s     0.039826    0.657662    0.033353    0.000000
   249  O2    s     0.616078    0.942071    0.701562    0.000000
   250  O2    s     0.667806    0.612175    0.869513    0.000000
   251  O2    s     0.956354    0.323705    0.534561    0.000000
   252  O2    s     0.383431    0.039012    0.199639    0.000000
   253  O2    s     0.778496    0.307631    0.016919    0.000000
   254  O2    s     0.686970    0.460911    0.350782    0.000000
   255  O2    s     0.525786    0.201268    0.682159    0.000000
   256  O2    s     0.217048    0.669514    0.518378    0.000000
   257  O2    s     0.316262    0.520681    0.852029    0.000000
   258  O2    s     0.470372    0.778942    0.181794    0.000000
   259  O2    s     0.319353    0.785370    0.320961    0.000000
   260  O2    s     0.469299    0.683104    0.989382    0.000000
   261  O2    s     0.212635    0.514616    0.657050    0.000000
   262  O2    s     0.687178    0.208112    0.820517    0.000000
   263  O2    s     0.523984    0.288133    0.488161    0.000000
   264  O2    s     0.783910    0.466875    0.154633    0.000000
   265  O2    s     0.793910    0.530357    0.031304    0.000000
   266  O3    s     0.477819    0.245019    0.360942    0.000000
   267  O2    s     0.734331    0.188561    0.698222    0.000000
   268  O2    s     0.204423    0.450134    0.535887    0.000000
   269  O2    s     0.532397    0.721348    0.870921    0.000000
   270  O2    s     0.262726    0.792696    0.200353    0.000000
   271  O2    s     0.539977    0.792229    0.303914    0.000000
   272  O2    s     0.266874    0.461883    0.972884    0.000000
   273  O2    s     0.201195    0.723582    0.638531    0.000000
   274  O2    s     0.466595    0.196676    0.803723    0.000000
   275  O2    s     0.723382    0.507952    0.470747    0.000000
   276  O2    s     0.795840    0.258953    0.137953    0.000000
   277  O2    s     0.247396    0.323625    0.902586    0.000000
   278  O2    s     0.673445    0.906889    0.232884    0.000000
   279  O2    s     0.083012    0.741412    0.567555    0.000000
   280  O2    s     0.750024    0.652112    0.403444    0.000000
   281  O2    s     0.327522    0.072893    0.735064    0.000000
   282  O2    s     0.913183    0.240377    0.068412    0.000000
   283  O3    s     0.316867    0.213975    0.443453    0.000000
   284  O2    s     0.910741    0.664802    0.102252    0.000000
   285  O2    s     0.755384    0.075834    0.769773    0.000000
   286  O2    s     0.672587    0.744269    0.939597    0.000000
   287  O2    s     0.082337    0.314681    0.605397    0.000000
   288  O2    s     0.252373    0.918258    0.270135    0.000000
   289  O3    s     0.597371    0.569967    0.998775    0.000000
   290  O2    s     0.455607    0.028239    0.321975    0.000000
   291  O2    s     0.966665    0.398224    0.656797    0.000000
   292  O2    s     0.407528    0.420798    0.489387    0.000000
   293  O2    s     0.558788    0.960563    0.823240    0.000000
   294  O2    s     0.030811    0.585072    0.155539    0.000000
   295  O2    s     0.555942    0.576398    0.350652    0.000000
   296  O2    s     0.025870    0.437479    0.015012    0.000000
   297  O2    s     0.409367    0.954815    0.682823    0.000000
   298  O2    s     0.445993    0.406474    0.850703    0.000000
   299  O2    s     0.967574    0.540971    0.515044    0.000000
   300  O2    s     0.588498    0.024937    0.180433    0.000000
   301  O2    s     0.586851    0.156520    0.250530    0.000000
   302  O2    s     0.836598    0.404145    0.584931    0.000000
   303  O3    s     0.596043    0.409046    0.913837    0.000000
   304  O2    s     0.417709    0.827200    0.753793    0.000000
   305  O2    s     0.160290    0.576044    0.085427    0.000000
   306  O2    s     0.412493    0.562846    0.420598    0.000000
   307  F     s     0.462194    0.906213    0.251442    0.000000
   308  F     s     0.085967    0.529605    0.586356    0.000000
   309  F     s     0.479740    0.508623    0.931980    0.000000
   310  F     s     0.541912    0.075310    0.752635    0.000000
   311  F     s     0.916713    0.454996    0.085624    0.000000
   312  F     s     0.493284    0.394696    0.412951    0.000000
--------------------------------------------------------------------------------

  Final Cartesian lattice vectors (Angstroms) :

       11.947910    0.004076   -0.009958
       -5.978850   10.386992    0.006664
       -0.220312    0.052252   29.534499


  Final cell parameters and derivatives :

--------------------------------------------------------------------------------
       a           11.947915 Angstrom     dE/de1(xx)     0.000001 eV/strain
       b           11.984836 Angstrom     dE/de2(yy)     0.000004 eV/strain
       c           29.535367 Angstrom     dE/de3(zz)    -0.000003 eV/strain
       alpha       89.667082 Degrees      dE/de4(yz)    -0.000001 eV/strain
       beta        90.475107 Degrees      dE/de5(xz)    -0.000000 eV/strain
       gamma      119.905607 Degrees      dE/de6(xy)     0.000000 eV/strain
--------------------------------------------------------------------------------

  Primitive cell volume =          3666.011004 Angs**3

  Density of cell =      1.745246 g/cm**3

  Non-primitive cell volume =          3666.011004 Angs**3


  Final internal derivatives :

--------------------------------------------------------------------------------
   No.  Atomic          a             b             c           Radius
        Label          (eV)          (eV)          (eV)        (eV/Angs)
--------------------------------------------------------------------------------
      1 Si    c       0.000000      0.000000      0.000000      0.000000
      2 Si    c       0.000001     -0.000001      0.000001      0.000000
      3 Si    c       0.000000      0.000000      0.000001      0.000000
      4 Si    c       0.000000      0.000000     -0.000001      0.000000
      5 Si    c      -0.000000      0.000000      0.000000      0.000000
      6 Si    c       0.000000     -0.000000      0.000001      0.000000
      7 Si    c      -0.000001     -0.000001     -0.000001      0.000000
      8 Si    c       0.000001      0.000000     -0.000002      0.000000
      9 Si    c       0.000000      0.000000      0.000000      0.000000
     10 Si    c       0.000000      0.000000     -0.000000      0.000000
     11 Si    c       0.000001     -0.000001     -0.000000      0.000000
     12 Si    c      -0.000000      0.000001     -0.000003      0.000000
     13 Ge    c       0.000005     -0.000001      0.000007      0.000000
     14 Si    c       0.000000      0.000001     -0.000000      0.000000
     15 Si    c       0.000000     -0.000000     -0.000000      0.000000
     16 Si    c      -0.000001      0.000001      0.000000      0.000000
     17 Si    c      -0.000000      0.000000     -0.000001      0.000000
     18 Si    c      -0.000000      0.000001      0.000001      0.000000
     19 Si    c      -0.000001      0.000002     -0.000002      0.000000
     20 Si    c      -0.000001      0.000001      0.000001      0.000000
     21 Si    c      -0.000000     -0.000000      0.000000      0.000000
     22 Si    c       0.000000     -0.000001      0.000002      0.000000
     23 Si    c      -0.000000     -0.000000     -0.000000      0.000000
     24 Si    c       0.000000     -0.000000      0.000001      0.000000
     25 Si    c      -0.000000     -0.000000      0.000002      0.000000
     26 Si    c       0.000000      0.000000      0.000000      0.000000
     27 Si    c       0.000000      0.000000     -0.000000      0.000000
     28 Si    c       0.000000      0.000000      0.000003      0.000000
     29 Si    c      -0.000000     -0.000000      0.000000      0.000000
     30 Si    c      -0.000002      0.000001      0.000000      0.000000
     31 Si    c       0.000000     -0.000000     -0.000005      0.000000
     32 Si    c       0.000000     -0.000000     -0.000001      0.000000
     33 Si    c       0.000001     -0.000000      0.000000      0.000000
     34 Si    c       0.000000     -0.000000     -0.000003      0.000000
     35 Si    c      -0.000000     -0.000000     -0.000000      0.000000
     36 Si    c      -0.000001      0.000000      0.000000      0.000000
     37 Si    c       0.000000      0.000000     -0.000000      0.000000
     38 Si    c       0.000001     -0.000000     -0.000001      0.000000
     39 Si    c       0.000000      0.000000     -0.000001      0.000000
     40 Si    c      -0.000000      0.000000     -0.000002      0.000000
     41 Si    c      -0.000000      0.000000     -0.000001      0.000000
     42 Si    c      -0.000000     -0.000000     -0.000001      0.000000
     43 Ge    c      -0.000001     -0.000001      0.000002      0.000000
     44 Si    c       0.000001     -0.000000      0.000002      0.000000
     45 Si    c       0.000000     -0.000000      0.000001      0.000000
     46 Si    c       0.000000      0.000000      0.000001      0.000000
     47 Si    c      -0.000000     -0.000000      0.000001      0.000000
     48 Si    c      -0.000001      0.000000      0.000000      0.000000
     49 Si    c      -0.000002      0.000001     -0.000007      0.000000
     50 Si    c      -0.000000      0.000000     -0.000002      0.000000
     51 Si    c      -0.000000      0.000000     -0.000001      0.000000
     52 Ge    c       0.000001     -0.000000     -0.000003      0.000000
     53 Si    c      -0.000001     -0.000000     -0.000001      0.000000
     54 Si    c       0.000000     -0.000001     -0.000001      0.000000
     55 Si    c      -0.000000     -0.000000      0.000006      0.000000
     56 Si    c      -0.000002     -0.000001      0.000009      0.000000
     57 Si    c       0.000000     -0.000000      0.000000      0.000000
     58 Si    c      -0.000000      0.000001      0.000003      0.000000
     59 Si    c      -0.000000     -0.000000      0.000002      0.000000
     60 Si    c      -0.000000     -0.000000      0.000004      0.000000
     61 O2    c       0.000006     -0.000001     -0.000008      0.000000
     62 O2    c      -0.000000      0.000000      0.000000      0.000000
     63 O2    c      -0.000000      0.000000      0.000000      0.000000
     64 O3    c       0.000000      0.000000      0.000000      0.000000
     65 O2    c       0.000000      0.000000     -0.000000      0.000000
     66 O2    c       0.000000      0.000000     -0.000000      0.000000
     67 O2    c       0.000001     -0.000001      0.000002      0.000000
     68 O2    c      -0.000000     -0.000000     -0.000000      0.000000
     69 O2    c      -0.000001      0.000000      0.000001      0.000000
     70 O2    c      -0.000000      0.000000      0.000001      0.000000
     71 O2    c      -0.000000     -0.000000      0.000001      0.000000
     72 O2    c      -0.000000      0.000000     -0.000001      0.000000
     73 O3    c      -0.000007      0.000007     -0.000014      0.000000
     74 O2    c      -0.000000      0.000000     -0.000000      0.000000
     75 O2    c      -0.000001      0.000001      0.000001      0.000000
     76 O2    c       0.000000     -0.000000     -0.000000      0.000000
     77 O2    c      -0.000000     -0.000000     -0.000001      0.000000
     78 O2    c      -0.000000     -0.000000      0.000001      0.000000
     79 O2    c       0.000001      0.000000      0.000001      0.000000
     80 O2    c       0.000000     -0.000000     -0.000000      0.000000
     81 O2    c      -0.000000     -0.000000      0.000000      0.000000
     82 O3    c       0.000001      0.000000     -0.000000      0.000000
     83 O2    c       0.000000     -0.000000     -0.000000      0.000000
     84 O2    c       0.000000      0.000000      0.000001      0.000000
     85 O3    c       0.000001     -0.000001      0.000002      0.000000
     86 O2    c       0.000001     -0.000004     -0.000001      0.000000
     87 O2    c      -0.000000     -0.000000     -0.000000      0.000000
     88 O2    c       0.000000      0.000000     -0.000000      0.000000
     89 O2    c       0.000000     -0.000000     -0.000000      0.000000
     90 O2    c       0.000000     -0.000000      0.000000      0.000000
     91 O2    c       0.000001      0.000000     -0.000006      0.000000
     92 O2    c       0.000000      0.000000     -0.000002      0.000000
     93 O2    c       0.000000     -0.000000     -0.000000      0.000000
     94 O2    c       0.000001     -0.000000      0.000003      0.000000
     95 O2    c       0.000001      0.000000     -0.000001      0.000000
     96 O3    c       0.000000      0.000001     -0.000006      0.000000
     97 O2    c      -0.000002      0.000002      0.000003      0.000000
     98 O2    c       0.000000      0.000000     -0.000000      0.000000
     99 O2    c       0.000000     -0.000000      0.000000      0.000000
    100 O3    c      -0.000001      0.000001     -0.000000      0.000000
    101 O2    c       0.000000      0.000000      0.000000      0.000000
    102 O2    c      -0.000000      0.000000     -0.000000      0.000000
    103 O2    c      -0.000001      0.000000     -0.000000      0.000000
    104 O2    c      -0.000002      0.000001     -0.000002      0.000000
    105 O2    c       0.000000      0.000000     -0.000000      0.000000
    106 O2    c      -0.000000     -0.000000     -0.000000      0.000000
    107 O2    c      -0.000000     -0.000000      0.000001      0.000000
    108 O2    c      -0.000000     -0.000000      0.000000      0.000000
    109 O2    c       0.000000      0.000000      0.000002      0.000000
    110 O2    c      -0.000000     -0.000000      0.000000      0.000000
    111 O2    c       0.000000     -0.000000      0.000001      0.000000
    112 O2    c      -0.000000     -0.000000      0.000001      0.000000
    113 O2    c       0.000000     -0.000000      0.000002      0.000000
    114 O2    c      -0.000000      0.000001     -0.000001      0.000000
    115 O3    c      -0.000000      0.000000     -0.000002      0.000000
    116 O2    c       0.000000     -0.000000      0.000000      0.000000
    117 O2    c      -0.000000      0.000000      0.000000      0.000000
    118 O2    c       0.000000     -0.000000      0.000000      0.000000
    119 O2    c       0.000000     -0.000000      0.000000      0.000000
    120 O2    c       0.000000     -0.000000      0.000000      0.000000
    121 O3    c      -0.000000     -0.000001      0.000001      0.000000
    122 O2    c       0.000000     -0.000001      0.000000      0.000000
    123 O2    c       0.000000     -0.000000     -0.000000      0.000000
    124 O2    c      -0.000000      0.000000     -0.000000      0.000000
    125 O2    c      -0.000000      0.000000      0.000000      0.000000
    126 O2    c      -0.000000      0.000000     -0.000000      0.000000
    127 O2    c       0.000000      0.000001      0.000001      0.000000
    128 O2    c       0.000000      0.000000     -0.000000      0.000000
    129 O2    c       0.000000      0.000000     -0.000000      0.000000
    130 O2    c       0.000000     -0.000000      0.000000      0.000000
    131 O2    c      -0.000000     -0.000000     -0.000000      0.000000
    132 O2    c      -0.000000     -0.000000     -0.000000      0.000000
    133 O2    c       0.000000     -0.000000     -0.000000      0.000000
    134 O2    c      -0.000001      0.000000     -0.000000      0.000000
    135 O2    c       0.000000     -0.000000      0.000001      0.000000
    136 O2    c      -0.000000      0.000000     -0.000000      0.000000
    137 O2    c      -0.000000      0.000000      0.000000      0.000000
    138 O2    c      -0.000000     -0.000000     -0.000000      0.000000
    139 O2    c       0.000001     -0.000000     -0.000001      0.000000
    140 O3    c      -0.000001      0.000000      0.000001      0.000000
    141 O2    c      -0.000000      0.000000     -0.000000      0.000000
    142 O2    c       0.000000     -0.000000     -0.000000      0.000000
    143 O2    c       0.000000     -0.000000     -0.000000      0.000000
    144 O2    c       0.000000     -0.000000     -0.000000      0.000000
    145 O2    c      -0.000000     -0.000000      0.000000      0.000000
    146 O2    c       0.000000     -0.000001     -0.000001      0.000000
    147 O2    c      -0.000000     -0.000000      0.000000      0.000000
    148 O2    c       0.000000      0.000000      0.000000      0.000000
    149 O2    c      -0.000000      0.000000      0.000000      0.000000
    150 O2    c      -0.000000      0.000000      0.000000      0.000000
    151 O2    c       0.000000      0.000000     -0.000001      0.000000
    152 O2    c      -0.000000      0.000000      0.000000      0.000000
    153 O2    c      -0.000000     -0.000000      0.000000      0.000000
    154 O2    c      -0.000000     -0.000000     -0.000000      0.000000
    155 O2    c       0.000000     -0.000000     -0.000000      0.000000
    156 O2    c      -0.000000      0.000000      0.000001      0.000000
    157 O3    c       0.000001      0.000001     -0.000001      0.000000
    158 O2    c       0.000000     -0.000000      0.000000      0.000000
    159 O2    c      -0.000000     -0.000000     -0.000000      0.000000
    160 O2    c      -0.000000      0.000000      0.000002      0.000000
    161 O2    c       0.000000     -0.000000     -0.000000      0.000000
    162 O2    c       0.000000     -0.000000      0.000001      0.000000
    163 O3    c       0.000001     -0.000002      0.000002      0.000000
    164 O2    c       0.000000      0.000000      0.000001      0.000000
    165 O2    c      -0.000000      0.000000     -0.000000      0.000000
    166 O2    c       0.000000     -0.000000      0.000000      0.000000
    167 O2    c      -0.000000     -0.000000      0.000000      0.000000
    168 O2    c       0.000000     -0.000000     -0.000001      0.000000
    169 O2    c      -0.000000      0.000000      0.000000      0.000000
    170 O2    c       0.000000      0.000000     -0.000001      0.000000
    171 O2    c       0.000000     -0.000000     -0.000000      0.000000
    172 O2    c       0.000000     -0.000000      0.000000      0.000000
    173 O2    c      -0.000000      0.000000     -0.000000      0.000000
    174 O2    c       0.000000     -0.000000      0.000000      0.000000
    175 O2    c       0.000000     -0.000000      0.000000      0.000000
    176 O2    c       0.000000     -0.000000     -0.000000      0.000000
    177 O3    c      -0.000001      0.000002      0.000000      0.000000
    178 O2    c      -0.000000      0.000000      0.000001      0.000000
    179 O2    c      -0.000000      0.000000     -0.000000      0.000000
    180 O2    c       0.000000     -0.000000     -0.000001      0.000000
    181 F     c      -0.000000      0.000000     -0.000001      0.000000
    182 F     c      -0.000000     -0.000000      0.000000      0.000000
    183 F     c      -0.000000     -0.000000     -0.000001      0.000000
    184 F     c       0.000000     -0.000000     -0.000000      0.000000
    185 F     c      -0.000000      0.000000     -0.000000      0.000000
    186 F     c       0.000000      0.000000      0.000001      0.000000
    187 O2    s       0.000002     -0.000001      0.000001      0.000000
    188 O2    s       0.000000      0.000000      0.000000      0.000000
    189 O2    s       0.000000     -0.000000     -0.000000      0.000000
    190 O3    s      -0.000000      0.000000      0.000000      0.000000
    191 O2    s      -0.000000      0.000000     -0.000001      0.000000
    192 O2    s       0.000000     -0.000001      0.000002      0.000000
    193 O2    s      -0.000001      0.000001     -0.000000      0.000000
    194 O2    s       0.000000     -0.000000     -0.000000      0.000000
    195 O2    s      -0.000000     -0.000000     -0.000001      0.000000
    196 O2    s       0.000000     -0.000000     -0.000000      0.000000
    197 O2    s       0.000000      0.000000     -0.000000      0.000000
    198 O2    s       0.000000     -0.000000      0.000000      0.000000
    199 O3    s       0.000004     -0.000005      0.000006      0.000000
    200 O2    s       0.000000      0.000000      0.000000      0.000000
    201 O2    s       0.000000      0.000000      0.000001      0.000000
    202 O2    s      -0.000000      0.000001     -0.000000      0.000000
    203 O2    s       0.000000      0.000000     -0.000000      0.000000
    204 O2    s      -0.000000      0.000000     -0.000000      0.000000
    205 O2    s       0.000000      0.000000     -0.000002      0.000000
    206 O2    s      -0.000000      0.000000      0.000000      0.000000
    207 O2    s      -0.000000      0.000000     -0.000000      0.000000
    208 O3    s       0.000000     -0.000001      0.000001      0.000000
    209 O2    s      -0.000000      0.000000      0.000000      0.000000
    210 O2    s      -0.000000      0.000001     -0.000000      0.000000
    211 O3    s       0.000000     -0.000001     -0.000003      0.000000
    212 O2    s       0.000002     -0.000001      0.000002      0.000000
    213 O2    s       0.000000     -0.000000     -0.000000      0.000000
    214 O2    s      -0.000000      0.000000     -0.000000      0.000000
    215 O2    s       0.000000     -0.000000     -0.000000      0.000000
    216 O2    s      -0.000000     -0.000000      0.000000      0.000000
    217 O2    s      -0.000000      0.000000      0.000002      0.000000
    218 O2    s      -0.000000     -0.000000     -0.000000      0.000000
    219 O2    s       0.000000      0.000000     -0.000003      0.000000
    220 O2    s      -0.000000      0.000000     -0.000000      0.000000
    221 O2    s      -0.000001      0.000000      0.000004      0.000000
    222 O3    s       0.000000     -0.000001      0.000004      0.000000
    223 O2    s      -0.000002      0.000001     -0.000001      0.000000
    224 O2    s      -0.000000     -0.000000      0.000000      0.000000
    225 O2    s      -0.000000      0.000000      0.000000      0.000000
    226 O3    s       0.000000     -0.000000     -0.000001      0.000000
    227 O2    s      -0.000000     -0.000000      0.000000      0.000000
    228 O2    s       0.000000     -0.000000      0.000001      0.000000
    229 O2    s      -0.000000      0.000000      0.000001      0.000000
    230 O2    s      -0.000003      0.000001      0.000003      0.000000
    231 O2    s       0.000000     -0.000000      0.000000      0.000000
    232 O2    s       0.000000     -0.000000      0.000000      0.000000
    233 O2    s      -0.000000     -0.000000     -0.000000      0.000000
    234 O2    s       0.000000      0.000000      0.000001      0.000000
    235 O2    s       0.000000     -0.000001     -0.000001      0.000000
    236 O2    s       0.000000     -0.000000     -0.000000      0.000000
    237 O2    s       0.000000     -0.000000      0.000001      0.000000
    238 O2    s       0.000000      0.000000     -0.000000      0.000000
    239 O2    s      -0.000000     -0.000000      0.000000      0.000000
    240 O2    s      -0.000000     -0.000000     -0.000000      0.000000
    241 O3    s       0.000000     -0.000000      0.000003      0.000000
    242 O2    s      -0.000000      0.000000     -0.000000      0.000000
    243 O2    s       0.000000     -0.000000     -0.000000      0.000000
    244 O2    s      -0.000000      0.000000     -0.000000      0.000000
    245 O2    s      -0.000000      0.000000      0.000000      0.000000
    246 O2    s      -0.000000      0.000000     -0.000001      0.000000
    247 O3    s       0.000001      0.000001     -0.000001      0.000000
    248 O2    s       0.000000      0.000000     -0.000001      0.000000
    249 O2    s      -0.000000      0.000000      0.000000      0.000000
    250 O2    s      -0.000000     -0.000000     -0.000000      0.000000
    251 O2    s      -0.000000     -0.000000     -0.000000      0.000000
    252 O2    s       0.000000     -0.000000      0.000001      0.000000
    253 O2    s       0.000001     -0.000002     -0.000001      0.000000
    254 O2    s      -0.000000     -0.000000      0.000000      0.000000
    255 O2    s      -0.000000     -0.000000      0.000000      0.000000
    256 O2    s       0.000000      0.000000     -0.000000      0.000000
    257 O2    s      -0.000000     -0.000000     -0.000000      0.000000
    258 O2    s      -0.000000      0.000000      0.000000      0.000000
    259 O2    s      -0.000000      0.000000      0.000001      0.000000
    260 O2    s      -0.000000      0.000000     -0.000001      0.000000
    261 O2    s      -0.000000      0.000000     -0.000001      0.000000
    262 O2    s       0.000000     -0.000000      0.000000      0.000000
    263 O2    s       0.000000     -0.000000      0.000000      0.000000
    264 O2    s       0.000000     -0.000000      0.000000      0.000000
    265 O2    s      -0.000003      0.000003     -0.000002      0.000000
    266 O3    s       0.000001     -0.000000      0.000000      0.000000
    267 O2    s       0.000000     -0.000000      0.000000      0.000000
    268 O2    s       0.000000     -0.000000      0.000000      0.000000
    269 O2    s      -0.000000      0.000000      0.000000      0.000000
    270 O2    s      -0.000000      0.000000      0.000000      0.000000
    271 O2    s       0.000000     -0.000000      0.000000      0.000000
    272 O2    s       0.000000      0.000000     -0.000000      0.000000
    273 O2    s       0.000000     -0.000000      0.000000      0.000000
    274 O2    s      -0.000000     -0.000000      0.000000      0.000000
    275 O2    s       0.000000     -0.000000     -0.000000      0.000000
    276 O2    s       0.000000      0.000000     -0.000000      0.000000
    277 O2    s      -0.000000     -0.000000     -0.000000      0.000000
    278 O2    s       0.000000      0.000000      0.000000      0.000000
    279 O2    s      -0.000000     -0.000000      0.000001      0.000000
    280 O2    s       0.000000      0.000000     -0.000001      0.000000
    281 O2    s      -0.000000      0.000000      0.000000      0.000000
    282 O2    s       0.000000     -0.000000     -0.000000      0.000000
    283 O3    s      -0.000001     -0.000002      0.000003      0.000000
    284 O2    s      -0.000000      0.000001      0.000000      0.000000
    285 O2    s      -0.000000      0.000000      0.000000      0.000000
    286 O2    s      -0.000000     -0.000000     -0.000003      0.000000
    287 O2    s       0.000000     -0.000000      0.000000      0.000000
    288 O2    s       0.000000     -0.000000     -0.000000      0.000000
    289 O3    s      -0.000001      0.000003     -0.000003      0.000000
    290 O2    s       0.000000     -0.000000     -0.000002      0.000000
    291 O2    s      -0.000000     -0.000000      0.000001      0.000000
    292 O2    s      -0.000000      0.000000      0.000000      0.000000
    293 O2    s      -0.000000      0.000000     -0.000000      0.000000
    294 O2    s      -0.000000      0.000000      0.000002      0.000000
    295 O2    s       0.000000     -0.000000      0.000000      0.000000
    296 O2    s      -0.000000      0.000000      0.000002      0.000000
    297 O2    s       0.000000      0.000000     -0.000000      0.000000
    298 O2    s      -0.000000     -0.000000     -0.000001      0.000000
    299 O2    s       0.000000     -0.000000      0.000000      0.000000
    300 O2    s      -0.000000      0.000000      0.000000      0.000000
    301 O2    s       0.000000      0.000000      0.000000      0.000000
    302 O2    s      -0.000000     -0.000000      0.000000      0.000000
    303 O3    s       0.000001     -0.000002      0.000000      0.000000
    304 O2    s       0.000000     -0.000000     -0.000001      0.000000
    305 O2    s       0.000000     -0.000000     -0.000001      0.000000
    306 O2    s      -0.000000      0.000000     -0.000000      0.000000
    307 F     s       0.000000     -0.000000      0.000001      0.000000
    308 F     s       0.000000      0.000000     -0.000000      0.000000
    309 F     s      -0.000001      0.000002     -0.000000      0.000000
    310 F     s      -0.000000      0.000000      0.000000      0.000000
    311 F     s       0.000000     -0.000001      0.000001      0.000000
    312 F     s       0.000001      0.000000     -0.000000      0.000000
--------------------------------------------------------------------------------
  Maximum abs         0.000007      0.000007      0.000014      0.000000
--------------------------------------------------------------------------------


  Time to end of optimisation =     111.9796 seconds


  Peak dynamic memory used =      19.13 MB 


  Timing analysis for GULP :

--------------------------------------------------------------------------------
  Task / Subroutine                                          Time (Seconds)
--------------------------------------------------------------------------------
  Calculation of reciprocal space energy and derivatives          2.9356
  Calculation of real space energy and derivatives               95.8760
  Calculation of three-body energy and derivatives               11.2667
  Calculation of matrix inversion                                 1.5085
  Global summation overhead                                       0.0001
--------------------------------------------------------------------------------
  Total CPU time                                                111.9796
--------------------------------------------------------------------------------


  Dump file written as out.res                                                 
  CIF file written as out.cif                                                 


  Job Finished at 08:32.50 28th November   2016                               

