********************************************************************************
*                       GENERAL UTILITY LATTICE PROGRAM                        *
*                                 Julian Gale                                  *
*                      Nanochemistry Research Institute                        *
*                           Department of Chemistry                            *
*                    Curtin University, Western Australia                      *
********************************************************************************
* Version = 4.2.0 * Last modified =  20th January 2014                         *
********************************************************************************
*  optimise     - perform optimisation run                                     *
*  conp         - constant pressure calculation                                *
*  qok          - running with non charge neutral cell is OK                   *
********************************************************************************

  Job Started  at 01:40.41 28th November   2016                               

  Number of CPUs =     1


  Total number of configurations input =   1

********************************************************************************
*  Input for Configuration =   1                                               *
********************************************************************************

  Formula = Si57Ge3O120F6                                               

  Number of irreducible atoms/shells =     312


  Total number atoms/shells =     312

  Dimensionality = 3               :  Bulk   


  Charge on solid   =  -6.000000 =>neutralising background added


  Cartesian lattice vectors (Angstroms) :

       11.913986    0.000000    0.000000
       -5.868240   10.411098    0.000000
        0.095721    0.029936   29.521851

  Cell parameters (Angstroms/Degrees):

  a =      11.9140    alpha =  90.0406
  b =      11.9510    beta  =  89.8142
  c =      29.5220    gamma = 119.4079

  Initial cell volume =        3661.821878 Angs**3

  Temperature of configuration =  0.000     K 

  Pressure of configuration =         0.000 GPa 

  Fractional coordinates of asymmetric unit :

--------------------------------------------------------------------------------
   No.  Atomic       x           y          z         Charge      Occupancy
        Label      (Frac)      (Frac)     (Frac)        (e)         (Frac)  
--------------------------------------------------------------------------------
      1 Si    c    0.699600    0.375700    0.033890     4.00000    1.000000    
      2 Si    c    0.619879 *  0.323774 *  0.366112 *   4.00000    1.000000    
      3 Si    c    0.680977 *  0.296911 *  0.694759 *   4.00000    1.000000    
      4 Si    c    0.294766 *  0.618074 *  0.533125 *   4.00000    1.000000    
      5 Si    c    0.383974 *  0.672069 *  0.867968 *   4.00000    1.000000    
      6 Si    c    0.324904 *  0.701668 *  0.200385 *   4.00000    1.000000    
      7 Si    c    0.379279 *  0.703663 *  0.301094 *   4.00000    1.000000    
      8 Si    c    0.331372 *  0.625033 *  0.970350 *   4.00000    1.000000    
      9 Si    c    0.286590 *  0.667102 *  0.633250 *   4.00000    1.000000    
     10 Si    c    0.629894 *  0.294665 *  0.797525 *   4.00000    1.000000    
     11 Si    c    0.674232 *  0.378912 *  0.466162 *   4.00000    1.000000    
     12 Si    c    0.705471 *  0.323161 *  0.135148 *   4.00000    1.000000    
     13 Ge    c    0.539767 *  0.434598 *  0.965507 *   4.00000    1.000000    
     14 Si    c    0.581691 *  0.113085 *  0.301565 *   4.00000    1.000000    
     15 Si    c    0.882555 *  0.473756 *  0.631304 *   4.00000    1.000000    
     16 Si    c    0.468629 *  0.581697 *  0.467917 *   4.00000    1.000000    
     17 Si    c    0.424315 *  0.880724 *  0.801126 *   4.00000    1.000000    
     18 Si    c    0.116448 *  0.528181 *  0.135340 *   4.00000    1.000000    
     19 Si    c    0.416011 *  0.531186 *  0.366462 *   4.00000    1.000000    
     20 Si    c    0.115560 *  0.580741 *  0.034370 *   4.00000    1.000000    
     21 Si    c    0.469929 *  0.871403 *  0.697446 *   4.00000    1.000000    
     22 Si    c    0.596140 *  0.462766 *  0.866096 *   4.00000    1.000000    
     23 Si    c    0.885500 *  0.419375 *  0.530301 *   4.00000    1.000000    
     24 Si    c    0.530698 *  0.113941 *  0.200040 *   4.00000    1.000000    
     25 Si    c    0.307152 *  0.389386 *  0.854995 *   4.00000    1.000000    
     26 Si    c    0.602108 *  0.903622 *  0.186227 *   4.00000    1.000000    
     27 Si    c    0.095279 *  0.698194 *  0.517375 *   4.00000    1.000000    
     28 Si    c    0.697304 *  0.601765 *  0.352354 *   4.00000    1.000000    
     29 Si    c    0.399774 *  0.087233 *  0.682348 *   4.00000    1.000000    
     30 Si    c    0.906681 *  0.303797 *  0.019734 *   4.00000    1.000000    
     31 Si    c    0.396083 *  0.300950 *  0.481694 *   4.00000    1.000000    
     32 Si    c    0.906376 *  0.600313 *  0.150555 *   4.00000    1.000000    
     33 Si    c    0.708821 *  0.091769 *  0.817140 *   4.00000    1.000000    
     34 Si    c    0.615994 *  0.708096 *  0.986056 *   4.00000    1.000000    
     35 Si    c    0.084706 *  0.391703 *  0.648388 *   4.00000    1.000000    
     36 Si    c    0.302058 *  0.905779 *  0.315919 *   4.00000    1.000000    
     37 Si    c    0.259702 *  0.337827 *  0.957522 *   4.00000    1.000000    
     38 Si    c    0.659451 *  0.910876 *  0.286545 *   4.00000    1.000000    
     39 Si    c    0.084740 *  0.749386 *  0.617561 *   4.00000    1.000000    
     40 Si    c    0.748423 *  0.660492 *  0.452746 *   4.00000    1.000000    
     41 Si    c    0.343442 *  0.082535 *  0.784463 *   4.00000    1.000000    
     42 Si    c    0.917003 *  0.251583 *  0.119520 *   4.00000    1.000000    
     43 Si    c    0.338204 *  0.252311 *  0.381149 *   4.00000    1.000000    
     44 Si    c    0.910906 *  0.654576 *  0.049793 *   4.00000    1.000000    
     45 Ge    c    0.733301 *  0.081968 *  0.717178 *   4.00000    1.000000    
     46 Si    c    0.670236 *  0.743324 *  0.882834 *   4.00000    1.000000    
     47 Si    c    0.085111 *  0.338545 *  0.547518 *   4.00000    1.000000    
     48 Si    c    0.253509 *  0.912431 *  0.215354 *   4.00000    1.000000    
     49 Ge    c    0.973618 *  0.120098 *  0.969859 *   4.00000    1.000000    
     50 Si    c    0.878574 *  0.848846 *  0.302374 *   4.00000    1.000000    
     51 Si    c    0.150230 *  0.029170 *  0.634068 *   4.00000    1.000000    
     52 Si    c    0.027581 *  0.879252 *  0.467757 *   4.00000    1.000000    
     53 Si    c    0.125232 *  0.148361 *  0.800622 *   4.00000    1.000000    
     54 Si    c    0.852293 *  0.971539 *  0.137115 *   4.00000    1.000000    
     55 Si    c    0.121149 *  0.973886 *  0.367122 *   4.00000    1.000000    
     56 Si    c    0.858095 *  0.880745 *  0.036815 *   4.00000    1.000000    
     57 Si    c    0.021461 *  0.145572 *  0.700580 *   4.00000    1.000000    
     58 Si    c    0.884245 *  0.021445 *  0.867258 *   4.00000    1.000000    
     59 Si    c    0.149176 *  0.121246 *  0.532955 *   4.00000    1.000000    
     60 Si    c    0.972876 *  0.847890 *  0.201700 *   4.00000    1.000000    
     61 O3    c    0.949284 *  0.999986 *  0.006589 *   1.33043    1.000000    
     62 O2    c    0.997842 *  0.930076 *  0.335434 *   0.87073    1.000000    
     63 O2    c    0.078638 *  0.075409 *  0.668536 *   0.87073    1.000000    
     64 O2    c    0.067794 *  0.997872 *  0.501641 *   0.87073    1.000000    
     65 O2    c    0.003891 *  0.065509 *  0.832887 *   0.87073    1.000000    
     66 O2    c    0.929196 *  0.930393 *  0.171398 *   0.87073    1.000000    
     67 O2    c    0.340085 *  0.581101 *  0.334022 *   0.87073    1.000000    
     68 O2    c    0.406954 *  0.742819 *  0.667344 *   0.87073    1.000000    
     69 O2    c    0.241973 *  0.659982 *  0.001838 *   0.87073    1.000000    
     70 O2    c    0.665915 *  0.419753 *  0.827809 *   0.87073    1.000000    
     71 O2    c    0.582086 *  0.239504 *  0.167847 *   0.87073    1.000000    
     72 O2    c    0.761093 *  0.341087 *  0.498141 *   0.87073    1.000000    
     73 O3    c    0.583718 *  0.343748 *  0.001651 *   1.33043    1.000000    
     74 O2    c    0.754247 *  0.423868 *  0.662881 *   0.87073    1.000000    
     75 O2    c    0.658395 *  0.238567 *  0.333519 *   0.87073    1.000000    
     76 O2    c    0.418868 *  0.657087 *  0.500856 *   0.87073    1.000000    
     77 O2    c    0.241967 *  0.578714 *  0.167905 *   0.87073    1.000000    
     78 O2    c    0.348396 *  0.756741 *  0.834264 *   0.87073    1.000000    
     79 O3    c    0.133713 *  0.223054 *  0.978631 *   1.33043    1.000000    
     80 O2    c    0.786465 *  0.911928 *  0.306648 *   0.87073    1.000000    
     81 O2    c    0.083996 *  0.874895 *  0.638118 *   0.87073    1.000000    
     82 O2    c    0.873465 *  0.787078 *  0.472577 *   0.87073    1.000000    
     83 O2    c    0.219066 *  0.085570 *  0.804624 *   0.87073    1.000000    
     84 O2    c    0.916571 *  0.125601 *  0.140271 *   0.87073    1.000000    
     85 O2    c    0.211621 *  0.127443 *  0.361246 *   0.87073    1.000000    
     86 O2    c    0.908224 *  0.779020 *  0.029781 *   0.87073    1.000000    
     87 O3    c    0.872142 *  0.075388 *  0.696508 *   1.33043    1.000000    
     88 O2    c    0.791201 *  0.867919 *  0.860373 *   0.87073    1.000000    
     89 O2    c    0.085610 *  0.212535 *  0.527266 *   0.87073    1.000000    
     90 O2    c    0.126643 *  0.911431 *  0.195073 *   0.87073    1.000000    
     91 O2    c    0.935351 *  0.859153 *  0.252710 *   0.87073    1.000000    
     92 O2    c    0.139094 *  0.073347 *  0.584058 *   0.87073    1.000000    
     93 O3    c    0.941217 *  0.053420 *  0.916715 *   1.33043    1.000000    
     94 O2    c    0.078042 *  0.145614 *  0.750363 *   0.87073    1.000000    
     95 O2    c    0.867948 *  0.925570 *  0.088112 *   0.87073    1.000000    
     96 O2    c    0.069337 *  0.936539 *  0.417897 *   0.87073    1.000000    
     97 O3    c    0.895561 *  0.205194 *  0.980102 *   1.33043    1.000000    
     98 O2    c    0.796398 *  0.698007 *  0.314398 *   0.87073    1.000000    
     99 O2    c    0.302418 *  0.089640 *  0.645037 *   0.87073    1.000000    
    100 O2    c    0.098059 *  0.796754 *  0.478891 *   0.87073    1.000000    
    101 O2    c    0.208769 *  0.296417 *  0.816611 *   0.87073    1.000000    
    102 O2    c    0.700104 *  0.903804 *  0.147871 *   0.87073    1.000000    
    103 O2    c    0.203802 *  0.904304 *  0.354575 *   0.87073    1.000000    
    104 O2    c    0.709436 *  0.820830 *  0.020797 *   0.87073    1.000000    
    105 O2    c    0.083111 *  0.296851 *  0.687530 *   0.87073    1.000000    
    106 O2    c    0.798485 *  0.091028 *  0.858892 *   0.87073    1.000000    
    107 O2    c    0.300063 *  0.201946 *  0.519877 *   0.87073    1.000000    
    108 O2    c    0.903989 *  0.697391 *  0.188682 *   0.87073    1.000000    
    109 O2    c    0.324240 *  0.645915 *  0.250901 *   0.87073    1.000000    
    110 O2    c    0.349621 *  0.672754 *  0.583577 *   0.87073    1.000000    
    111 O2    c    0.330735 *  0.672673 *  0.918470 *   0.87073    1.000000    
    112 O2    c    0.682968 *  0.345178 *  0.746927 *   0.87073    1.000000    
    113 O2    c    0.649006 *  0.324819 *  0.085480 *   0.87073    1.000000    
    114 O2    c    0.676275 *  0.321960 *  0.416178 *   0.87073    1.000000    
    115 O3    c    0.374875 *  0.320396 *  0.975157 *   1.33043    1.000000    
    116 O2    c    0.669123 *  0.043353 *  0.304731 *   0.87073    1.000000    
    117 O2    c    0.950190 *  0.629097 *  0.634917 *   0.87073    1.000000    
    118 O2    c    0.624496 *  0.669371 *  0.471036 *   0.87073    1.000000    
    119 O2    c    0.340013 *  0.953817 *  0.803499 *   0.87073    1.000000    
    120 O2    c    0.048779 *  0.372333 *  0.138621 *   0.87073    1.000000    
    121 O2    c    0.328619 *  0.375659 *  0.363375 *   0.87073    1.000000    
    122 O2    c    0.046315 *  0.668301 *  0.031618 *   0.87073    1.000000    
    123 O3    c    0.621522 *  0.931648 *  0.692975 *   1.33043    1.000000    
    124 O2    c    0.678181 *  0.620197 *  0.864294 *   0.87073    1.000000    
    125 O2    c    0.955189 *  0.331919 *  0.528019 *   0.87073    1.000000    
    126 O2    c    0.374382 *  0.044850 *  0.196832 *   0.87073    1.000000    
    127 O2    c    0.771807 *  0.301431 *  0.013606 *   0.87073    1.000000    
    128 O2    c    0.695895 *  0.467036 *  0.344245 *   0.87073    1.000000    
    129 O2    c    0.532777 *  0.220847 *  0.676656 *   0.87073    1.000000    
    130 O2    c    0.228212 *  0.694803 *  0.510204 *   0.87073    1.000000    
    131 O2    c    0.312726 *  0.526880 *  0.848737 *   0.87073    1.000000    
    132 O2    c    0.468914 *  0.770451 *  0.178431 *   0.87073    1.000000    
    133 O2    c    0.303333 *  0.772179 *  0.323300 *   0.87073    1.000000    
    134 O2    c    0.477172 *  0.703917 *  0.989263 *   0.87073    1.000000    
    135 O2    c    0.218688 *  0.524536 *  0.655249 *   0.87073    1.000000    
    136 O2    c    0.701637 *  0.224179 *  0.821091 *   0.87073    1.000000    
    137 O2    c    0.531555 *  0.302435 *  0.489000 *   0.87073    1.000000    
    138 O2    c    0.775013 *  0.465275 *  0.158065 *   0.87073    1.000000    
    139 O2    c    0.788208 *  0.531490 *  0.029433 *   0.87073    1.000000    
    140 O2    c    0.463926 *  0.251281 *  0.361288 *   0.87073    1.000000    
    141 O3    c    0.759501 *  0.221907 *  0.687780 *   1.33043    1.000000    
    142 O2    c    0.213158 *  0.462641 *  0.528957 *   0.87073    1.000000    
    143 O2    c    0.538150 *  0.735563 *  0.865800 *   0.87073    1.000000    
    144 O2    c    0.252091 *  0.785623 *  0.195853 *   0.87073    1.000000    
    145 O2    c    0.535032 *  0.784810 *  0.306139 *   0.87073    1.000000    
    146 O2    c    0.270226 *  0.472281 *  0.974293 *   0.87073    1.000000    
    147 O2    c    0.209128 *  0.747144 *  0.638253 *   0.87073    1.000000    
    148 O2    c    0.474654 *  0.206014 *  0.800334 *   0.87073    1.000000    
    149 O2    c    0.748921 *  0.534426 *  0.471936 *   0.87073    1.000000    
    150 O2    c    0.788730 *  0.249186 *  0.138591 *   0.87073    1.000000    
    151 O2    c    0.240525 *  0.323230 *  0.902374 *   0.87073    1.000000    
    152 O2    c    0.677115 *  0.907822 *  0.232380 *   0.87073    1.000000    
    153 O2    c    0.090107 *  0.770040 *  0.563349 *   0.87073    1.000000    
    154 O2    c    0.767197 *  0.676385 *  0.398520 *   0.87073    1.000000    
    155 O2    c    0.330870 *  0.078929 *  0.730417 *   0.87073    1.000000    
    156 O2    c    0.917934 *  0.231829 *  0.065074 *   0.87073    1.000000    
    157 O2    c    0.321730 *  0.232382 *  0.435375 *   0.87073    1.000000    
    158 O2    c    0.908330 *  0.672078 *  0.104012 *   0.87073    1.000000    
    159 O3    c    0.786717 *  0.087893 *  0.774081 *   1.33043    1.000000    
    160 O2    c    0.685908 *  0.763655 *  0.936813 *   0.87073    1.000000    
    161 O2    c    0.081183 *  0.318663 *  0.601707 *   0.87073    1.000000    
    162 O2    c    0.232803 *  0.911220 *  0.269547 *   0.87073    1.000000    
    163 O3    c    0.611214 *  0.578358 *  0.999373 *   1.33043    1.000000    
    164 O2    c    0.440707 *  0.030362 *  0.324864 *   0.87073    1.000000    
    165 O2    c    0.963559 *  0.414783 *  0.655743 *   0.87073    1.000000    
    166 O2    c    0.410390 *  0.440407 *  0.490768 *   0.87073    1.000000    
    167 O2    c    0.565660 *  0.966967 *  0.822938 *   0.87073    1.000000    
    168 O2    c    0.033000 *  0.586811 *  0.158746 *   0.87073    1.000000    
    169 O2    c    0.557657 *  0.588178 *  0.343617 *   0.87073    1.000000    
    170 O2    c    0.034297 *  0.441230 *  0.010000 *   0.87073    1.000000    
    171 O2    c    0.420593 *  0.965442 *  0.675528 *   0.87073    1.000000    
    172 O2    c    0.448037 *  0.405160 *  0.847639 *   0.87073    1.000000    
    173 O2    c    0.970139 *  0.560536 *  0.507784 *   0.87073    1.000000    
    174 O2    c    0.587970 *  0.029052 *  0.177212 *   0.87073    1.000000    
    175 O2    c    0.581824 *  0.166226 *  0.250870 *   0.87073    1.000000    
    176 O2    c    0.830961 *  0.420900 *  0.580695 *   0.87073    1.000000    
    177 O3    c    0.608885 *  0.410903 *  0.913984 *   1.33043    1.000000    
    178 O2    c    0.422777 *  0.829840 *  0.750304 *   0.87073    1.000000    
    179 O2    c    0.171969 *  0.580949 *  0.084583 *   0.87073    1.000000    
    180 O2    c    0.415491 *  0.583269 *  0.417352 *   0.87073    1.000000    
    181 F     c    0.452948 *  0.905422 *  0.251115 *   0.56000    1.000000    
    182 F     c    0.092472 *  0.550391 *  0.582453 *   0.56000    1.000000    
    183 F     c    0.482727 *  0.525197 *  0.927478 *   0.56000    1.000000    
    184 F     c    0.587571 *  0.085821 *  0.744044 *   0.56000    1.000000    
    185 F     c    0.915912 *  0.451538 *  0.084499 *   0.56000    1.000000    
    186 F     c    0.547455 *  0.451783 *  0.417226 *   0.56000    1.000000    
    187 O3    s    0.941412 *  0.997435 *  0.006674 *  -3.33043    1.000000    
    188 O2    s    0.998394 *  0.925947 *  0.335305 *  -2.87073    1.000000    
    189 O2    s    0.080940 *  0.077486 *  0.667929 *  -2.87073    1.000000    
    190 O2    s    0.072385 *  0.998462 *  0.501374 *  -2.87073    1.000000    
    191 O2    s    0.004469 *  0.069963 *  0.833015 *  -2.87073    1.000000    
    192 O2    s    0.925455 *  0.925693 *  0.170958 *  -2.87073    1.000000    
    193 O2    s    0.351961 *  0.588507 *  0.333991 *  -2.87073    1.000000    
    194 O2    s    0.401238 *  0.748854 *  0.667050 *  -2.87073    1.000000    
    195 O2    s    0.239064 *  0.648499 *  0.001675 *  -2.87073    1.000000    
    196 O2    s    0.654979 *  0.410687 *  0.828428 *  -2.87073    1.000000    
    197 O2    s    0.589337 *  0.235022 *  0.167843 *  -2.87073    1.000000    
    198 O2    s    0.765118 *  0.353137 *  0.498196 *  -2.87073    1.000000    
    199 O3    s    0.593478 *  0.353578 *  0.002690 *  -3.33043    1.000000    
    200 O2    s    0.759588 *  0.416010 *  0.662973 *  -2.87073    1.000000    
    201 O2    s    0.646507 *  0.234450 *  0.333605 *  -2.87073    1.000000    
    202 O2    s    0.411146 *  0.645243 *  0.500808 *  -2.87073    1.000000    
    203 O2    s    0.237765 *  0.586227 *  0.167951 *  -2.87073    1.000000    
    204 O2    s    0.359790 *  0.760434 *  0.834446 *  -2.87073    1.000000    
    205 O3    s    0.133340 *  0.226475 *  0.975624 *  -3.33043    1.000000    
    206 O2    s    0.783113 *  0.905059 *  0.304126 *  -2.87073    1.000000    
    207 O2    s    0.091112 *  0.878241 *  0.635578 *  -2.87073    1.000000    
    208 O2    s    0.876835 *  0.783778 *  0.470059 *  -2.87073    1.000000    
    209 O2    s    0.222877 *  0.091623 *  0.802082 *  -2.87073    1.000000    
    210 O2    s    0.909746 *  0.122136 *  0.137812 *  -2.87073    1.000000    
    211 O2    s    0.215098 *  0.124113 *  0.363882 *  -2.87073    1.000000    
    212 O2    s    0.903076 *  0.776796 *  0.032633 *  -2.87073    1.000000    
    213 O3    s    0.879931 *  0.083772 *  0.698304 *  -3.33043    1.000000    
    214 O2    s    0.788118 *  0.870671 *  0.863398 *  -2.87073    1.000000    
    215 O2    s    0.092324 *  0.215855 *  0.529943 *  -2.87073    1.000000    
    216 O2    s    0.123407 *  0.904756 *  0.197854 *  -2.87073    1.000000    
    217 O2    s    0.933117 *  0.856693 *  0.252589 *  -2.87073    1.000000    
    218 O2    s    0.141485 *  0.073731 *  0.583952 *  -2.87073    1.000000    
    219 O3    s    0.937784 *  0.055641 *  0.915874 *  -3.33043    1.000000    
    220 O2    s    0.077658 *  0.145898 *  0.751056 *  -2.87073    1.000000    
    221 O2    s    0.865014 *  0.925735 *  0.087875 *  -2.87073    1.000000    
    222 O2    s    0.070425 *  0.934257 *  0.417832 *  -2.87073    1.000000    
    223 O3    s    0.903218 *  0.207096 *  0.982885 *  -3.33043    1.000000    
    224 O2    s    0.794929 *  0.704154 *  0.317037 *  -2.87073    1.000000    
    225 O2    s    0.297071 *  0.083109 *  0.647876 *  -2.87073    1.000000    
    226 O2    s    0.090272 *  0.795475 *  0.481631 *  -2.87073    1.000000    
    227 O2    s    0.210305 *  0.290609 *  0.818953 *  -2.87073    1.000000    
    228 O2    s    0.706227 *  0.910998 *  0.150670 *  -2.87073    1.000000    
    229 O2    s    0.205007 *  0.911873 *  0.351976 *  -2.87073    1.000000    
    230 O2    s    0.715149 *  0.815577 *  0.018887 *  -2.87073    1.000000    
    231 O2    s    0.077073 *  0.291649 *  0.684706 *  -2.87073    1.000000    
    232 O2    s    0.798423 *  0.084018 *  0.855694 *  -2.87073    1.000000    
    233 O2    s    0.293844 *  0.203468 *  0.517369 *  -2.87073    1.000000    
    234 O2    s    0.911511 *  0.703398 *  0.186171 *  -2.87073    1.000000    
    235 O2    s    0.329916 *  0.657463 *  0.250875 *  -2.87073    1.000000    
    236 O2    s    0.337575 *  0.666599 *  0.583473 *  -2.87073    1.000000    
    237 O2    s    0.336346 *  0.667911 *  0.918341 *  -2.87073    1.000000    
    238 O2    s    0.677162 *  0.334985 *  0.747143 *  -2.87073    1.000000    
    239 O2    s    0.659931 *  0.329667 *  0.085615 *  -2.87073    1.000000    
    240 O2    s    0.670272 *  0.327993 *  0.416175 *  -2.87073    1.000000    
    241 O3    s    0.374120 *  0.330350 *  0.972528 *  -3.33043    1.000000    
    242 O2    s    0.659073 *  0.036661 *  0.302487 *  -2.87073    1.000000    
    243 O2    s    0.957230 *  0.625570 *  0.632720 *  -2.87073    1.000000    
    244 O2    s    0.621422 *  0.659427 *  0.468794 *  -2.87073    1.000000    
    245 O2    s    0.349019 *  0.959737 *  0.801273 *  -2.87073    1.000000    
    246 O2    s    0.042102 *  0.375806 *  0.136300 *  -2.87073    1.000000    
    247 O2    s    0.338587 *  0.378688 *  0.365565 *  -2.87073    1.000000    
    248 O2    s    0.039710 *  0.657772 *  0.033772 *  -2.87073    1.000000    
    249 O3    s    0.613729 *  0.936022 *  0.695169 *  -3.33043    1.000000    
    250 O2    s    0.669287 *  0.617841 *  0.866458 *  -2.87073    1.000000    
    251 O2    s    0.961723 *  0.341679 *  0.530326 *  -2.87073    1.000000    
    252 O2    s    0.377818 *  0.038161 *  0.199095 *  -2.87073    1.000000    
    253 O2    s    0.779210 *  0.309411 *  0.016443 *  -2.87073    1.000000    
    254 O2    s    0.688212 *  0.466473 *  0.347383 *  -2.87073    1.000000    
    255 O2    s    0.533549 *  0.214228 *  0.679128 *  -2.87073    1.000000    
    256 O2    s    0.220911 *  0.687270 *  0.513357 *  -2.87073    1.000000    
    257 O2    s    0.319681 *  0.528016 *  0.851427 *  -2.87073    1.000000    
    258 O2    s    0.468151 *  0.777386 *  0.181528 *  -2.87073    1.000000    
    259 O2    s    0.311030 *  0.779221 *  0.320197 *  -2.87073    1.000000    
    260 O2    s    0.475791 *  0.696051 *  0.986915 *  -2.87073    1.000000    
    261 O2    s    0.211666 *  0.525468 *  0.652181 *  -2.87073    1.000000    
    262 O2    s    0.694955 *  0.217984 *  0.818226 *  -2.87073    1.000000    
    263 O2    s    0.531949 *  0.310120 *  0.485859 *  -2.87073    1.000000    
    264 O2    s    0.781761 *  0.464987 *  0.154915 *  -2.87073    1.000000    
    265 O2    s    0.793312 *  0.529667 *  0.032144 *  -2.87073    1.000000    
    266 O2    s    0.466482 *  0.259018 *  0.363913 *  -2.87073    1.000000    
    267 O3    s    0.749426 *  0.219140 *  0.690609 *  -3.33043    1.000000    
    268 O2    s    0.207716 *  0.465436 *  0.531385 *  -2.87073    1.000000    
    269 O2    s    0.535545 *  0.729433 *  0.867848 *  -2.87073    1.000000    
    270 O2    s    0.260010 *  0.790637 *  0.198419 *  -2.87073    1.000000    
    271 O2    s    0.532242 *  0.790071 *  0.303522 *  -2.87073    1.000000    
    272 O2    s    0.276093 *  0.475382 *  0.972134 *  -2.87073    1.000000    
    273 O2    s    0.203716 *  0.739095 *  0.635553 *  -2.87073    1.000000    
    274 O2    s    0.476523 *  0.201687 *  0.798316 *  -2.87073    1.000000    
    275 O2    s    0.741079 *  0.532065 *  0.469299 *  -2.87073    1.000000    
    276 O2    s    0.793970 *  0.257271 *  0.136192 *  -2.87073    1.000000    
    277 O2    s    0.249482 *  0.331718 *  0.902616 *  -2.87073    1.000000    
    278 O2    s    0.667379 *  0.907708 *  0.233299 *  -2.87073    1.000000    
    279 O2    s    0.090068 *  0.760399 *  0.564333 *  -2.87073    1.000000    
    280 O2    s    0.757883 *  0.666888 *  0.399471 *  -2.87073    1.000000    
    281 O2    s    0.339504 *  0.080171 *  0.731316 *  -2.87073    1.000000    
    282 O2    s    0.916807 *  0.241023 *  0.066095 *  -2.87073    1.000000    
    283 O2    s    0.331278 *  0.241691 *  0.434492 *  -2.87073    1.000000    
    284 O2    s    0.908415 *  0.662603 *  0.103233 *  -2.87073    1.000000    
    285 O3    s    0.774949 *  0.087913 *  0.774654 *  -3.33043    1.000000    
    286 O2    s    0.677462 *  0.756068 *  0.935764 *  -2.87073    1.000000    
    287 O2    s    0.081952 *  0.328380 *  0.600819 *  -2.87073    1.000000    
    288 O2    s    0.242280 *  0.910790 *  0.268703 *  -2.87073    1.000000    
    289 O3    s    0.606732 *  0.582757 *  0.995660 *  -3.33043    1.000000    
    290 O2    s    0.440494 *  0.025417 *  0.321471 *  -2.87073    1.000000    
    291 O2    s    0.968315 *  0.418734 *  0.652374 *  -2.87073    1.000000    
    292 O2    s    0.415076 *  0.440053 *  0.487404 *  -2.87073    1.000000    
    293 O2    s    0.565174 *  0.970550 *  0.820028 *  -2.87073    1.000000    
    294 O2    s    0.027903 *  0.581998 *  0.155426 *  -2.87073    1.000000    
    295 O2    s    0.557925 *  0.583510 *  0.346956 *  -2.87073    1.000000    
    296 O2    s    0.029277 *  0.441233 *  0.013495 *  -2.87073    1.000000    
    297 O2    s    0.423405 *  0.969670 *  0.678467 *  -2.87073    1.000000    
    298 O2    s    0.447204 *  0.409161 *  0.850270 *  -2.87073    1.000000    
    299 O2    s    0.974908 *  0.560561 *  0.511179 *  -2.87073    1.000000    
    300 O2    s    0.583297 *  0.024234 *  0.180599 *  -2.87073    1.000000    
    301 O2    s    0.576489 *  0.155274 *  0.250859 *  -2.87073    1.000000    
    302 O2    s    0.842049 *  0.426299 *  0.580763 *  -2.87073    1.000000    
    303 O3    s    0.603126 *  0.417957 *  0.912257 *  -3.33043    1.000000    
    304 O2    s    0.427515 *  0.839307 *  0.750651 *  -2.87073    1.000000    
    305 O2    s    0.160526 *  0.575535 *  0.084573 *  -2.87073    1.000000    
    306 O2    s    0.421036 *  0.577710 *  0.417316 *  -2.87073    1.000000    
    307 F     s    0.452825 *  0.905133 *  0.251141 *  -1.56000    1.000000    
    308 F     s    0.093048 *  0.551021 *  0.582479 *  -1.56000    1.000000    
    309 F     s    0.486663 *  0.519624 *  0.929790 *  -1.56000    1.000000    
    310 F     s    0.596269 *  0.085723 *  0.742595 *  -1.56000    1.000000    
    311 F     s    0.916573 *  0.451478 *  0.084447 *  -1.56000    1.000000    
    312 F     s    0.547779 *  0.451524 *  0.417276 *  -1.56000    1.000000    
--------------------------------------------------------------------------------



********************************************************************************
*  General input information                                                   *
********************************************************************************

  Species output for all configurations : 

--------------------------------------------------------------------------------
  Species    Type    Atomic    Atomic    Charge       Radii (Angs)     Library
                     Number     Mass       (e)     Cova   Ionic  VDW   Symbol
--------------------------------------------------------------------------------
    Si       Core       14      28.09   4.000000   1.200  0.000  2.100          
    O1       Core        8      16.00   1.733957   0.730  0.000  1.360          
    O1       Shell       8       0.00  -3.733957   0.730  0.000  1.360          
    O2       Core        8      16.00   0.870733   0.730  0.000  1.360          
    O2       Shell       8       0.00  -2.870733   0.730  0.000  1.360          
    O3       Core        8      16.00   1.330431   0.730  0.000  1.360          
    O3       Shell       8       0.00  -3.330431   0.730  0.000  1.360          
    F        Core        9      19.00   0.560000   0.710  0.000  1.300          
    F        Shell       9       0.00  -1.560000   0.710  0.000  1.300          
    Ge       Core       32      72.61   4.000000   1.170  0.000  1.750          
--------------------------------------------------------------------------------


  Lattice summation method               =    Ewald          (3-D)
                                         =    Parry          (2-D)
                                         =    Saunders et al (1-D)
  Accuracy factor for lattice sums       =   12.000


  Time limit = Infinity

  Maximum range for interatomic potentials =        16.000000 Angstroms

  Taper potentials to zero over   1.0000 Angstroms using polynomial

  General interatomic potentials :

--------------------------------------------------------------------------------
Atom  Types   Potential         A         B         C         D     Cutoffs(Ang)
  1     2                                                            Min    Max 
--------------------------------------------------------------------------------
Si   c O1   s Buckingham    0.132E+04 0.318      10.1      0.00     0.000 16.000
Si   c O2   s Buckingham    0.132E+04 0.318      10.1      0.00     0.000 16.000
Si   c O3   s Buckingham    0.132E+04 0.318      10.1      0.00     0.000 16.000
Ge   c O1   s Buckingham    0.150E+04 0.326      16.8      0.00     0.000 16.000
Ge   c O2   s Buckingham    0.150E+04 0.326      16.8      0.00     0.000 16.000
Ge   c O3   s Buckingham    0.150E+04 0.326      16.8      0.00     0.000 16.000
O1   s O1   s Buckingham    0.228E+05 0.149      10.9      0.00     0.000 16.000
O1   s O2   s Buckingham    0.228E+05 0.149      10.9      0.00     0.000 16.000
O1   s O3   s Buckingham    0.228E+05 0.149      10.9      0.00     0.000 16.000
O2   s O2   s Buckingham    0.228E+05 0.149      10.9      0.00     0.000 16.000
O2   s O3   s Buckingham    0.228E+05 0.149      10.9      0.00     0.000 16.000
O3   s O3   s Buckingham    0.228E+05 0.149      10.9      0.00     0.000 16.000
Si   c F    s Buckingham     977.     0.282      0.00      0.00     0.000 16.000
Ge   c F    s Buckingham     681.     0.320      0.00      0.00     0.000 16.000
F    s F    s Buckingham     540.     0.262      0.00      0.00     0.000 16.000
O1   s F    s Buckingham    0.168E+04 0.268      0.00      0.00     0.000 16.000
O2   s F    s Buckingham    0.168E+04 0.268      0.00      0.00     0.000 16.000
O3   s F    s Buckingham    0.168E+04 0.268      0.00      0.00     0.000 16.000
O2   c O2   s Spring (c-s)   76.0      0.00      0.00      0.00     0.000  0.800
O3   c O3   s Spring (c-s)   128.      0.00      0.00      0.00     0.000  0.800
O1   c O1   s Spring (c-s)   180.      0.00      0.00      0.00     0.000  0.800
F    c F    s Spring (c-s)   33.5      0.00      0.00      0.00     0.000  0.800
--------------------------------------------------------------------------------

  General Three-body potentials :

  Harmonic form:

--------------------------------------------------------------------------------
Atom    Atom    Atom           Force Constants            Theta     Cutoffs  
  1       2       3     (eVrad**-2/eVrad**-3/eVrad**-4)   (deg)  1-2  1-3  2-3
--------------------------------------------------------------------------------
Si    c O1    s O1    s  1.261        0.0000    0.0000   109.470 0.00 0.00 0.00
                                                                 1.90 1.90 3.50
Si    c O1    s O2    s  1.261        0.0000    0.0000   109.470 0.00 0.00 0.00
                                                                 1.90 1.90 3.50
Si    c O2    s O2    s  1.261        0.0000    0.0000   109.470 0.00 0.00 0.00
                                                                 1.90 1.90 3.50
--------------------------------------------------------------------------------

********************************************************************************
*  Output for configuration   1                                                *
********************************************************************************


  Components of energy : 

--------------------------------------------------------------------------------
  Interatomic potentials     =        2063.84321708 eV
  Three-body potentials      =           0.47503955 eV
  Monopole - monopole (real) =       -6614.38773515 eV
  Monopole - monopole (recip)=       -3169.89561515 eV
  Monopole - monopole (total)=       -9784.28335030 eV
  Neutralising energy        =          -6.45708059 eV
--------------------------------------------------------------------------------
  Total lattice energy       =       -7726.42217425 eV
--------------------------------------------------------------------------------
  Total lattice energy       =         -745481.6306 kJ/(mole unit cells)
--------------------------------------------------------------------------------


  Number of variables =      939

  Maximum number of calculations  =          1000
  Maximum Hessian update interval =            10
  Maximum step size               =   1.000000000
  Maximum parameter tolerance     =   0.000010000
  Maximum function  tolerance     =   0.000010000
  Maximum gradient  tolerance     =   0.001000000
  Maximum gradient  component     =   0.010000000

  Symmetry not applied to optimisation

  Cell parameters to be optimised using strains

  Newton-Raphson optimiser to be used

  BFGS hessian update to be used

  Dumpfile to be written after every cycle

  Start of bulk optimisation :

  Cycle:      0 Energy:     -7726.422174  Gnorm:      0.000692  CPU:    1.571
  ** Hessian calculated **
  Cycle:      1 Energy:     -7726.440394  Gnorm:      0.001045  CPU:    4.501
  Cycle:      2 Energy:     -7726.440434  Gnorm:      0.000068  CPU:    7.062


  **** Optimisation achieved ****


  Final energy =   -7726.44043460 eV
  Final Gnorm  =       0.00000859

  Components of energy : 

--------------------------------------------------------------------------------
  Interatomic potentials     =        2064.01099333 eV
  Three-body potentials      =           0.47434641 eV
  Monopole - monopole (real) =       -6614.75254519 eV
  Monopole - monopole (recip)=       -3169.71651337 eV
  Monopole - monopole (total)=       -9784.46905856 eV
  Neutralising energy        =          -6.45671577 eV
--------------------------------------------------------------------------------
  Total lattice energy       =       -7726.44043460 eV
--------------------------------------------------------------------------------
  Total lattice energy       =         -745483.3925 kJ/(mole unit cells)
--------------------------------------------------------------------------------

  Final fractional coordinates of atoms :

--------------------------------------------------------------------------------
   No.  Atomic        x           y          z          Radius
        Label       (Frac)      (Frac)     (Frac)       (Angs) 
--------------------------------------------------------------------------------
     1  Si    c     0.699600    0.375700    0.033890    0.000000
     2  Si    c     0.620119    0.317811    0.365468    0.000000
     3  Si    c     0.681376    0.287692    0.694034    0.000000
     4  Si    c     0.293013    0.608642    0.532358    0.000000
     5  Si    c     0.387118    0.666134    0.867068    0.000000
     6  Si    c     0.326775    0.698107    0.199384    0.000000
     7  Si    c     0.380221    0.698037    0.300127    0.000000
     8  Si    c     0.333914    0.621406    0.969475    0.000000
     9  Si    c     0.285601    0.657816    0.632588    0.000000
    10  Si    c     0.631031    0.286777    0.796871    0.000000
    11  Si    c     0.673583    0.371788    0.465572    0.000000
    12  Si    c     0.707443    0.321440    0.134897    0.000000
    13  Ge    c     0.540235    0.431160    0.964660    0.000000
    14  Si    c     0.582710    0.107561    0.301065    0.000000
    15  Si    c     0.881960    0.465165    0.630642    0.000000
    16  Si    c     0.467656    0.573943    0.466932    0.000000
    17  Si    c     0.426039    0.873225    0.800127    0.000000
    18  Si    c     0.118545    0.525176    0.134226    0.000000
    19  Si    c     0.415907    0.524637    0.365441    0.000000
    20  Si    c     0.117263    0.577600    0.033276    0.000000
    21  Si    c     0.470432    0.862106    0.696501    0.000000
    22  Si    c     0.599086    0.456530    0.865499    0.000000
    23  Si    c     0.884085    0.410511    0.529738    0.000000
    24  Si    c     0.533018    0.110920    0.199592    0.000000
    25  Si    c     0.309977    0.383477    0.854178    0.000000
    26  Si    c     0.603987    0.900299    0.185680    0.000000
    27  Si    c     0.093576    0.689077    0.516682    0.000000
    28  Si    c     0.697524    0.595574    0.351470    0.000000
    29  Si    c     0.400343    0.077981    0.681526    0.000000
    30  Si    c     0.906004    0.301747    0.019026    0.000000
    31  Si    c     0.395027    0.293396    0.480889    0.000000
    32  Si    c     0.909350    0.598239    0.149915    0.000000
    33  Si    c     0.710317    0.083929    0.816243    0.000000
    34  Si    c     0.618574    0.704875    0.985458    0.000000
    35  Si    c     0.083534    0.382562    0.647827    0.000000
    36  Si    c     0.303162    0.900363    0.315243    0.000000
    37  Si    c     0.260406    0.333462    0.956728    0.000000
    38  Si    c     0.660446    0.905486    0.285913    0.000000
    39  Si    c     0.083784    0.740507    0.616924    0.000000
    40  Si    c     0.747620    0.653210    0.451958    0.000000
    41  Si    c     0.344767    0.074814    0.783662    0.000000
    42  Si    c     0.918285    0.248781    0.118591    0.000000
    43  Si    c     0.338181    0.245894    0.380271    0.000000
    44  Si    c     0.913812    0.653132    0.049267    0.000000
    45  Ge    c     0.733677    0.072622    0.716290    0.000000
    46  Si    c     0.673359    0.737391    0.882124    0.000000
    47  Si    c     0.083349    0.329308    0.546946    0.000000
    48  Si    c     0.255719    0.909138    0.214708    0.000000
    49  Ge    c     0.973297    0.117682    0.969471    0.000000
    50  Si    c     0.879274    0.843087    0.301867    0.000000
    51  Si    c     0.150815    0.020722    0.633476    0.000000
    52  Si    c     0.027002    0.871137    0.467155    0.000000
    53  Si    c     0.127477    0.141924    0.800134    0.000000
    54  Si    c     0.854520    0.968875    0.136642    0.000000
    55  Si    c     0.121559    0.967319    0.366678    0.000000
    56  Si    c     0.860563    0.878623    0.036328    0.000000
    57  Si    c     0.022053    0.137116    0.700175    0.000000
    58  Si    c     0.886464    0.015605    0.866974    0.000000
    59  Si    c     0.148548    0.112817    0.532452    0.000000
    60  Si    c     0.975320    0.845474    0.201191    0.000000
    61  O3    c     0.951062    0.999493    0.006787    0.000000
    62  O2    c     0.997656    0.923120    0.335334    0.000000
    63  O2    c     0.080876    0.067971    0.668337    0.000000
    64  O2    c     0.067272    0.988930    0.501416    0.000000
    65  O2    c     0.007496    0.060815    0.833153    0.000000
    66  O2    c     0.931714    0.928699    0.171213    0.000000
    67  O2    c     0.340628    0.575054    0.332878    0.000000
    68  O2    c     0.406402    0.733309    0.666509    0.000000
    69  O2    c     0.243698    0.656221    0.000661    0.000000
    70  O2    c     0.667869    0.412037    0.827252    0.000000
    71  O2    c     0.584551    0.237187    0.167762    0.000000
    72  O2    c     0.759652    0.333047    0.497558    0.000000
    73  O3    c     0.583390    0.341865    0.001820    0.000000
    74  O2    c     0.753688    0.414831    0.662294    0.000000
    75  O2    c     0.659328    0.232738    0.333091    0.000000
    76  O2    c     0.417117    0.648476    0.500003    0.000000
    77  O2    c     0.244315    0.575666    0.166663    0.000000
    78  O2    c     0.350449    0.749679    0.833332    0.000000
    79  O3    c     0.133594    0.220536    0.977884    0.000000
    80  O2    c     0.787070    0.906091    0.306161    0.000000
    81  O2    c     0.083526    0.866363    0.637422    0.000000
    82  O2    c     0.872712    0.779770    0.471728    0.000000
    83  O2    c     0.220419    0.078022    0.803839    0.000000
    84  O2    c     0.918350    0.122959    0.139235    0.000000
    85  O2    c     0.211608    0.120791    0.360534    0.000000
    86  O2    c     0.911927    0.777860    0.029100    0.000000
    87  O3    c     0.872729    0.065720    0.695865    0.000000
    88  O2    c     0.794885    0.861961    0.859847    0.000000
    89  O2    c     0.083937    0.203207    0.526796    0.000000
    90  O2    c     0.129136    0.909014    0.194554    0.000000
    91  O2    c     0.937433    0.855255    0.252319    0.000000
    92  O2    c     0.139688    0.065636    0.583600    0.000000
    93  O3    c     0.940905    0.048294    0.916737    0.000000
    94  O2    c     0.078442    0.138139    0.750091    0.000000
    95  O2    c     0.869549    0.921258    0.087865    0.000000
    96  O2    c     0.070437    0.929852    0.417545    0.000000
    97  O3    c     0.894885    0.202661    0.979374    0.000000
    98  O2    c     0.796748    0.692030    0.313561    0.000000
    99  O2    c     0.302976    0.079957    0.644165    0.000000
   100  O2    c     0.096360    0.787497    0.478184    0.000000
   101  O2    c     0.212472    0.290213    0.815672    0.000000
   102  O2    c     0.702367    0.901097    0.147346    0.000000
   103  O2    c     0.204443    0.898042    0.353925    0.000000
   104  O2    c     0.712086    0.818185    0.019950    0.000000
   105  O2    c     0.082315    0.288080    0.687005    0.000000
   106  O2    c     0.799962    0.084089    0.858069    0.000000
   107  O2    c     0.299140    0.194114    0.519018    0.000000
   108  O2    c     0.906766    0.695232    0.188017    0.000000
   109  O2    c     0.325820    0.641525    0.249773    0.000000
   110  O2    c     0.347824    0.663068    0.582805    0.000000
   111  O2    c     0.333372    0.667484    0.917408    0.000000
   112  O2    c     0.683580    0.336267    0.746180    0.000000
   113  O2    c     0.650231    0.324565    0.085538    0.000000
   114  O2    c     0.676115    0.315623    0.415520    0.000000
   115  O3    c     0.375532    0.315694    0.974124    0.000000
   116  O2    c     0.670182    0.037854    0.304236    0.000000
   117  O2    c     0.949187    0.620440    0.634355    0.000000
   118  O2    c     0.623471    0.661956    0.470209    0.000000
   119  O2    c     0.341733    0.946325    0.802640    0.000000
   120  O2    c     0.050493    0.369359    0.137483    0.000000
   121  O2    c     0.328506    0.369117    0.362372    0.000000
   122  O2    c     0.048369    0.665602    0.030653    0.000000
   123  O3    c     0.622054    0.922294    0.691961    0.000000
   124  O2    c     0.681141    0.614041    0.863570    0.000000
   125  O2    c     0.953407    0.322620    0.527398    0.000000
   126  O2    c     0.376687    0.041574    0.196295    0.000000
   127  O2    c     0.771967    0.301097    0.013384    0.000000
   128  O2    c     0.696206    0.460866    0.343491    0.000000
   129  O2    c     0.533311    0.211386    0.675875    0.000000
   130  O2    c     0.226295    0.685262    0.509541    0.000000
   131  O2    c     0.316470    0.521210    0.847673    0.000000
   132  O2    c     0.470943    0.767373    0.177524    0.000000
   133  O2    c     0.304223    0.766577    0.322334    0.000000
   134  O2    c     0.479788    0.701292    0.988259    0.000000
   135  O2    c     0.217610    0.515311    0.654533    0.000000
   136  O2    c     0.702591    0.216026    0.820274    0.000000
   137  O2    c     0.530657    0.295225    0.488214    0.000000
   138  O2    c     0.777903    0.463512    0.157771    0.000000
   139  O2    c     0.789371    0.530979    0.029343    0.000000
   140  O2    c     0.464167    0.245162    0.360441    0.000000
   141  O3    c     0.759869    0.212583    0.686942    0.000000
   142  O2    c     0.211351    0.453253    0.528294    0.000000
   143  O2    c     0.541424    0.729838    0.864978    0.000000
   144  O2    c     0.254186    0.782380    0.195061    0.000000
   145  O2    c     0.535892    0.779160    0.305275    0.000000
   146  O2    c     0.273415    0.468901    0.973661    0.000000
   147  O2    c     0.207989    0.737753    0.637564    0.000000
   148  O2    c     0.475780    0.198399    0.799582    0.000000
   149  O2    c     0.748034    0.527246    0.471293    0.000000
   150  O2    c     0.790423    0.247054    0.137859    0.000000
   151  O2    c     0.242090    0.318694    0.901553    0.000000
   152  O2    c     0.678723    0.903333    0.231752    0.000000
   153  O2    c     0.088749    0.760896    0.562723    0.000000
   154  O2    c     0.766880    0.669557    0.397763    0.000000
   155  O2    c     0.331835    0.070462    0.729638    0.000000
   156  O2    c     0.917870    0.229181    0.064116    0.000000
   157  O2    c     0.321252    0.225489    0.434464    0.000000
   158  O2    c     0.911875    0.670701    0.103483    0.000000
   159  O3    c     0.787939    0.079709    0.773149    0.000000
   160  O2    c     0.688768    0.758212    0.936078    0.000000
   161  O2    c     0.079506    0.309343    0.601122    0.000000
   162  O2    c     0.234649    0.907060    0.268899    0.000000
   163  O3    c     0.611919    0.574584    0.998880    0.000000
   164  O2    c     0.441733    0.024665    0.324400    0.000000
   165  O2    c     0.962586    0.405991    0.655252    0.000000
   166  O2    c     0.409150    0.432776    0.489869    0.000000
   167  O2    c     0.567338    0.959002    0.821976    0.000000
   168  O2    c     0.035881    0.584413    0.157944    0.000000
   169  O2    c     0.557764    0.581759    0.342709    0.000000
   170  O2    c     0.034721    0.438199    0.009018    0.000000
   171  O2    c     0.420976    0.956073    0.674670    0.000000
   172  O2    c     0.450767    0.398552    0.847267    0.000000
   173  O2    c     0.968490    0.551506    0.507142    0.000000
   174  O2    c     0.590554    0.026209    0.176747    0.000000
   175  O2    c     0.583384    0.161892    0.250553    0.000000
   176  O2    c     0.829524    0.411987    0.580142    0.000000
   177  O3    c     0.611262    0.406156    0.913690    0.000000
   178  O2    c     0.423892    0.821271    0.749428    0.000000
   179  O2    c     0.173881    0.577692    0.083425    0.000000
   180  O2    c     0.414788    0.576196    0.416389    0.000000
   181  F     c     0.455049    0.901335    0.250392    0.000000
   182  F     c     0.089892    0.540453    0.581842    0.000000
   183  F     c     0.484941    0.520994    0.926540    0.000000
   184  F     c     0.588092    0.076370    0.743172    0.000000
   185  F     c     0.917956    0.450001    0.083877    0.000000
   186  F     c     0.546854    0.445237    0.416381    0.000000
   187  O3    s     0.943014    0.996498    0.006768    0.000000
   188  O2    s     0.998375    0.919159    0.335121    0.000000
   189  O2    s     0.082797    0.069816    0.667663    0.000000
   190  O2    s     0.071864    0.989687    0.501078    0.000000
   191  O2    s     0.007753    0.064946    0.833139    0.000000
   192  O2    s     0.927963    0.923834    0.170710    0.000000
   193  O2    s     0.352448    0.582434    0.332875    0.000000
   194  O2    s     0.400774    0.739397    0.666221    0.000000
   195  O2    s     0.240872    0.644830    0.000539    0.000000
   196  O2    s     0.656967    0.403168    0.827869    0.000000
   197  O2    s     0.591731    0.232704    0.167701    0.000000
   198  O2    s     0.763761    0.345113    0.497612    0.000000
   199  O3    s     0.593394    0.351861    0.002804    0.000000
   200  O2    s     0.759117    0.406973    0.662373    0.000000
   201  O2    s     0.647348    0.228635    0.333149    0.000000
   202  O2    s     0.409454    0.636624    0.499957    0.000000
   203  O2    s     0.240053    0.583131    0.166751    0.000000
   204  O2    s     0.361982    0.753484    0.833507    0.000000
   205  O3    s     0.133423    0.223885    0.974878    0.000000
   206  O2    s     0.783769    0.899265    0.303620    0.000000
   207  O2    s     0.090694    0.869672    0.634901    0.000000
   208  O2    s     0.876105    0.776399    0.469244    0.000000
   209  O2    s     0.224317    0.084173    0.801323    0.000000
   210  O2    s     0.911524    0.119480    0.136849    0.000000
   211  O2    s     0.215131    0.117502    0.363180    0.000000
   212  O2    s     0.906568    0.775530    0.031979    0.000000
   213  O3    s     0.880497    0.074248    0.697667    0.000000
   214  O2    s     0.791610    0.864734    0.862868    0.000000
   215  O2    s     0.090759    0.206630    0.529459    0.000000
   216  O2    s     0.125865    0.902254    0.197320    0.000000
   217  O2    s     0.935072    0.852752    0.252179    0.000000
   218  O2    s     0.141934    0.065850    0.583481    0.000000
   219  O3    s     0.937738    0.050661    0.915816    0.000000
   220  O2    s     0.078303    0.138443    0.750750    0.000000
   221  O2    s     0.866781    0.921875    0.087585    0.000000
   222  O2    s     0.071248    0.927419    0.417446    0.000000
   223  O3    s     0.902544    0.204498    0.982138    0.000000
   224  O2    s     0.795297    0.698148    0.316223    0.000000
   225  O2    s     0.297630    0.073601    0.647041    0.000000
   226  O2    s     0.088694    0.786346    0.480940    0.000000
   227  O2    s     0.213756    0.284417    0.818070    0.000000
   228  O2    s     0.708470    0.908255    0.150155    0.000000
   229  O2    s     0.205667    0.905668    0.351345    0.000000
   230  O2    s     0.717706    0.812887    0.018092    0.000000
   231  O2    s     0.076377    0.282868    0.684189    0.000000
   232  O2    s     0.799959    0.077088    0.854900    0.000000
   233  O2    s     0.292934    0.195604    0.516553    0.000000
   234  O2    s     0.914295    0.701243    0.185518    0.000000
   235  O2    s     0.331457    0.653014    0.249787    0.000000
   236  O2    s     0.335851    0.656981    0.582722    0.000000
   237  O2    s     0.339035    0.662782    0.917319    0.000000
   238  O2    s     0.677793    0.326149    0.746426    0.000000
   239  O2    s     0.661106    0.329291    0.085629    0.000000
   240  O2    s     0.670091    0.321641    0.415534    0.000000
   241  O3    s     0.374687    0.325720    0.971528    0.000000
   242  O2    s     0.660107    0.031158    0.301974    0.000000
   243  O2    s     0.956277    0.616914    0.632141    0.000000
   244  O2    s     0.620434    0.652003    0.467955    0.000000
   245  O2    s     0.350707    0.952242    0.800401    0.000000
   246  O2    s     0.043829    0.372867    0.135189    0.000000
   247  O2    s     0.338462    0.372161    0.364567    0.000000
   248  O2    s     0.041780    0.655171    0.032841    0.000000
   249  O3    s     0.614223    0.926627    0.694160    0.000000
   250  O2    s     0.672303    0.611721    0.865736    0.000000
   251  O2    s     0.959973    0.332419    0.529712    0.000000
   252  O2    s     0.380110    0.034907    0.198554    0.000000
   253  O2    s     0.779529    0.308767    0.016151    0.000000
   254  O2    s     0.688511    0.460351    0.346626    0.000000
   255  O2    s     0.534036    0.204776    0.678352    0.000000
   256  O2    s     0.219007    0.677777    0.512685    0.000000
   257  O2    s     0.323263    0.522253    0.850411    0.000000
   258  O2    s     0.470145    0.774236    0.180650    0.000000
   259  O2    s     0.311953    0.773623    0.319260    0.000000
   260  O2    s     0.478343    0.693283    0.985971    0.000000
   261  O2    s     0.210615    0.516285    0.651485    0.000000
   262  O2    s     0.695954    0.209916    0.817411    0.000000
   263  O2    s     0.531063    0.302896    0.485088    0.000000
   264  O2    s     0.784524    0.463140    0.154588    0.000000
   265  O2    s     0.794444    0.528926    0.032017    0.000000
   266  O2    s     0.466661    0.252870    0.363082    0.000000
   267  O3    s     0.749812    0.209823    0.689776    0.000000
   268  O2    s     0.205931    0.456075    0.530721    0.000000
   269  O2    s     0.538810    0.723674    0.867026    0.000000
   270  O2    s     0.262087    0.787356    0.197621    0.000000
   271  O2    s     0.533091    0.784427    0.302674    0.000000
   272  O2    s     0.278972    0.471945    0.971462    0.000000
   273  O2    s     0.202643    0.729770    0.634875    0.000000
   274  O2    s     0.477705    0.194067    0.797571    0.000000
   275  O2    s     0.740222    0.524860    0.468647    0.000000
   276  O2    s     0.795641    0.255107    0.135488    0.000000
   277  O2    s     0.251086    0.327049    0.901790    0.000000
   278  O2    s     0.668956    0.903245    0.232688    0.000000
   279  O2    s     0.088722    0.751286    0.563700    0.000000
   280  O2    s     0.757567    0.660074    0.398693    0.000000
   281  O2    s     0.340465    0.071708    0.730532    0.000000
   282  O2    s     0.916822    0.238382    0.065193    0.000000
   283  O2    s     0.330809    0.234799    0.433609    0.000000
   284  O2    s     0.911837    0.661156    0.102671    0.000000
   285  O3    s     0.776137    0.079694    0.773750    0.000000
   286  O2    s     0.680324    0.750792    0.935034    0.000000
   287  O2    s     0.080322    0.319093    0.600242    0.000000
   288  O2    s     0.244090    0.906586    0.268054    0.000000
   289  O3    s     0.607672    0.579256    0.995145    0.000000
   290  O2    s     0.441497    0.019746    0.320982    0.000000
   291  O2    s     0.967397    0.409918    0.651862    0.000000
   292  O2    s     0.413877    0.432383    0.486507    0.000000
   293  O2    s     0.566853    0.962666    0.819065    0.000000
   294  O2    s     0.030693    0.579579    0.154612    0.000000
   295  O2    s     0.558018    0.577102    0.346038    0.000000
   296  O2    s     0.029796    0.438380    0.012526    0.000000
   297  O2    s     0.423826    0.960314    0.677606    0.000000
   298  O2    s     0.449959    0.402667    0.849830    0.000000
   299  O2    s     0.973297    0.551560    0.510541    0.000000
   300  O2    s     0.585768    0.021358    0.180126    0.000000
   301  O2    s     0.578056    0.150937    0.250495    0.000000
   302  O2    s     0.840716    0.417428    0.580190    0.000000
   303  O3    s     0.605491    0.413129    0.911851    0.000000
   304  O2    s     0.428647    0.830799    0.749744    0.000000
   305  O2    s     0.162442    0.572321    0.083425    0.000000
   306  O2    s     0.420362    0.570629    0.416341    0.000000
   307  F     s     0.454990    0.901086    0.250412    0.000000
   308  F     s     0.090329    0.540998    0.581871    0.000000
   309  F     s     0.488956    0.515149    0.928986    0.000000
   310  F     s     0.596836    0.076239    0.741706    0.000000
   311  F     s     0.918662    0.450002    0.083831    0.000000
   312  F     s     0.547152    0.445010    0.416427    0.000000
--------------------------------------------------------------------------------

  Final Cartesian lattice vectors (Angstroms) :

       11.909610    0.002349    0.005922
       -5.864032   10.414162   -0.004257
        0.110365    0.026166   29.525789


  Final cell parameters and derivatives :

--------------------------------------------------------------------------------
       a           11.909611 Angstrom     dE/de1(xx)    -0.000900 eV/strain
       b           11.951638 Angstrom     dE/de2(yy)    -0.000866 eV/strain
       c           29.526007 Angstrom     dE/de3(zz)    -0.001050 eV/strain
       alpha       90.081244 Degrees      dE/de4(yz)    -0.000072 eV/strain
       beta        89.757337 Degrees      dE/de5(xz)    -0.000153 eV/strain
       gamma      119.371805 Degrees      dE/de6(xy)     0.000018 eV/strain
--------------------------------------------------------------------------------

  Primitive cell volume =          3662.442616 Angs**3

  Density of cell =      1.746947 g/cm**3

  Non-primitive cell volume =          3662.442616 Angs**3


  Final internal derivatives :

--------------------------------------------------------------------------------
   No.  Atomic          a             b             c           Radius
        Label          (eV)          (eV)          (eV)        (eV/Angs)
--------------------------------------------------------------------------------
      1 Si    c       0.000000      0.000000      0.000000      0.000000
      2 Si    c      -0.000034     -0.000009      0.000052      0.000000
      3 Si    c      -0.000002      0.000260     -0.000167      0.000000
      4 Si    c       0.000231     -0.000000     -0.000156      0.000000
      5 Si    c      -0.000117      0.000200      0.000532      0.000000
      6 Si    c       0.000075     -0.000107      0.000420      0.000000
      7 Si    c      -0.000065     -0.000083     -0.000720      0.000000
      8 Si    c      -0.000170      0.000190     -0.000350      0.000000
      9 Si    c       0.000109      0.000024     -0.000311      0.000000
     10 Si    c       0.000066      0.000062     -0.000394      0.000000
     11 Si    c       0.000143     -0.000210      0.000173      0.000000
     12 Si    c      -0.000338      0.000144     -0.001452      0.000000
     13 Ge    c       0.000337     -0.000218     -0.000881      0.000000
     14 Si    c      -0.000035      0.000062     -0.000581      0.000000
     15 Si    c      -0.000105     -0.000103      0.000004      0.000000
     16 Si    c      -0.000093      0.000147     -0.000020      0.000000
     17 Si    c       0.000018     -0.000069     -0.000618      0.000000
     18 Si    c      -0.000019      0.000030      0.000103      0.000000
     19 Si    c      -0.000086      0.000120      0.000016      0.000000
     20 Si    c      -0.000375     -0.000093     -0.000184      0.000000
     21 Si    c      -0.000092     -0.000228     -0.000101      0.000000
     22 Si    c       0.000356     -0.000636      0.001260      0.000000
     23 Si    c      -0.000147     -0.000068     -0.000184      0.000000
     24 Si    c       0.000020      0.000269      0.000169      0.000000
     25 Si    c      -0.000161      0.000014      0.000090      0.000000
     26 Si    c       0.000112     -0.000111      0.000193      0.000000
     27 Si    c       0.000022      0.000080     -0.000027      0.000000
     28 Si    c       0.000045      0.000041      0.000271      0.000000
     29 Si    c      -0.000088      0.000060      0.000279      0.000000
     30 Si    c      -0.000163      0.000450      0.000782      0.000000
     31 Si    c       0.000010     -0.000130     -0.000061      0.000000
     32 Si    c      -0.000022     -0.000178     -0.000411      0.000000
     33 Si    c       0.000259     -0.000126      0.000328      0.000000
     34 Si    c       0.000075     -0.000013     -0.000625      0.000000
     35 Si    c       0.000046     -0.000126      0.000232      0.000000
     36 Si    c      -0.000187      0.000113     -0.000270      0.000000
     37 Si    c      -0.000129     -0.000149     -0.000510      0.000000
     38 Si    c       0.000080     -0.000058     -0.000366      0.000000
     39 Si    c      -0.000043      0.000207      0.000080      0.000000
     40 Si    c      -0.000025      0.000052     -0.000301      0.000000
     41 Si    c      -0.000038      0.000042     -0.000396      0.000000
     42 Si    c      -0.000126      0.000178     -0.000677      0.000000
     43 Si    c      -0.000020     -0.000056      0.000057      0.000000
     44 Si    c      -0.000037     -0.000496     -0.000579      0.000000
     45 Ge    c       0.000252     -0.000140      0.000300      0.000000
     46 Si    c       0.000020      0.000201      0.000179      0.000000
     47 Si    c      -0.000066     -0.000056     -0.000076      0.000000
     48 Si    c      -0.000132      0.000079      0.000366      0.000000
     49 Ge    c      -0.000467      0.000914     -0.001089      0.000000
     50 Si    c       0.000397     -0.000062     -0.001175      0.000000
     51 Si    c       0.000049     -0.000104      0.000043      0.000000
     52 Si    c       0.000076      0.000052     -0.000549      0.000000
     53 Si    c       0.000460      0.000005     -0.000300      0.000000
     54 Si    c      -0.000431      0.000368      0.001269      0.000000
     55 Si    c      -0.000043      0.000117      0.000293      0.000000
     56 Si    c      -0.000429     -0.001121      0.000479      0.000000
     57 Si    c      -0.000246      0.000298      0.000163      0.000000
     58 Si    c      -0.000882      0.000475      0.000467      0.000000
     59 Si    c       0.000130      0.000010      0.000039      0.000000
     60 Si    c       0.000021      0.000023      0.000723      0.000000
     61 O3    c       0.001331      0.000316     -0.002062      0.000000
     62 O2    c      -0.000190     -0.000074     -0.000345      0.000000
     63 O2    c       0.000177     -0.000195     -0.000416      0.000000
     64 O2    c       0.000056     -0.000078     -0.000102      0.000000
     65 O2    c       0.000084     -0.000208     -0.000035      0.000000
     66 O2    c       0.000127     -0.000042      0.000212      0.000000
     67 O2    c       0.000098     -0.000070      0.000158      0.000000
     68 O2    c       0.000000      0.000269      0.000398      0.000000
     69 O2    c       0.000174     -0.000097     -0.000286      0.000000
     70 O2    c      -0.000365      0.000260      0.000712      0.000000
     71 O2    c       0.000229     -0.000178     -0.000003      0.000000
     72 O2    c      -0.000035      0.000155      0.000012      0.000000
     73 O3    c       0.000361      0.000136     -0.000794      0.000000
     74 O2    c       0.000066     -0.000218      0.000251      0.000000
     75 O2    c      -0.000057      0.000114      0.000295      0.000000
     76 O2    c      -0.000053     -0.000080      0.000076      0.000000
     77 O2    c      -0.000028      0.000043      0.000021      0.000000
     78 O2    c       0.000147     -0.000212      0.000448      0.000000
     79 O3    c       0.000516      0.000260     -0.000267      0.000000
     80 O2    c      -0.000154      0.000106     -0.000081      0.000000
     81 O2    c       0.000047      0.000102     -0.000145      0.000000
     82 O2    c       0.000106      0.000020     -0.000083      0.000000
     83 O2    c      -0.000124      0.000094     -0.000028      0.000000
     84 O2    c       0.000027      0.000059      0.000117      0.000000
     85 O2    c       0.000020     -0.000073      0.000162      0.000000
     86 O2    c       0.000091     -0.000036      0.000066      0.000000
     87 O3    c       0.000097      0.000225      0.000254      0.000000
     88 O2    c      -0.000009      0.000083      0.000173      0.000000
     89 O2    c       0.000084     -0.000083      0.000071      0.000000
     90 O2    c       0.000095     -0.000047      0.000059      0.000000
     91 O2    c      -0.000307      0.000015      0.001513      0.000000
     92 O2    c      -0.000029      0.000047     -0.000489      0.000000
     93 O3    c       0.000085     -0.000194     -0.001061      0.000000
     94 O2    c      -0.000163      0.000048     -0.001248      0.000000
     95 O2    c       0.000276     -0.000124      0.000320      0.000000
     96 O2    c      -0.000056     -0.000117      0.000734      0.000000
     97 O3    c      -0.000172      0.000033     -0.000256      0.000000
     98 O2    c       0.000001      0.000056      0.000027      0.000000
     99 O2    c      -0.000113     -0.000015     -0.000017      0.000000
    100 O2    c      -0.000221      0.000250     -0.000058      0.000000
    101 O2    c      -0.000031      0.000019      0.000143      0.000000
    102 O2    c       0.000061      0.000011     -0.000062      0.000000
    103 O2    c       0.000072     -0.000020     -0.000152      0.000000
    104 O2    c       0.000051      0.000140      0.000147      0.000000
    105 O2    c       0.000026     -0.000371      0.000238      0.000000
    106 O2    c       0.000131     -0.000065     -0.000045      0.000000
    107 O2    c      -0.000216      0.000009      0.000015      0.000000
    108 O2    c      -0.000007     -0.000027      0.000014      0.000000
    109 O2    c       0.000025      0.000150      0.000351      0.000000
    110 O2    c      -0.000112      0.000042      0.000351      0.000000
    111 O2    c       0.000140     -0.000120     -0.000311      0.000000
    112 O2    c      -0.000085     -0.000108      0.000626      0.000000
    113 O2    c       0.000585     -0.000289      0.001435      0.000000
    114 O2    c      -0.000047      0.000088      0.000165      0.000000
    115 O3    c       0.000070     -0.000109     -0.000080      0.000000
    116 O2    c      -0.000005      0.000019      0.000026      0.000000
    117 O2    c      -0.000013     -0.000020     -0.000002      0.000000
    118 O2    c      -0.000046     -0.000009     -0.000043      0.000000
    119 O2    c      -0.000002      0.000005      0.000001      0.000000
    120 O2    c      -0.000044      0.000002     -0.000048      0.000000
    121 O2    c       0.000006     -0.000028      0.000058      0.000000
    122 O2    c      -0.000150     -0.000019      0.000150      0.000000
    123 O3    c      -0.000012     -0.000034      0.000041      0.000000
    124 O2    c       0.000038     -0.000017     -0.000063      0.000000
    125 O2    c      -0.000035      0.000051      0.000067      0.000000
    126 O2    c       0.000001     -0.000005      0.000025      0.000000
    127 O2    c       0.000670     -0.000202      0.000110      0.000000
    128 O2    c      -0.000010      0.000018      0.000052      0.000000
    129 O2    c       0.000043      0.000015      0.000053      0.000000
    130 O2    c      -0.000034      0.000034      0.000020      0.000000
    131 O2    c      -0.000068      0.000009     -0.000066      0.000000
    132 O2    c       0.000027      0.000054      0.000048      0.000000
    133 O2    c      -0.000010      0.000010     -0.000003      0.000000
    134 O2    c      -0.000036      0.000014     -0.000037      0.000000
    135 O2    c       0.000004      0.000022     -0.000022      0.000000
    136 O2    c      -0.000025      0.000021     -0.000041      0.000000
    137 O2    c       0.000051      0.000006     -0.000122      0.000000
    138 O2    c       0.000083      0.000012     -0.000233      0.000000
    139 O2    c       0.000671     -0.000534     -0.000019      0.000000
    140 O2    c       0.000053      0.000027      0.000090      0.000000
    141 O3    c      -0.000039      0.000035     -0.000040      0.000000
    142 O2    c      -0.000008      0.000013     -0.000004      0.000000
    143 O2    c       0.000086     -0.000017      0.000061      0.000000
    144 O2    c      -0.000031      0.000012     -0.000055      0.000000
    145 O2    c       0.000017      0.000047     -0.000037      0.000000
    146 O2    c      -0.000085      0.000036      0.000091      0.000000
    147 O2    c       0.000031     -0.000039     -0.000103      0.000000
    148 O2    c       0.000022     -0.000020     -0.000114      0.000000
    149 O2    c      -0.000039      0.000002     -0.000119      0.000000
    150 O2    c      -0.000129      0.000122     -0.000058      0.000000
    151 O2    c       0.000105     -0.000010      0.000901      0.000000
    152 O2    c      -0.000129      0.000084      0.000000      0.000000
    153 O2    c       0.000019     -0.000013     -0.000017      0.000000
    154 O2    c      -0.000036     -0.000053     -0.000076      0.000000
    155 O2    c       0.000105     -0.000031      0.000133      0.000000
    156 O2    c      -0.000212      0.000293      0.000412      0.000000
    157 O2    c       0.000049      0.000058      0.000017      0.000000
    158 O2    c       0.000064     -0.000099      0.000078      0.000000
    159 O3    c      -0.000196     -0.000039     -0.000543      0.000000
    160 O2    c      -0.000075     -0.000058      0.000016      0.000000
    161 O2    c      -0.000024      0.000031      0.000071      0.000000
    162 O2    c       0.000120     -0.000057     -0.000011      0.000000
    163 O3    c      -0.000087      0.000152     -0.000353      0.000000
    164 O2    c      -0.000004      0.000008     -0.000000      0.000000
    165 O2    c      -0.000066      0.000074     -0.000160      0.000000
    166 O2    c       0.000006      0.000000     -0.000039      0.000000
    167 O2    c       0.000012      0.000012     -0.000038      0.000000
    168 O2    c       0.000077     -0.000072     -0.000156      0.000000
    169 O2    c      -0.000019     -0.000004      0.000028      0.000000
    170 O2    c      -0.000177      0.000274      0.000693      0.000000
    171 O2    c      -0.000014      0.000012     -0.000031      0.000000
    172 O2    c       0.000117     -0.000062     -0.000095      0.000000
    173 O2    c       0.000009     -0.000052      0.000051      0.000000
    174 O2    c       0.000000     -0.000030     -0.000033      0.000000
    175 O2    c       0.000010     -0.000158      0.000091      0.000000
    176 O2    c       0.000048      0.000001      0.000235      0.000000
    177 O3    c      -0.000570      0.000687     -0.000932      0.000000
    178 O2    c      -0.000021      0.000151      0.000419      0.000000
    179 O2    c      -0.000023      0.000015     -0.000089      0.000000
    180 O2    c       0.000068     -0.000077      0.000048      0.000000
    181 F     c      -0.000029      0.000011     -0.000081      0.000000
    182 F     c       0.000019     -0.000028     -0.000177      0.000000
    183 F     c       0.000183     -0.000308      0.000443      0.000000
    184 F     c       0.000031     -0.000034     -0.000171      0.000000
    185 F     c      -0.000052      0.000015     -0.000315      0.000000
    186 F     c      -0.000027      0.000013     -0.000112      0.000000
    187 O3    s      -0.000234     -0.000124      0.000944      0.000000
    188 O2    s       0.000051     -0.000085     -0.000267      0.000000
    189 O2    s      -0.000093      0.000115     -0.000033      0.000000
    190 O2    s       0.000008     -0.000046     -0.000016      0.000000
    191 O2    s       0.000030      0.000018     -0.000278      0.000000
    192 O2    s      -0.000047     -0.000058      0.000456      0.000000
    193 O2    s      -0.000042      0.000092     -0.000055      0.000000
    194 O2    s       0.000020     -0.000137     -0.000071      0.000000
    195 O2    s      -0.000072      0.000042      0.000129      0.000000
    196 O2    s       0.000180     -0.000027     -0.000257      0.000000
    197 O2    s      -0.000124      0.000111     -0.000287      0.000000
    198 O2    s       0.000003     -0.000085     -0.000092      0.000000
    199 O3    s      -0.000517      0.000235      0.000754      0.000000
    200 O2    s      -0.000064      0.000145     -0.000206      0.000000
    201 O2    s      -0.000006     -0.000030     -0.000106      0.000000
    202 O2    s       0.000031      0.000034     -0.000118      0.000000
    203 O2    s      -0.000029     -0.000005     -0.000012      0.000000
    204 O2    s      -0.000093      0.000079     -0.000261      0.000000
    205 O3    s      -0.000094     -0.000046     -0.000058      0.000000
    206 O2    s       0.000111     -0.000150     -0.000043      0.000000
    207 O2    s       0.000015      0.000068      0.000129      0.000000
    208 O2    s       0.000141     -0.000011      0.000192      0.000000
    209 O2    s       0.000153     -0.000034      0.000049      0.000000
    210 O2    s      -0.000093      0.000261     -0.000082      0.000000
    211 O2    s       0.000029     -0.000003     -0.000163      0.000000
    212 O2    s       0.000205     -0.000570     -0.000403      0.000000
    213 O3    s       0.000139     -0.000062     -0.000057      0.000000
    214 O2    s      -0.000244      0.000097     -0.000084      0.000000
    215 O2    s       0.000111     -0.000063      0.000080      0.000000
    216 O2    s       0.000034     -0.000026      0.000083      0.000000
    217 O2    s       0.000091      0.000048      0.000071      0.000000
    218 O2    s       0.000004      0.000016      0.000031      0.000000
    219 O3    s       0.000235     -0.000310     -0.000081      0.000000
    220 O2    s      -0.000101      0.000069     -0.000170      0.000000
    221 O2    s      -0.000242      0.000201      0.000791      0.000000
    222 O2    s       0.000032     -0.000073      0.000015      0.000000
    223 O3    s       0.000110      0.000288      0.000448      0.000000
    224 O2    s       0.000024      0.000109      0.000046      0.000000
    225 O2    s      -0.000115      0.000027     -0.000019      0.000000
    226 O2    s      -0.000065      0.000084     -0.000296      0.000000
    227 O2    s       0.000024     -0.000011      0.000270      0.000000
    228 O2    s      -0.000125     -0.000047      0.000479      0.000000
    229 O2    s      -0.000053      0.000010     -0.000078      0.000000
    230 O2    s      -0.000341     -0.000280     -0.000187      0.000000
    231 O2    s       0.000015     -0.000079     -0.000060      0.000000
    232 O2    s      -0.000087     -0.000225     -0.000225      0.000000
    233 O2    s      -0.000057      0.000001      0.000111      0.000000
    234 O2    s       0.000027     -0.000087     -0.000145      0.000000
    235 O2    s      -0.000000     -0.000074     -0.000225      0.000000
    236 O2    s       0.000177     -0.000086     -0.000324      0.000000
    237 O2    s      -0.000069      0.000126      0.000280      0.000000
    238 O2    s       0.000127      0.000100     -0.000434      0.000000
    239 O2    s      -0.000335      0.000126      0.000277      0.000000
    240 O2    s       0.000010     -0.000031      0.000008      0.000000
    241 O3    s       0.000216     -0.000102      0.000459      0.000000
    242 O2    s      -0.000003     -0.000053     -0.000016      0.000000
    243 O2    s       0.000081     -0.000003     -0.000048      0.000000
    244 O2    s       0.000023     -0.000005      0.000101      0.000000
    245 O2    s      -0.000002     -0.000005      0.000059      0.000000
    246 O2    s       0.000016      0.000029     -0.000038      0.000000
    247 O2    s       0.000032      0.000010     -0.000050      0.000000
    248 O2    s       0.000172      0.000096      0.000058      0.000000
    249 O3    s      -0.000023      0.000038     -0.000092      0.000000
    250 O2    s      -0.000140      0.000030      0.000084      0.000000
    251 O2    s       0.000059     -0.000034     -0.000118      0.000000
    252 O2    s       0.000055     -0.000002     -0.000070      0.000000
    253 O2    s       0.000146     -0.000605     -0.000591      0.000000
    254 O2    s      -0.000012     -0.000023     -0.000063      0.000000
    255 O2    s       0.000034     -0.000071     -0.000110      0.000000
    256 O2    s      -0.000021     -0.000053     -0.000053      0.000000
    257 O2    s       0.000031      0.000020     -0.000165      0.000000
    258 O2    s       0.000005     -0.000037      0.000026      0.000000
    259 O2    s       0.000006      0.000048      0.000036      0.000000
    260 O2    s      -0.000072      0.000058      0.000129      0.000000
    261 O2    s      -0.000016     -0.000059      0.000099      0.000000
    262 O2    s       0.000049     -0.000035      0.000186      0.000000
    263 O2    s      -0.000017      0.000001      0.000172      0.000000
    264 O2    s       0.000028     -0.000184     -0.000028      0.000000
    265 O2    s      -0.000688      0.000915      0.000323      0.000000
    266 O2    s       0.000016     -0.000050     -0.000083      0.000000
    267 O3    s       0.000097     -0.000108      0.000079      0.000000
    268 O2    s       0.000001     -0.000037      0.000013      0.000000
    269 O2    s       0.000087     -0.000034     -0.000012      0.000000
    270 O2    s       0.000064     -0.000011      0.000109      0.000000
    271 O2    s       0.000022     -0.000001     -0.000054      0.000000
    272 O2    s       0.000025      0.000029      0.000191      0.000000
    273 O2    s      -0.000160      0.000115      0.000230      0.000000
    274 O2    s      -0.000109      0.000021      0.000291      0.000000
    275 O2    s       0.000041      0.000061      0.000215      0.000000
    276 O2    s      -0.000048      0.000067      0.000262      0.000000
    277 O2    s      -0.000183     -0.000152     -0.000519      0.000000
    278 O2    s       0.000080     -0.000081      0.000086      0.000000
    279 O2    s      -0.000037     -0.000041      0.000084      0.000000
    280 O2    s      -0.000014      0.000032     -0.000008      0.000000
    281 O2    s      -0.000107      0.000015     -0.000147      0.000000
    282 O2    s       0.000349     -0.000434     -0.000267      0.000000
    283 O2    s      -0.000030     -0.000057      0.000059      0.000000
    284 O2    s      -0.000176      0.000273     -0.000001      0.000000
    285 O3    s       0.000160      0.000123      0.000282      0.000000
    286 O2    s       0.000067      0.000114     -0.000275      0.000000
    287 O2    s       0.000046     -0.000023     -0.000006      0.000000
    288 O2    s      -0.000032     -0.000006      0.000080      0.000000
    289 O3    s       0.000187     -0.000458      0.000630      0.000000
    290 O2    s       0.000015     -0.000081     -0.000107      0.000000
    291 O2    s       0.000079     -0.000053      0.000255      0.000000
    292 O2    s       0.000006     -0.000015      0.000065      0.000000
    293 O2    s       0.000012     -0.000003      0.000132      0.000000
    294 O2    s       0.000024     -0.000046      0.000063      0.000000
    295 O2    s       0.000015      0.000003     -0.000000      0.000000
    296 O2    s       0.000182     -0.000207     -0.000433      0.000000
    297 O2    s      -0.000004      0.000024      0.000081      0.000000
    298 O2    s       0.000008      0.000086     -0.000091      0.000000
    299 O2    s      -0.000010      0.000087     -0.000054      0.000000
    300 O2    s      -0.000023      0.000030      0.000140      0.000000
    301 O2    s      -0.000032      0.000076     -0.000256      0.000000
    302 O2    s      -0.000209      0.000058     -0.000218      0.000000
    303 O3    s       0.000188     -0.000279      0.000011      0.000000
    304 O2    s       0.000001     -0.000112     -0.000380      0.000000
    305 O2    s      -0.000045     -0.000027      0.000151      0.000000
    306 O2    s      -0.000073      0.000091     -0.000100      0.000000
    307 F     s       0.000049     -0.000003      0.000157      0.000000
    308 F     s      -0.000015      0.000047      0.000216      0.000000
    309 F     s       0.000208     -0.000115      0.000326      0.000000
    310 F     s      -0.000054      0.000046      0.000178      0.000000
    311 F     s       0.000167     -0.000074      0.000708      0.000000
    312 F     s       0.000057     -0.000023      0.000152      0.000000
--------------------------------------------------------------------------------
  Maximum abs         0.001331      0.001121      0.002062      0.000000
--------------------------------------------------------------------------------


  Time to end of optimisation =       9.6301 seconds


  Peak dynamic memory used =      19.13 MB 


  Timing analysis for GULP :

--------------------------------------------------------------------------------
  Task / Subroutine                                          Time (Seconds)
--------------------------------------------------------------------------------
  Calculation of reciprocal space energy and derivatives          0.3514
  Calculation of real space energy and derivatives                7.9058
  Calculation of three-body energy and derivatives                1.0481
  Calculation of matrix inversion                                 0.2821
--------------------------------------------------------------------------------
  Total CPU time                                                  9.6302
--------------------------------------------------------------------------------


  Dump file written as out.res                                                 
  CIF file written as out.cif                                                 


  Job Finished at 01:40.51 28th November   2016                               

