********************************************************************************
*                       GENERAL UTILITY LATTICE PROGRAM                        *
*                                 Julian Gale                                  *
*                      Nanochemistry Research Institute                        *
*                           Department of Chemistry                            *
*                    Curtin University, Western Australia                      *
********************************************************************************
* Version = 4.2.0 * Last modified =  20th January 2014                         *
********************************************************************************
*  optimise     - perform optimisation run                                     *
*  conp         - constant pressure calculation                                *
*  qok          - running with non charge neutral cell is OK                   *
********************************************************************************

  Job Started  at 21:43.49 26th November   2016                               

  Number of CPUs =     1


  Total number of configurations input =   1

********************************************************************************
*  Input for Configuration =   1                                               *
********************************************************************************

  Formula = Si57Ge3O120F6                                               

  Number of irreducible atoms/shells =     312


  Total number atoms/shells =     312

  Dimensionality = 3               :  Bulk   


  Charge on solid   =  -6.000000 =>neutralising background added


  Cartesian lattice vectors (Angstroms) :

       11.974559    0.000000    0.000000
       -5.978668   10.374334    0.000000
       -0.051493   -0.291654   29.472181

  Cell parameters (Angstroms/Degrees):

  a =      11.9746    alpha =  90.4413
  b =      11.9738    beta  =  90.1001
  c =      29.4737    gamma = 119.9546

  Initial cell volume =        3661.272121 Angs**3

  Temperature of configuration =  0.000     K 

  Pressure of configuration =         0.000 GPa 

  Fractional coordinates of asymmetric unit :

--------------------------------------------------------------------------------
   No.  Atomic       x           y          z         Charge      Occupancy
        Label      (Frac)      (Frac)     (Frac)        (e)         (Frac)  
--------------------------------------------------------------------------------
      1 Si    c    0.699600    0.375700    0.033890     4.00000    1.000000    
      2 Si    c    0.620061 *  0.325782 *  0.365227 *   4.00000    1.000000    
      3 Si    c    0.676664 *  0.288941 *  0.701204 *   4.00000    1.000000    
      4 Si    c    0.300755 *  0.626804 *  0.532933 *   4.00000    1.000000    
      5 Si    c    0.374714 *  0.681278 *  0.865743 *   4.00000    1.000000    
      6 Si    c    0.323979 *  0.703425 *  0.199606 *   4.00000    1.000000    
      7 Si    c    0.378755 *  0.703734 *  0.300249 *   4.00000    1.000000    
      8 Si    c    0.319128 *  0.618592 *  0.967788 *   4.00000    1.000000    
      9 Si    c    0.306491 *  0.677565 *  0.636318 *   4.00000    1.000000    
     10 Si    c    0.627580 *  0.297401 *  0.801066 *   4.00000    1.000000    
     11 Si    c    0.674768 *  0.381342 *  0.465849 *   4.00000    1.000000    
     12 Si    c    0.701425 *  0.322525 *  0.134367 *   4.00000    1.000000    
     13 Si    c    0.528014 *  0.411331 *  0.967251 *   4.00000    1.000000    
     14 Si    c    0.582314 *  0.114047 *  0.300682 *   4.00000    1.000000    
     15 Si    c    0.878615 *  0.463881 *  0.635005 *   4.00000    1.000000    
     16 Si    c    0.469268 *  0.583755 *  0.466975 *   4.00000    1.000000    
     17 Si    c    0.420743 *  0.894628 *  0.802563 *   4.00000    1.000000    
     18 Si    c    0.112670 *  0.529859 *  0.134778 *   4.00000    1.000000    
     19 Si    c    0.416405 *  0.531943 *  0.365193 *   4.00000    1.000000    
     20 Si    c    0.110409 *  0.580047 *  0.033247 *   4.00000    1.000000    
     21 Si    c    0.474481 *  0.881892 *  0.702132 *   4.00000    1.000000    
     22 Si    c    0.588617 *  0.468033 *  0.864467 *   4.00000    1.000000    
     23 Si    c    0.884938 *  0.419606 *  0.531076 *   4.00000    1.000000    
     24 Si    c    0.529445 *  0.113083 *  0.199014 *   4.00000    1.000000    
     25 Ge    c    0.315504 *  0.410714 *  0.858543 *   4.00000    1.000000    
     26 Si    c    0.601290 *  0.904077 *  0.185011 *   4.00000    1.000000    
     27 Si    c    0.097936 *  0.705505 *  0.515298 *   4.00000    1.000000    
     28 Si    c    0.696925 *  0.603570 *  0.350781 *   4.00000    1.000000    
     29 Si    c    0.399565 *  0.088342 *  0.684992 *   4.00000    1.000000    
     30 Si    c    0.901575 *  0.299253 *  0.018923 *   4.00000    1.000000    
     31 Si    c    0.396335 *  0.302783 *  0.480789 *   4.00000    1.000000    
     32 Si    c    0.903401 *  0.600879 *  0.148889 *   4.00000    1.000000    
     33 Si    c    0.702229 *  0.096167 *  0.817719 *   4.00000    1.000000    
     34 Si    c    0.600404 *  0.696507 *  0.982499 *   4.00000    1.000000    
     35 Si    c    0.095163 *  0.394949 *  0.648906 *   4.00000    1.000000    
     36 Si    c    0.302102 *  0.905559 *  0.314914 *   4.00000    1.000000    
     37 Si    c    0.244397 *  0.330686 *  0.954290 *   4.00000    1.000000    
     38 Si    c    0.659308 *  0.912409 *  0.285650 *   4.00000    1.000000    
     39 Ge    c    0.089729 *  0.726146 *  0.615498 *   4.00000    1.000000    
     40 Si    c    0.748034 *  0.662189 *  0.451633 *   4.00000    1.000000    
     41 Si    c    0.342469 *  0.094083 *  0.785531 *   4.00000    1.000000    
     42 Si    c    0.911021 *  0.250873 *  0.119557 *   4.00000    1.000000    
     43 Si    c    0.339298 *  0.253436 *  0.379800 *   4.00000    1.000000    
     44 Si    c    0.908954 *  0.656955 *  0.048547 *   4.00000    1.000000    
     45 Si    c    0.752045 *  0.084350 *  0.717526 *   4.00000    1.000000    
     46 Si    c    0.660784 *  0.749406 *  0.880862 *   4.00000    1.000000    
     47 Si    c    0.087037 *  0.339973 *  0.546274 *   4.00000    1.000000    
     48 Si    c    0.251122 *  0.911984 *  0.214187 *   4.00000    1.000000    
     49 Si    c    0.969203 *  0.117915 *  0.969512 *   4.00000    1.000000    
     50 Si    c    0.876670 *  0.849990 *  0.300005 *   4.00000    1.000000    
     51 Ge    c    0.147048 *  0.015768 *  0.633745 *   4.00000    1.000000    
     52 Si    c    0.028186 *  0.880202 *  0.464796 *   4.00000    1.000000    
     53 Si    c    0.127198 *  0.161167 *  0.803518 *   4.00000    1.000000    
     54 Si    c    0.849023 *  0.971322 *  0.134720 *   4.00000    1.000000    
     55 Si    c    0.121321 *  0.973878 *  0.364653 *   4.00000    1.000000    
     56 Si    c    0.847843 *  0.875179 *  0.033922 *   4.00000    1.000000    
     57 Si    c    0.031364 *  0.149730 *  0.701577 *   4.00000    1.000000    
     58 Si    c    0.883209 *  0.029449 *  0.867440 *   4.00000    1.000000    
     59 Si    c    0.150026 *  0.122659 *  0.531634 *   4.00000    1.000000    
     60 Si    c    0.970749 *  0.849692 *  0.199343 *   4.00000    1.000000    
     61 O2    c    0.924557 *  0.994815 *  0.001183 *   0.87073    1.000000    
     62 O2    c    0.000629 *  0.931426 *  0.331490 *   0.87073    1.000000    
     63 O3    c    0.069138 *  0.068441 *  0.669778 *   1.33043    1.000000    
     64 O2    c    0.072532 *  0.001481 *  0.497925 *   0.87073    1.000000    
     65 O2    c    0.003007 *  0.069892 *  0.834716 *   0.87073    1.000000    
     66 O2    c    0.929826 *  0.930169 *  0.166926 *   0.87073    1.000000    
     67 O2    c    0.340181 *  0.581220 *  0.332829 *   0.87073    1.000000    
     68 O2    c    0.430657 *  0.754755 *  0.669996 *   0.87073    1.000000    
     69 O2    c    0.235778 *  0.656984 *  0.001055 *   0.87073    1.000000    
     70 O2    c    0.672204 *  0.422043 *  0.834326 *   0.87073    1.000000    
     71 O2    c    0.578754 *  0.238362 *  0.166854 *   0.87073    1.000000    
     72 O2    c    0.760323 *  0.343219 *  0.498164 *   0.87073    1.000000    
     73 O2    c    0.577625 *  0.337822 *  0.000561 *   0.87073    1.000000    
     74 O2    c    0.752449 *  0.405826 *  0.666237 *   0.87073    1.000000    
     75 O2    c    0.659160 *  0.240699 *  0.332860 *   0.87073    1.000000    
     76 O2    c    0.421364 *  0.660489 *  0.500060 *   0.87073    1.000000    
     77 O2    c    0.239003 *  0.579437 *  0.166915 *   0.87073    1.000000    
     78 O2    c    0.342250 *  0.775648 *  0.837039 *   0.87073    1.000000    
     79 O2    c    0.121711 *  0.210556 *  0.978996 *   0.87073    1.000000    
     80 O2    c    0.785773 *  0.913129 *  0.305872 *   0.87073    1.000000    
     81 O1    c    0.079041 *  0.857774 *  0.638509 *   1.73396    1.000000    
     82 O2    c    0.874127 *  0.789519 *  0.471387 *   0.87073    1.000000    
     83 O2    c    0.220515 *  0.098327 *  0.806638 *   0.87073    1.000000    
     84 O2    c    0.912036 *  0.125618 *  0.139793 *   0.87073    1.000000    
     85 O2    c    0.212791 *  0.127719 *  0.359243 *   0.87073    1.000000    
     86 O2    c    0.909897 *  0.783340 *  0.028460 *   0.87073    1.000000    
     87 O2    c    0.876763 *  0.085447 *  0.696691 *   0.87073    1.000000    
     88 O2    c    0.787846 *  0.874675 *  0.862144 *   0.87073    1.000000    
     89 O2    c    0.090091 *  0.217710 *  0.524448 *   0.87073    1.000000    
     90 O2    c    0.124861 *  0.912605 *  0.194373 *   0.87073    1.000000    
     91 O2    c    0.928012 *  0.861838 *  0.249432 *   0.87073    1.000000    
     92 O3    c    0.132156 *  0.074366 *  0.581565 *   1.33043    1.000000    
     93 O2    c    0.935007 *  0.065468 *  0.918633 *   0.87073    1.000000    
     94 O2    c    0.073218 *  0.146031 *  0.752523 *   0.87073    1.000000    
     95 O2    c    0.860837 *  0.929353 *  0.084284 *   0.87073    1.000000    
     96 O2    c    0.064628 *  0.934788 *  0.414502 *   0.87073    1.000000    
     97 O2    c    0.897513 *  0.199050 *  0.980653 *   0.87073    1.000000    
     98 O2    c    0.794840 *  0.699063 *  0.312490 *   0.87073    1.000000    
     99 O3    c    0.311356 *  0.090237 *  0.644777 *   1.33043    1.000000    
    100 O2    c    0.095916 *  0.794494 *  0.473847 *   0.87073    1.000000    
    101 O3    c    0.201999 *  0.306656 *  0.816795 *   1.33043    1.000000    
    102 O2    c    0.697795 *  0.902104 *  0.146727 *   0.87073    1.000000    
    103 O2    c    0.204144 *  0.904452 *  0.353212 *   0.87073    1.000000    
    104 O2    c    0.695759 *  0.791772 *  0.021640 *   0.87073    1.000000    
    105 O2    c    0.098293 *  0.300247 *  0.686612 *   0.87073    1.000000    
    106 O2    c    0.799604 *  0.098219 *  0.856718 *   0.87073    1.000000    
    107 O2    c    0.301794 *  0.205234 *  0.519100 *   0.87073    1.000000    
    108 O2    c    0.901596 *  0.698048 *  0.187210 *   0.87073    1.000000    
    109 O2    c    0.322597 *  0.646081 *  0.249762 *   0.87073    1.000000    
    110 O2    c    0.355037 *  0.679105 *  0.583876 *   0.87073    1.000000    
    111 O2    c    0.321034 *  0.674190 *  0.917728 *   0.87073    1.000000    
    112 O2    c    0.684516 *  0.352964 *  0.750981 *   0.87073    1.000000    
    113 O2    c    0.642871 *  0.319904 *  0.084009 *   0.87073    1.000000    
    114 O2    c    0.675882 *  0.324439 *  0.415565 *   0.87073    1.000000    
    115 O2    c    0.372462 *  0.325670 *  0.970420 *   0.87073    1.000000    
    116 O2    c    0.669680 *  0.045261 *  0.304009 *   0.87073    1.000000    
    117 O3    c    0.939988 *  0.614714 *  0.640025 *   1.33043    1.000000    
    118 O2    c    0.625298 *  0.671057 *  0.470376 *   0.87073    1.000000    
    119 O2    c    0.333612 *  0.963119 *  0.804659 *   0.87073    1.000000    
    120 O2    c    0.043825 *  0.373763 *  0.137707 *   0.87073    1.000000    
    121 O2    c    0.328838 *  0.375791 *  0.361985 *   0.87073    1.000000    
    122 O2    c    0.040636 *  0.666450 *  0.029837 *   0.87073    1.000000    
    123 O2    c    0.630317 *  0.950247 *  0.699823 *   0.87073    1.000000    
    124 O2    c    0.670097 *  0.625431 *  0.864042 *   0.87073    1.000000    
    125 O2    c    0.956875 *  0.335158 *  0.528574 *   0.87073    1.000000    
    126 O2    c    0.373184 *  0.043991 *  0.195873 *   0.87073    1.000000    
    127 O2    c    0.768459 *  0.301157 *  0.011537 *   0.87073    1.000000    
    128 O2    c    0.695529 *  0.468754 *  0.343188 *   0.87073    1.000000    
    129 O2    c    0.533935 *  0.221619 *  0.679428 *   0.87073    1.000000    
    130 O2    c    0.231356 *  0.700501 *  0.510854 *   0.87073    1.000000    
    131 O3    c    0.299300 *  0.544242 *  0.841832 *   1.33043    1.000000    
    132 O2    c    0.466861 *  0.770446 *  0.177232 *   0.87073    1.000000    
    133 O2    c    0.303581 *  0.772406 *  0.322334 *   0.87073    1.000000    
    134 O2    c    0.464781 *  0.692683 *  0.988315 *   0.87073    1.000000    
    135 O2    c    0.229644 *  0.529531 *  0.654165 *   0.87073    1.000000    
    136 O2    c    0.701192 *  0.229598 *  0.824675 *   0.87073    1.000000    
    137 O2    c    0.532195 *  0.306319 *  0.488279 *   0.87073    1.000000    
    138 O2    c    0.769862 *  0.466738 *  0.156371 *   0.87073    1.000000    
    139 O2    c    0.780516 *  0.531973 *  0.029470 *   0.87073    1.000000    
    140 O2    c    0.464191 *  0.252349 *  0.359900 *   0.87073    1.000000    
    141 O2    c    0.753204 *  0.209606 *  0.697124 *   0.87073    1.000000    
    142 O2    c    0.209626 *  0.472184 *  0.530159 *   0.87073    1.000000    
    143 O2    c    0.531719 *  0.744747 *  0.863054 *   0.87073    1.000000    
    144 O2    c    0.249792 *  0.785263 *  0.194465 *   0.87073    1.000000    
    145 O2    c    0.534708 *  0.786200 *  0.305100 *   0.87073    1.000000    
    146 O2    c    0.252467 *  0.463858 *  0.971915 *   0.87073    1.000000    
    147 O3    c    0.233625 *  0.756916 *  0.643313 *   1.33043    1.000000    
    148 O2    c    0.471555 *  0.219518 *  0.804131 *   0.87073    1.000000    
    149 O2    c    0.749838 *  0.537431 *  0.471086 *   0.87073    1.000000    
    150 O2    c    0.784795 *  0.250050 *  0.139067 *   0.87073    1.000000    
    151 O3    c    0.214761 *  0.303669 *  0.901909 *   1.33043    1.000000    
    152 O2    c    0.676610 *  0.909594 *  0.231366 *   0.87073    1.000000    
    153 O3    c    0.096464 *  0.783453 *  0.558869 *   1.33043    1.000000    
    154 O2    c    0.766580 *  0.678559 *  0.397337 *   0.87073    1.000000    
    155 O2    c    0.322790 *  0.086664 *  0.730897 *   0.87073    1.000000    
    156 O2    c    0.907359 *  0.230490 *  0.065285 *   0.87073    1.000000    
    157 O2    c    0.322662 *  0.232914 *  0.433991 *   0.87073    1.000000    
    158 O2    c    0.908531 *  0.676117 *  0.102822 *   0.87073    1.000000    
    159 O2    c    0.772562 *  0.088855 *  0.771889 *   0.87073    1.000000    
    160 O2    c    0.669634 *  0.761277 *  0.935566 *   0.87073    1.000000    
    161 O2    c    0.087721 *  0.326901 *  0.600464 *   0.87073    1.000000    
    162 O2    c    0.232201 *  0.910036 *  0.268462 *   0.87073    1.000000    
    163 O2    c    0.579757 *  0.554347 *  0.988118 *   0.87073    1.000000    
    164 O2    c    0.441658 *  0.030771 *  0.323802 *   0.87073    1.000000    
    165 O2    c    0.972662 *  0.413815 *  0.655654 *   0.87073    1.000000    
    166 O2    c    0.409136 *  0.442202 *  0.489539 *   0.87073    1.000000    
    167 O2    c    0.561981 *  0.972661 *  0.826540 *   0.87073    1.000000    
    168 O2    c    0.028842 *  0.587213 *  0.158055 *   0.87073    1.000000    
    169 O2    c    0.557166 *  0.588874 *  0.342083 *   0.87073    1.000000    
    170 O2    c    0.027338 *  0.438229 *  0.010055 *   0.87073    1.000000    
    171 O2    c    0.417475 *  0.964218 *  0.678201 *   0.87073    1.000000    
    172 O3    c    0.453301 *  0.407522 *  0.839043 *   1.33043    1.000000    
    173 O2    c    0.973416 *  0.561527 *  0.509809 *   0.87073    1.000000    
    174 O2    c    0.587024 *  0.029101 *  0.175932 *   0.87073    1.000000    
    175 O2    c    0.582413 *  0.166534 *  0.249932 *   0.87073    1.000000    
    176 O2    c    0.834543 *  0.417159 *  0.582141 *   0.87073    1.000000    
    177 O2    c    0.580909 *  0.415300 *  0.916442 *   0.87073    1.000000    
    178 O2    c    0.419180 *  0.832508 *  0.752950 *   0.87073    1.000000    
    179 O2    c    0.164855 *  0.582239 *  0.084011 *   0.87073    1.000000    
    180 O2    c    0.416470 *  0.585257 *  0.416196 *   0.87073    1.000000    
    181 F     c    0.452390 *  0.905071 *  0.249607 *   0.56000    1.000000    
    182 F     c    0.092941 *  0.582976 *  0.587736 *   0.56000    1.000000    
    183 F     c    0.424017 *  0.517506 *  0.907211 *   0.56000    1.000000    
    184 F     c    0.552882 *  0.092611 *  0.752398 *   0.56000    1.000000    
    185 F     c    0.903542 *  0.451985 *  0.083833 *   0.56000    1.000000    
    186 F     c    0.546724 *  0.454101 *  0.416049 *   0.56000    1.000000    
    187 O2    s    0.920693 *  0.994784 *  0.001410 *  -2.87073    1.000000    
    188 O2    s    0.000183 *  0.926982 *  0.331662 *  -2.87073    1.000000    
    189 O3    s    0.071425 *  0.073197 *  0.670343 *  -3.33043    1.000000    
    190 O2    s    0.076005 *  0.001057 *  0.497857 *  -2.87073    1.000000    
    191 O2    s    0.002070 *  0.074585 *  0.835252 *  -2.87073    1.000000    
    192 O2    s    0.925328 *  0.925814 *  0.166930 *  -2.87073    1.000000    
    193 O2    s    0.351980 *  0.588759 *  0.332793 *  -2.87073    1.000000    
    194 O2    s    0.422570 *  0.759493 *  0.669778 *  -2.87073    1.000000    
    195 O2    s    0.231621 *  0.645109 *  0.000881 *  -2.87073    1.000000    
    196 O2    s    0.659275 *  0.414305 *  0.834069 *  -2.87073    1.000000    
    197 O2    s    0.586326 *  0.234179 *  0.166798 *  -2.87073    1.000000    
    198 O2    s    0.764523 *  0.355089 *  0.498261 *  -2.87073    1.000000    
    199 O2    s    0.585069 *  0.349358 *  0.000554 *  -2.87073    1.000000    
    200 O2    s    0.758096 *  0.399677 *  0.666565 *  -2.87073    1.000000    
    201 O2    s    0.647177 *  0.236380 *  0.332881 *  -2.87073    1.000000    
    202 O2    s    0.413647 *  0.649126 *  0.500126 *  -2.87073    1.000000    
    203 O2    s    0.234665 *  0.587047 *  0.166958 *  -2.87073    1.000000    
    204 O2    s    0.353792 *  0.777808 *  0.836585 *  -2.87073    1.000000    
    205 O2    s    0.117978 *  0.212845 *  0.975595 *  -2.87073    1.000000    
    206 O2    s    0.782325 *  0.906346 *  0.303181 *  -2.87073    1.000000    
    207 O1    s    0.085951 *  0.863653 *  0.636615 *  -3.73396    1.000000    
    208 O2    s    0.877086 *  0.785739 *  0.468670 *  -2.87073    1.000000    
    209 O2    s    0.224175 *  0.104156 *  0.804100 *  -2.87073    1.000000    
    210 O2    s    0.905235 *  0.122158 *  0.137194 *  -2.87073    1.000000    
    211 O2    s    0.216187 *  0.124422 *  0.361918 *  -2.87073    1.000000    
    212 O2    s    0.903141 *  0.780103 *  0.031089 *  -2.87073    1.000000    
    213 O2    s    0.879565 *  0.092096 *  0.699425 *  -2.87073    1.000000    
    214 O2    s    0.784070 *  0.877188 *  0.864660 *  -2.87073    1.000000    
    215 O2    s    0.095717 *  0.221383 *  0.527463 *  -2.87073    1.000000    
    216 O2    s    0.121564 *  0.905865 *  0.196924 *  -2.87073    1.000000    
    217 O2    s    0.927055 *  0.859109 *  0.249469 *  -2.87073    1.000000    
    218 O3    s    0.135410 *  0.075207 *  0.580016 *  -3.33043    1.000000    
    219 O2    s    0.933148 *  0.067420 *  0.918780 *  -2.87073    1.000000    
    220 O2    s    0.074268 *  0.148079 *  0.752206 *  -2.87073    1.000000    
    221 O2    s    0.858002 *  0.927897 *  0.084230 *  -2.87073    1.000000    
    222 O2    s    0.067002 *  0.933104 *  0.414486 *  -2.87073    1.000000    
    223 O2    s    0.905410 *  0.200836 *  0.983424 *  -2.87073    1.000000    
    224 O2    s    0.793502 *  0.705310 *  0.315081 *  -2.87073    1.000000    
    225 O3    s    0.307356 *  0.084215 *  0.647926 *  -3.33043    1.000000    
    226 O2    s    0.089071 *  0.794587 *  0.476967 *  -2.87073    1.000000    
    227 O3    s    0.201232 *  0.297245 *  0.818117 *  -3.33043    1.000000    
    228 O2    s    0.704035 *  0.909678 *  0.149359 *  -2.87073    1.000000    
    229 O2    s    0.205440 *  0.911916 *  0.350499 *  -2.87073    1.000000    
    230 O2    s    0.701545 *  0.790396 *  0.018794 *  -2.87073    1.000000    
    231 O2    s    0.091224 *  0.295338 *  0.684034 *  -2.87073    1.000000    
    232 O2    s    0.798583 *  0.090754 *  0.853907 *  -2.87073    1.000000    
    233 O2    s    0.295961 *  0.206836 *  0.516427 *  -2.87073    1.000000    
    234 O2    s    0.909163 *  0.704234 *  0.184563 *  -2.87073    1.000000    
    235 O2    s    0.328484 *  0.657828 *  0.249800 *  -2.87073    1.000000    
    236 O2    s    0.344798 *  0.673600 *  0.583657 *  -2.87073    1.000000    
    237 O2    s    0.325982 *  0.668974 *  0.918017 *  -2.87073    1.000000    
    238 O2    s    0.677910 *  0.340749 *  0.751052 *  -2.87073    1.000000    
    239 O2    s    0.654600 *  0.325888 *  0.083963 *  -2.87073    1.000000    
    240 O2    s    0.670037 *  0.330429 *  0.415572 *  -2.87073    1.000000    
    241 O2    s    0.375876 *  0.335114 *  0.968457 *  -2.87073    1.000000    
    242 O2    s    0.659591 *  0.038418 *  0.301730 *  -2.87073    1.000000    
    243 O3    s    0.944184 *  0.606624 *  0.637706 *  -3.33043    1.000000    
    244 O2    s    0.621973 *  0.661115 *  0.468061 *  -2.87073    1.000000    
    245 O2    s    0.343768 *  0.969542 *  0.802429 *  -2.87073    1.000000    
    246 O2    s    0.036982 *  0.376941 *  0.135495 *  -2.87073    1.000000    
    247 O2    s    0.338951 *  0.379122 *  0.364187 *  -2.87073    1.000000    
    248 O2    s    0.034002 *  0.656515 *  0.032160 *  -2.87073    1.000000    
    249 O2    s    0.626926 *  0.957259 *  0.701946 *  -2.87073    1.000000    
    250 O2    s    0.660923 *  0.622714 *  0.865876 *  -2.87073    1.000000    
    251 O2    s    0.963253 *  0.344341 *  0.530700 *  -2.87073    1.000000    
    252 O2    s    0.376523 *  0.037345 *  0.198108 *  -2.87073    1.000000    
    253 O2    s    0.775341 *  0.308672 *  0.014667 *  -2.87073    1.000000    
    254 O2    s    0.687905 *  0.468236 *  0.346285 *  -2.87073    1.000000    
    255 O2    s    0.534900 *  0.214565 *  0.682423 *  -2.87073    1.000000    
    256 O2    s    0.225166 *  0.693390 *  0.513618 *  -2.87073    1.000000    
    257 O3    s    0.308366 *  0.549121 *  0.845568 *  -3.33043    1.000000    
    258 O2    s    0.466344 *  0.777628 *  0.180377 *  -2.87073    1.000000    
    259 O2    s    0.311170 *  0.779361 *  0.319247 *  -2.87073    1.000000    
    260 O2    s    0.464365 *  0.685477 *  0.985573 *  -2.87073    1.000000    
    261 O2    s    0.223304 *  0.530428 *  0.651757 *  -2.87073    1.000000    
    262 O2    s    0.693722 *  0.222316 *  0.821469 *  -2.87073    1.000000    
    263 O2    s    0.532680 *  0.313724 *  0.485143 *  -2.87073    1.000000    
    264 O2    s    0.776805 *  0.465928 *  0.153282 *  -2.87073    1.000000    
    265 O2    s    0.786060 *  0.529335 *  0.031956 *  -2.87073    1.000000    
    266 O2    s    0.466947 *  0.260229 *  0.362575 *  -2.87073    1.000000    
    267 O2    s    0.744919 *  0.204408 *  0.699740 *  -2.87073    1.000000    
    268 O2    s    0.205867 *  0.474233 *  0.532209 *  -2.87073    1.000000    
    269 O2    s    0.530430 *  0.738842 *  0.865268 *  -2.87073    1.000000    
    270 O2    s    0.257740 *  0.790570 *  0.197101 *  -2.87073    1.000000    
    271 O2    s    0.531897 *  0.791341 *  0.302515 *  -2.87073    1.000000    
    272 O2    s    0.258842 *  0.466709 *  0.969674 *  -2.87073    1.000000    
    273 O3    s    0.230456 *  0.746375 *  0.640580 *  -3.33043    1.000000    
    274 O2    s    0.474211 *  0.214162 *  0.801830 *  -2.87073    1.000000    
    275 O2    s    0.741763 *  0.534661 *  0.468480 *  -2.87073    1.000000    
    276 O2    s    0.789796 *  0.257820 *  0.136496 *  -2.87073    1.000000    
    277 O3    s    0.224712 *  0.313736 *  0.904566 *  -3.33043    1.000000    
    278 O2    s    0.666859 *  0.909315 *  0.232246 *  -2.87073    1.000000    
    279 O3    s    0.096258 *  0.771753 *  0.558155 *  -3.33043    1.000000    
    280 O2    s    0.757248 *  0.668907 *  0.398166 *  -2.87073    1.000000    
    281 O2    s    0.332429 *  0.087525 *  0.731925 *  -2.87073    1.000000    
    282 O2    s    0.907133 *  0.239839 *  0.066235 *  -2.87073    1.000000    
    283 O2    s    0.332171 *  0.242431 *  0.433141 *  -2.87073    1.000000    
    284 O2    s    0.908037 *  0.666198 *  0.101872 *  -2.87073    1.000000    
    285 O2    s    0.762996 *  0.089135 *  0.770979 *  -2.87073    1.000000    
    286 O2    s    0.661212 *  0.753018 *  0.934912 *  -2.87073    1.000000    
    287 O2    s    0.088434 *  0.335412 *  0.599636 *  -2.87073    1.000000    
    288 O2    s    0.241557 *  0.909787 *  0.267568 *  -2.87073    1.000000    
    289 O2    s    0.576461 *  0.554955 *  0.985302 *  -2.87073    1.000000    
    290 O2    s    0.441298 *  0.025796 *  0.320429 *  -2.87073    1.000000    
    291 O2    s    0.976933 *  0.416924 *  0.652833 *  -2.87073    1.000000    
    292 O2    s    0.414170 *  0.442156 *  0.486253 *  -2.87073    1.000000    
    293 O2    s    0.562495 *  0.978032 *  0.823103 *  -2.87073    1.000000    
    294 O2    s    0.023890 *  0.582511 *  0.154631 *  -2.87073    1.000000    
    295 O2    s    0.557523 *  0.584348 *  0.345431 *  -2.87073    1.000000    
    296 O2    s    0.022432 *  0.438199 *  0.013420 *  -2.87073    1.000000    
    297 O2    s    0.421822 *  0.968907 *  0.681475 *  -2.87073    1.000000    
    298 O3    s    0.457100 *  0.414224 *  0.843114 *  -3.33043    1.000000    
    299 O2    s    0.977066 *  0.561418 *  0.512634 *  -2.87073    1.000000    
    300 O2    s    0.582368 *  0.024264 *  0.179320 *  -2.87073    1.000000    
    301 O2    s    0.576876 *  0.155521 *  0.249886 *  -2.87073    1.000000    
    302 O2    s    0.844209 *  0.421994 *  0.581872 *  -2.87073    1.000000    
    303 O2    s    0.576006 *  0.419974 *  0.916781 *  -2.87073    1.000000    
    304 O2    s    0.425009 *  0.843869 *  0.752807 *  -2.87073    1.000000    
    305 O2    s    0.153786 *  0.576586 *  0.083976 *  -2.87073    1.000000    
    306 O2    s    0.421920 *  0.579623 *  0.416192 *  -2.87073    1.000000    
    307 F     s    0.452257 *  0.904679 *  0.249570 *  -1.56000    1.000000    
    308 F     s    0.092923 *  0.592006 *  0.589330 *  -1.56000    1.000000    
    309 F     s    0.417352 *  0.510992 *  0.904382 *  -1.56000    1.000000    
    310 F     s    0.553356 *  0.092912 *  0.752486 *  -1.56000    1.000000    
    311 F     s    0.903218 *  0.451951 *  0.083819 *  -1.56000    1.000000    
    312 F     s    0.546927 *  0.453936 *  0.416075 *  -1.56000    1.000000    
--------------------------------------------------------------------------------



********************************************************************************
*  General input information                                                   *
********************************************************************************

  Species output for all configurations : 

--------------------------------------------------------------------------------
  Species    Type    Atomic    Atomic    Charge       Radii (Angs)     Library
                     Number     Mass       (e)     Cova   Ionic  VDW   Symbol
--------------------------------------------------------------------------------
    Si       Core       14      28.09   4.000000   1.200  0.000  2.100          
    O1       Core        8      16.00   1.733957   0.730  0.000  1.360          
    O1       Shell       8       0.00  -3.733957   0.730  0.000  1.360          
    O2       Core        8      16.00   0.870733   0.730  0.000  1.360          
    O2       Shell       8       0.00  -2.870733   0.730  0.000  1.360          
    O3       Core        8      16.00   1.330431   0.730  0.000  1.360          
    O3       Shell       8       0.00  -3.330431   0.730  0.000  1.360          
    F        Core        9      19.00   0.560000   0.710  0.000  1.300          
    F        Shell       9       0.00  -1.560000   0.710  0.000  1.300          
    Ge       Core       32      72.61   4.000000   1.170  0.000  1.750          
--------------------------------------------------------------------------------


  Lattice summation method               =    Ewald          (3-D)
                                         =    Parry          (2-D)
                                         =    Saunders et al (1-D)
  Accuracy factor for lattice sums       =   12.000


  Time limit = Infinity

  Maximum range for interatomic potentials =        16.000000 Angstroms

  Taper potentials to zero over   1.0000 Angstroms using polynomial

  General interatomic potentials :

--------------------------------------------------------------------------------
Atom  Types   Potential         A         B         C         D     Cutoffs(Ang)
  1     2                                                            Min    Max 
--------------------------------------------------------------------------------
Si   c O1   s Buckingham    0.132E+04 0.318      10.1      0.00     0.000 16.000
Si   c O2   s Buckingham    0.132E+04 0.318      10.1      0.00     0.000 16.000
Si   c O3   s Buckingham    0.132E+04 0.318      10.1      0.00     0.000 16.000
Ge   c O1   s Buckingham    0.150E+04 0.326      16.8      0.00     0.000 16.000
Ge   c O2   s Buckingham    0.150E+04 0.326      16.8      0.00     0.000 16.000
Ge   c O3   s Buckingham    0.150E+04 0.326      16.8      0.00     0.000 16.000
O1   s O1   s Buckingham    0.228E+05 0.149      10.9      0.00     0.000 16.000
O1   s O2   s Buckingham    0.228E+05 0.149      10.9      0.00     0.000 16.000
O1   s O3   s Buckingham    0.228E+05 0.149      10.9      0.00     0.000 16.000
O2   s O2   s Buckingham    0.228E+05 0.149      10.9      0.00     0.000 16.000
O2   s O3   s Buckingham    0.228E+05 0.149      10.9      0.00     0.000 16.000
O3   s O3   s Buckingham    0.228E+05 0.149      10.9      0.00     0.000 16.000
Si   c F    s Buckingham     977.     0.282      0.00      0.00     0.000 16.000
Ge   c F    s Buckingham     681.     0.320      0.00      0.00     0.000 16.000
F    s F    s Buckingham     540.     0.262      0.00      0.00     0.000 16.000
O1   s F    s Buckingham    0.168E+04 0.268      0.00      0.00     0.000 16.000
O2   s F    s Buckingham    0.168E+04 0.268      0.00      0.00     0.000 16.000
O3   s F    s Buckingham    0.168E+04 0.268      0.00      0.00     0.000 16.000
O2   c O2   s Spring (c-s)   76.0      0.00      0.00      0.00     0.000  0.800
O3   c O3   s Spring (c-s)   128.      0.00      0.00      0.00     0.000  0.800
O1   c O1   s Spring (c-s)   180.      0.00      0.00      0.00     0.000  0.800
F    c F    s Spring (c-s)   33.5      0.00      0.00      0.00     0.000  0.800
--------------------------------------------------------------------------------

  General Three-body potentials :

  Harmonic form:

--------------------------------------------------------------------------------
Atom    Atom    Atom           Force Constants            Theta     Cutoffs  
  1       2       3     (eVrad**-2/eVrad**-3/eVrad**-4)   (deg)  1-2  1-3  2-3
--------------------------------------------------------------------------------
Si    c O1    s O1    s  1.261        0.0000    0.0000   109.470 0.00 0.00 0.00
                                                                 1.90 1.90 3.50
Si    c O1    s O2    s  1.261        0.0000    0.0000   109.470 0.00 0.00 0.00
                                                                 1.90 1.90 3.50
Si    c O2    s O2    s  1.261        0.0000    0.0000   109.470 0.00 0.00 0.00
                                                                 1.90 1.90 3.50
--------------------------------------------------------------------------------

********************************************************************************
*  Output for configuration   1                                                *
********************************************************************************


  Components of energy : 

--------------------------------------------------------------------------------
  Interatomic potentials     =        2063.01833874 eV
  Three-body potentials      =           0.49656715 eV
  Monopole - monopole (real) =       -6612.80059762 eV
  Monopole - monopole (recip)=       -3170.39393154 eV
  Monopole - monopole (total)=       -9783.19452917 eV
  Neutralising energy        =          -6.45740376 eV
--------------------------------------------------------------------------------
  Total lattice energy       =       -7726.13702703 eV
--------------------------------------------------------------------------------
  Total lattice energy       =         -745454.1183 kJ/(mole unit cells)
--------------------------------------------------------------------------------


  Number of variables =      939

  Maximum number of calculations  =          1000
  Maximum Hessian update interval =            10
  Maximum step size               =   1.000000000
  Maximum parameter tolerance     =   0.000010000
  Maximum function  tolerance     =   0.000010000
  Maximum gradient  tolerance     =   0.001000000
  Maximum gradient  component     =   0.010000000

  Symmetry not applied to optimisation

  Cell parameters to be optimised using strains

  Newton-Raphson optimiser to be used

  BFGS hessian update to be used

  Dumpfile to be written after every cycle

  Start of bulk optimisation :

  Cycle:      0 Energy:     -7726.137027  Gnorm:      0.005824  CPU:    1.059
  ** Hessian calculated **
  Cycle:      1 Energy:     -7726.168055  Gnorm:      0.002722  CPU:    2.967
  Cycle:      2 Energy:     -7726.168253  Gnorm:      0.000107  CPU:    4.350
  Cycle:      3 Energy:     -7726.168258  Gnorm:      0.000035  CPU:    5.732


  **** Optimisation achieved ****


  Final energy =   -7726.16825851 eV
  Final Gnorm  =       0.00000178

  Components of energy : 

--------------------------------------------------------------------------------
  Interatomic potentials     =        2063.08245069 eV
  Three-body potentials      =           0.50324511 eV
  Monopole - monopole (real) =       -6612.68673174 eV
  Monopole - monopole (recip)=       -3170.60938052 eV
  Monopole - monopole (total)=       -9783.29611226 eV
  Neutralising energy        =          -6.45784205 eV
--------------------------------------------------------------------------------
  Total lattice energy       =       -7726.16825851 eV
--------------------------------------------------------------------------------
  Total lattice energy       =         -745457.1316 kJ/(mole unit cells)
--------------------------------------------------------------------------------

  Final fractional coordinates of atoms :

--------------------------------------------------------------------------------
   No.  Atomic        x           y          z          Radius
        Label       (Frac)      (Frac)     (Frac)       (Angs) 
--------------------------------------------------------------------------------
     1  Si    c     0.699600    0.375700    0.033890    0.000000
     2  Si    c     0.619615    0.332987    0.365756    0.000000
     3  Si    c     0.677441    0.288625    0.701979    0.000000
     4  Si    c     0.303575    0.633198    0.535444    0.000000
     5  Si    c     0.371965    0.681104    0.867906    0.000000
     6  Si    c     0.319599    0.703658    0.201815    0.000000
     7  Si    c     0.378272    0.710763    0.302558    0.000000
     8  Si    c     0.316090    0.614989    0.969816    0.000000
     9  Si    c     0.305503    0.679874    0.639134    0.000000
    10  Si    c     0.630465    0.299945    0.801821    0.000000
    11  Si    c     0.678096    0.388335    0.466433    0.000000
    12  Si    c     0.697161    0.322153    0.134583    0.000000
    13  Si    c     0.525750    0.408545    0.967399    0.000000
    14  Si    c     0.580833    0.120708    0.300804    0.000000
    15  Si    c     0.877917    0.465312    0.635717    0.000000
    16  Si    c     0.473005    0.591572    0.469655    0.000000
    17  Si    c     0.423259    0.897825    0.805614    0.000000
    18  Si    c     0.107786    0.527634    0.137306    0.000000
    19  Si    c     0.417004    0.540419    0.367911    0.000000
    20  Si    c     0.108151    0.577378    0.035554    0.000000
    21  Si    c     0.475680    0.882296    0.705133    0.000000
    22  Si    c     0.586245    0.467963    0.864649    0.000000
    23  Si    c     0.888351    0.425240    0.531522    0.000000
    24  Si    c     0.524697    0.113735    0.199055    0.000000
    25  Ge    c     0.313020    0.410911    0.860021    0.000000
    26  Si    c     0.596188    0.904126    0.186027    0.000000
    27  Si    c     0.101093    0.711821    0.516817    0.000000
    28  Si    c     0.696599    0.611248    0.352643    0.000000
    29  Si    c     0.399820    0.087584    0.686832    0.000000
    30  Si    c     0.899946    0.296875    0.020225    0.000000
    31  Si    c     0.400473    0.310564    0.482564    0.000000
    32  Si    c     0.898741    0.599763    0.150613    0.000000
    33  Si    c     0.705216    0.099756    0.819449    0.000000
    34  Si    c     0.597818    0.693385    0.983756    0.000000
    35  Si    c     0.094498    0.396769    0.650492    0.000000
    36  Si    c     0.301327    0.912776    0.315921    0.000000
    37  Si    c     0.241815    0.327283    0.955508    0.000000
    38  Si    c     0.658131    0.918736    0.286677    0.000000
    39  Ge    c     0.088927    0.727866    0.617198    0.000000
    40  Si    c     0.751107    0.669555    0.453431    0.000000
    41  Si    c     0.344737    0.097019    0.787444    0.000000
    42  Si    c     0.906064    0.249099    0.121165    0.000000
    43  Si    c     0.339530    0.261492    0.381640    0.000000
    44  Si    c     0.907638    0.655861    0.050021    0.000000
    45  Si    c     0.753198    0.084837    0.719241    0.000000
    46  Si    c     0.658455    0.749154    0.882288    0.000000
    47  Si    c     0.090297    0.345784    0.547603    0.000000
    48  Si    c     0.247204    0.913089    0.215140    0.000000
    49  Si    c     0.967434    0.114882    0.970942    0.000000
    50  Si    c     0.876095    0.856996    0.301500    0.000000
    51  Ge    c     0.148132    0.017641    0.634905    0.000000
    52  Si    c     0.031627    0.886871    0.466399    0.000000
    53  Si    c     0.126846    0.161215    0.805106    0.000000
    54  Si    c     0.843194    0.969346    0.136054    0.000000
    55  Si    c     0.121308    0.982020    0.366093    0.000000
    56  Si    c     0.844804    0.872605    0.035470    0.000000
    57  Si    c     0.032225    0.151347    0.702991    0.000000
    58  Si    c     0.883096    0.028644    0.868654    0.000000
    59  Si    c     0.155101    0.129618    0.533265    0.000000
    60  Si    c     0.966465    0.849346    0.200766    0.000000
    61  O2    c     0.920923    0.991680    0.002568    0.000000
    62  O2    c     0.999981    0.939648    0.333087    0.000000
    63  O3    c     0.071930    0.072543    0.670746    0.000000
    64  O2    c     0.077418    0.008264    0.499594    0.000000
    65  O2    c     0.002364    0.066944    0.835767    0.000000
    66  O2    c     0.923559    0.928039    0.168364    0.000000
    67  O2    c     0.340396    0.590197    0.335980    0.000000
    68  O2    c     0.429157    0.754255    0.673215    0.000000
    69  O2    c     0.233944    0.653551    0.003624    0.000000
    70  O2    c     0.672618    0.425202    0.834614    0.000000
    71  O2    c     0.572931    0.237538    0.166318    0.000000
    72  O2    c     0.764796    0.349779    0.498000    0.000000
    73  O2    c     0.577974    0.336453    0.000182    0.000000
    74  O2    c     0.750697    0.404134    0.666349    0.000000
    75  O2    c     0.657693    0.248520    0.332572    0.000000
    76  O2    c     0.425634    0.667905    0.503228    0.000000
    77  O2    c     0.233380    0.577664    0.169980    0.000000
    78  O2    c     0.343103    0.779466    0.840125    0.000000
    79  O2    c     0.119988    0.207000    0.980479    0.000000
    80  O2    c     0.785827    0.921142    0.306571    0.000000
    81  O1    c     0.076853    0.859421    0.639609    0.000000
    82  O2    c     0.877766    0.796255    0.473286    0.000000
    83  O2    c     0.223349    0.102071    0.808614    0.000000
    84  O2    c     0.905915    0.123480    0.141525    0.000000
    85  O2    c     0.212094    0.136134    0.361262    0.000000
    86  O2    c     0.909098    0.782700    0.030251    0.000000
    87  O2    c     0.877438    0.085128    0.698339    0.000000
    88  O2    c     0.784790    0.874422    0.863276    0.000000
    89  O2    c     0.094969    0.224355    0.525754    0.000000
    90  O2    c     0.120220    0.911819    0.195079    0.000000
    91  O2    c     0.927234    0.865009    0.251056    0.000000
    92  O3    c     0.137706    0.081112    0.583160    0.000000
    93  O2    c     0.934655    0.062483    0.919975    0.000000
    94  O2    c     0.074986    0.146596    0.753769    0.000000
    95  O2    c     0.856297    0.927762    0.085661    0.000000
    96  O2    c     0.065924    0.941288    0.416028    0.000000
    97  O2    c     0.896324    0.196626    0.982016    0.000000
    98  O2    c     0.793771    0.706701    0.314346    0.000000
    99  O3    c     0.311851    0.088014    0.646305    0.000000
   100  O2    c     0.099666    0.801304    0.475377    0.000000
   101  O3    c     0.198279    0.306597    0.818612    0.000000
   102  O2    c     0.691775    0.900157    0.147742    0.000000
   103  O2    c     0.204444    0.913392    0.354222    0.000000
   104  O2    c     0.692929    0.787356    0.023245    0.000000
   105  O2    c     0.096733    0.301808    0.688274    0.000000
   106  O2    c     0.803092    0.101397    0.858229    0.000000
   107  O2    c     0.306865    0.212483    0.520889    0.000000
   108  O2    c     0.896845    0.697237    0.188951    0.000000
   109  O2    c     0.320671    0.649946    0.252410    0.000000
   110  O2    c     0.355522    0.684149    0.586709    0.000000
   111  O2    c     0.317395    0.671482    0.919932    0.000000
   112  O2    c     0.687529    0.354520    0.751673    0.000000
   113  O2    c     0.640903    0.320281    0.083907    0.000000
   114  O2    c     0.676910    0.331404    0.415866    0.000000
   115  O2    c     0.370396    0.322414    0.971133    0.000000
   116  O2    c     0.668572    0.052306    0.304359    0.000000
   117  O3    c     0.938551    0.615945    0.641271    0.000000
   118  O2    c     0.629071    0.678666    0.472806    0.000000
   119  O2    c     0.337122    0.967340    0.807230    0.000000
   120  O2    c     0.038469    0.371497    0.139968    0.000000
   121  O2    c     0.329041    0.384330    0.364467    0.000000
   122  O2    c     0.039443    0.664772    0.031858    0.000000
   123  O2    c     0.631258    0.949620    0.702348    0.000000
   124  O2    c     0.667465    0.625325    0.865165    0.000000
   125  O2    c     0.960817    0.341223    0.529159    0.000000
   126  O2    c     0.368429    0.044317    0.196133    0.000000
   127  O2    c     0.767876    0.300098    0.012012    0.000000
   128  O2    c     0.694618    0.476404    0.344221    0.000000
   129  O2    c     0.533892    0.220710    0.680952    0.000000
   130  O2    c     0.234763    0.707041    0.512983    0.000000
   131  O3    c     0.296260    0.544750    0.843542    0.000000
   132  O2    c     0.461799    0.769981    0.179031    0.000000
   133  O2    c     0.303433    0.780307    0.324207    0.000000
   134  O2    c     0.462088    0.688901    0.990009    0.000000
   135  O2    c     0.228549    0.531286    0.656240    0.000000
   136  O2    c     0.704965    0.233819    0.826135    0.000000
   137  O2    c     0.536356    0.313725    0.489369    0.000000
   138  O2    c     0.764800    0.465744    0.157269    0.000000
   139  O2    c     0.780270    0.531798    0.029772    0.000000
   140  O2    c     0.463713    0.260336    0.361075    0.000000
   141  O2    c     0.753584    0.208831    0.697922    0.000000
   142  O2    c     0.213045    0.478584    0.532196    0.000000
   143  O2    c     0.528739    0.743947    0.865065    0.000000
   144  O2    c     0.245318    0.785244    0.196258    0.000000
   145  O2    c     0.534291    0.793673    0.306972    0.000000
   146  O2    c     0.249704    0.460237    0.973523    0.000000
   147  O3    c     0.231480    0.758093    0.646149    0.000000
   148  O2    c     0.474544    0.222938    0.805190    0.000000
   149  O2    c     0.753396    0.544326    0.472079    0.000000
   150  O2    c     0.779699    0.248928    0.140060    0.000000
   151  O3    c     0.212063    0.301664    0.903090    0.000000
   152  O2    c     0.673064    0.912500    0.232361    0.000000
   153  O3    c     0.098235    0.787962    0.560690    0.000000
   154  O2    c     0.767899    0.686331    0.399083    0.000000
   155  O2    c     0.323927    0.087052    0.732800    0.000000
   156  O2    c     0.903806    0.228280    0.066881    0.000000
   157  O2    c     0.325147    0.241076    0.435867    0.000000
   158  O2    c     0.905070    0.674477    0.104308    0.000000
   159  O2    c     0.775296    0.091661    0.773616    0.000000
   160  O2    c     0.667371    0.760078    0.937073    0.000000
   161  O2    c     0.088537    0.330441    0.601768    0.000000
   162  O2    c     0.229828    0.914546    0.269453    0.000000
   163  O2    c     0.577376    0.551233    0.988581    0.000000
   164  O2    c     0.440735    0.038609    0.324272    0.000000
   165  O2    c     0.971804    0.415478    0.656684    0.000000
   166  O2    c     0.413640    0.449902    0.491973    0.000000
   167  O2    c     0.565140    0.976757    0.829085    0.000000
   168  O2    c     0.023284    0.584836    0.160137    0.000000
   169  O2    c     0.557076    0.597415    0.344361    0.000000
   170  O2    c     0.026047    0.435797    0.012037    0.000000
   171  O2    c     0.418621    0.963922    0.680831    0.000000
   172  O3    c     0.450789    0.408900    0.839431    0.000000
   173  O2    c     0.977080    0.567701    0.510822    0.000000
   174  O2    c     0.581374    0.028487    0.176291    0.000000
   175  O2    c     0.579182    0.170167    0.249701    0.000000
   176  O2    c     0.836232    0.421003    0.582462    0.000000
   177  O2    c     0.576914    0.412676    0.916336    0.000000
   178  O2    c     0.421694    0.834739    0.756146    0.000000
   179  O2    c     0.161124    0.579465    0.086603    0.000000
   180  O2    c     0.418721    0.593611    0.419123    0.000000
   181  F     c     0.449389    0.908980    0.250791    0.000000
   182  F     c     0.093506    0.586610    0.589248    0.000000
   183  F     c     0.420464    0.515540    0.908567    0.000000
   184  F     c     0.556990    0.095462    0.754489    0.000000
   185  F     c     0.900010    0.450238    0.085036    0.000000
   186  F     c     0.548631    0.462472    0.417784    0.000000
   187  O2    s     0.917357    0.991783    0.002812    0.000000
   188  O2    s     0.999636    0.935106    0.333230    0.000000
   189  O3    s     0.073861    0.076854    0.671377    0.000000
   190  O2    s     0.080737    0.007802    0.499505    0.000000
   191  O2    s     0.001533    0.072146    0.836370    0.000000
   192  O2    s     0.919319    0.923858    0.168360    0.000000
   193  O2    s     0.352181    0.597482    0.335818    0.000000
   194  O2    s     0.421378    0.759413    0.672940    0.000000
   195  O2    s     0.229604    0.641728    0.003376    0.000000
   196  O2    s     0.659643    0.417060    0.834390    0.000000
   197  O2    s     0.580744    0.233518    0.166409    0.000000
   198  O2    s     0.768750    0.361562    0.498232    0.000000
   199  O2    s     0.585079    0.348036    0.000245    0.000000
   200  O2    s     0.756801    0.398539    0.666794    0.000000
   201  O2    s     0.645835    0.244030    0.332720    0.000000
   202  O2    s     0.417724    0.656485    0.503174    0.000000
   203  O2    s     0.229267    0.585407    0.169882    0.000000
   204  O2    s     0.354391    0.781098    0.839572    0.000000
   205  O2    s     0.116142    0.209328    0.977061    0.000000
   206  O2    s     0.782199    0.914090    0.304003    0.000000
   207  O1    s     0.084141    0.865324    0.637746    0.000000
   208  O2    s     0.880636    0.792525    0.470531    0.000000
   209  O2    s     0.226644    0.107416    0.806027    0.000000
   210  O2    s     0.899263    0.120089    0.138866    0.000000
   211  O2    s     0.215636    0.132763    0.363848    0.000000
   212  O2    s     0.902062    0.779196    0.032829    0.000000
   213  O2    s     0.880325    0.092062    0.701051    0.000000
   214  O2    s     0.781409    0.876892    0.865828    0.000000
   215  O2    s     0.100437    0.227969    0.528809    0.000000
   216  O2    s     0.117033    0.905316    0.197729    0.000000
   217  O2    s     0.925898    0.862314    0.251051    0.000000
   218  O3    s     0.140530    0.081561    0.581575    0.000000
   219  O2    s     0.932657    0.064681    0.920110    0.000000
   220  O2    s     0.075688    0.148694    0.753513    0.000000
   221  O2    s     0.853490    0.926154    0.085626    0.000000
   222  O2    s     0.068379    0.939796    0.416011    0.000000
   223  O2    s     0.904140    0.198385    0.984793    0.000000
   224  O2    s     0.792566    0.712945    0.316914    0.000000
   225  O3    s     0.307905    0.082442    0.649484    0.000000
   226  O2    s     0.092759    0.801341    0.478487    0.000000
   227  O3    s     0.198012    0.297262    0.819896    0.000000
   228  O2    s     0.698110    0.907906    0.150399    0.000000
   229  O2    s     0.205590    0.920634    0.351540    0.000000
   230  O2    s     0.698758    0.786325    0.020348    0.000000
   231  O2    s     0.090003    0.296941    0.685666    0.000000
   232  O2    s     0.801630    0.093564    0.855410    0.000000
   233  O2    s     0.300936    0.214101    0.518198    0.000000
   234  O2    s     0.904412    0.703380    0.186284    0.000000
   235  O2    s     0.326437    0.661632    0.252348    0.000000
   236  O2    s     0.345356    0.678499    0.586426    0.000000
   237  O2    s     0.322483    0.666441    0.920191    0.000000
   238  O2    s     0.680693    0.342237    0.751777    0.000000
   239  O2    s     0.652623    0.326131    0.083972    0.000000
   240  O2    s     0.671161    0.337401    0.415926    0.000000
   241  O2    s     0.373751    0.331887    0.969169    0.000000
   242  O2    s     0.658461    0.045363    0.302134    0.000000
   243  O3    s     0.942795    0.607878    0.638941    0.000000
   244  O2    s     0.625667    0.668729    0.470456    0.000000
   245  O2    s     0.347052    0.973514    0.804979    0.000000
   246  O2    s     0.031781    0.374783    0.137723    0.000000
   247  O2    s     0.339188    0.387569    0.366626    0.000000
   248  O2    s     0.032663    0.654828    0.034158    0.000000
   249  O2    s     0.627867    0.956814    0.704433    0.000000
   250  O2    s     0.658348    0.622660    0.866945    0.000000
   251  O2    s     0.967039    0.350307    0.531343    0.000000
   252  O2    s     0.371835    0.037763    0.198423    0.000000
   253  O2    s     0.774735    0.307630    0.015191    0.000000
   254  O2    s     0.687085    0.475797    0.347361    0.000000
   255  O2    s     0.535018    0.213755    0.683910    0.000000
   256  O2    s     0.228497    0.699895    0.515717    0.000000
   257  O3    s     0.305383    0.549725    0.847290    0.000000
   258  O2    s     0.461333    0.777271    0.182133    0.000000
   259  O2    s     0.310931    0.787096    0.321068    0.000000
   260  O2    s     0.461663    0.681789    0.987249    0.000000
   261  O2    s     0.222229    0.532223    0.653849    0.000000
   262  O2    s     0.697350    0.226314    0.822902    0.000000
   263  O2    s     0.536756    0.321119    0.486250    0.000000
   264  O2    s     0.771930    0.465088    0.154209    0.000000
   265  O2    s     0.785659    0.528956    0.032353    0.000000
   266  O2    s     0.466575    0.268142    0.363755    0.000000
   267  O2    s     0.745437    0.203861    0.700627    0.000000
   268  O2    s     0.209183    0.480538    0.534218    0.000000
   269  O2    s     0.527585    0.738178    0.867233    0.000000
   270  O2    s     0.253344    0.790664    0.198846    0.000000
   271  O2    s     0.531411    0.798649    0.304343    0.000000
   272  O2    s     0.256091    0.463192    0.971295    0.000000
   273  O3    s     0.228615    0.747741    0.643348    0.000000
   274  O2    s     0.477004    0.217364    0.802946    0.000000
   275  O2    s     0.745243    0.541613    0.469517    0.000000
   276  O2    s     0.784861    0.256684    0.137473    0.000000
   277  O3    s     0.221939    0.311613    0.905853    0.000000
   278  O2    s     0.663409    0.912288    0.233257    0.000000
   279  O3    s     0.098024    0.776287    0.559865    0.000000
   280  O2    s     0.758582    0.676626    0.399947    0.000000
   281  O2    s     0.333602    0.088064    0.733813    0.000000
   282  O2    s     0.903644    0.237679    0.067781    0.000000
   283  O2    s     0.334577    0.250528    0.434982    0.000000
   284  O2    s     0.904685    0.664662    0.103399    0.000000
   285  O2    s     0.765597    0.091774    0.772693    0.000000
   286  O2    s     0.658954    0.751756    0.936379    0.000000
   287  O2    s     0.089353    0.339022    0.600982    0.000000
   288  O2    s     0.239189    0.914212    0.268557    0.000000
   289  O2    s     0.574088    0.551938    0.985811    0.000000
   290  O2    s     0.440354    0.033458    0.320917    0.000000
   291  O2    s     0.976122    0.418577    0.653890    0.000000
   292  O2    s     0.418553    0.449868    0.488642    0.000000
   293  O2    s     0.565425    0.981865    0.825614    0.000000
   294  O2    s     0.018518    0.580294    0.156723    0.000000
   295  O2    s     0.557487    0.592788    0.347714    0.000000
   296  O2    s     0.020984    0.435724    0.015365    0.000000
   297  O2    s     0.422889    0.968669    0.684071    0.000000
   298  O3    s     0.454760    0.415377    0.843547    0.000000
   299  O2    s     0.980619    0.567509    0.513640    0.000000
   300  O2    s     0.576880    0.023825    0.179717    0.000000
   301  O2    s     0.573702    0.159173    0.249756    0.000000
   302  O2    s     0.845836    0.425788    0.582246    0.000000
   303  O2    s     0.572328    0.417576    0.916757    0.000000
   304  O2    s     0.427408    0.846026    0.755948    0.000000
   305  O2    s     0.150105    0.573898    0.086534    0.000000
   306  O2    s     0.424143    0.587921    0.419059    0.000000
   307  F     s     0.449229    0.908613    0.250767    0.000000
   308  F     s     0.093372    0.595823    0.590919    0.000000
   309  F     s     0.413490    0.508833    0.905596    0.000000
   310  F     s     0.557660    0.095902    0.754600    0.000000
   311  F     s     0.899651    0.450193    0.084994    0.000000
   312  F     s     0.548842    0.462375    0.417810    0.000000
--------------------------------------------------------------------------------

  Final Cartesian lattice vectors (Angstroms) :

       11.977331    0.003695   -0.004256
       -5.976850   10.375286   -0.006385
       -0.062070   -0.315923   29.451704


  Final cell parameters and derivatives :

--------------------------------------------------------------------------------
       a           11.977332 Angstrom     dE/de1(xx)    -0.000012 eV/strain
       b           11.973694 Angstrom     dE/de2(yy)    -0.000053 eV/strain
       c           29.453464 Angstrom     dE/de3(zz)    -0.000093 eV/strain
       alpha       90.502809 Degrees      dE/de4(yz)    -0.000043 eV/strain
       beta        90.141294 Degrees      dE/de5(xz)    -0.000029 eV/strain
       gamma      119.927089 Degrees      dE/de6(xy)     0.000009 eV/strain
--------------------------------------------------------------------------------

  Primitive cell volume =          3660.526694 Angs**3

  Density of cell =      1.747861 g/cm**3

  Non-primitive cell volume =          3660.526694 Angs**3


  Final internal derivatives :

--------------------------------------------------------------------------------
   No.  Atomic          a             b             c           Radius
        Label          (eV)          (eV)          (eV)        (eV/Angs)
--------------------------------------------------------------------------------
      1 Si    c       0.000000      0.000000      0.000000      0.000000
      2 Si    c      -0.000015      0.000010      0.000006      0.000000
      3 Si    c      -0.000062     -0.000027     -0.000220      0.000000
      4 Si    c       0.000026     -0.000029      0.000064      0.000000
      5 Si    c       0.000048     -0.000188      0.000097      0.000000
      6 Si    c       0.000002      0.000009     -0.000050      0.000000
      7 Si    c       0.000005     -0.000011      0.000007      0.000000
      8 Si    c       0.000015     -0.000026     -0.000035      0.000000
      9 Si    c       0.000045      0.000014      0.000002      0.000000
     10 Si    c       0.000007      0.000040      0.000270      0.000000
     11 Si    c      -0.000002     -0.000017     -0.000021      0.000000
     12 Si    c      -0.000031      0.000020     -0.000110      0.000000
     13 Si    c       0.000026     -0.000031      0.000109      0.000000
     14 Si    c      -0.000000      0.000007     -0.000033      0.000000
     15 Si    c       0.000054      0.000046     -0.000166      0.000000
     16 Si    c      -0.000004      0.000003     -0.000003      0.000000
     17 Si    c       0.000072     -0.000058     -0.000058      0.000000
     18 Si    c       0.000015     -0.000012     -0.000017      0.000000
     19 Si    c      -0.000004      0.000010     -0.000012      0.000000
     20 Si    c      -0.000040      0.000022     -0.000066      0.000000
     21 Si    c      -0.000011      0.000058      0.000025      0.000000
     22 Si    c       0.000085     -0.000144     -0.000151      0.000000
     23 Si    c      -0.000010      0.000023      0.000053      0.000000
     24 Si    c      -0.000000     -0.000004      0.000011      0.000000
     25 Ge    c       0.000020      0.000141      0.000350      0.000000
     26 Si    c       0.000007     -0.000023      0.000000      0.000000
     27 Si    c      -0.000018      0.000013      0.000000      0.000000
     28 Si    c       0.000002      0.000006      0.000048      0.000000
     29 Si    c       0.000066     -0.000063      0.000033      0.000000
     30 Si    c       0.000001      0.000015      0.000081      0.000000
     31 Si    c       0.000003     -0.000015      0.000004      0.000000
     32 Si    c      -0.000025     -0.000005      0.000001      0.000000
     33 Si    c       0.000015      0.000000      0.000088      0.000000
     34 Si    c       0.000010     -0.000007      0.000032      0.000000
     35 Si    c      -0.000010      0.000001     -0.000115      0.000000
     36 Si    c      -0.000019      0.000011      0.000001      0.000000
     37 Si    c      -0.000020      0.000020      0.000065      0.000000
     38 Si    c       0.000008      0.000016     -0.000003      0.000000
     39 Ge    c      -0.000009     -0.000122     -0.000092      0.000000
     40 Si    c       0.000011     -0.000001     -0.000035      0.000000
     41 Si    c      -0.000011      0.000037     -0.000056      0.000000
     42 Si    c      -0.000026      0.000016      0.000024      0.000000
     43 Si    c      -0.000007     -0.000001      0.000035      0.000000
     44 Si    c       0.000006     -0.000049      0.000015      0.000000
     45 Si    c      -0.000011     -0.000014     -0.000061      0.000000
     46 Si    c       0.000004      0.000018     -0.000003      0.000000
     47 Si    c       0.000018     -0.000018      0.000032      0.000000
     48 Si    c       0.000014     -0.000029      0.000016      0.000000
     49 Si    c       0.000007     -0.000035     -0.000015      0.000000
     50 Si    c      -0.000016      0.000003      0.000043      0.000000
     51 Ge    c       0.000047     -0.000048      0.000259      0.000000
     52 Si    c      -0.000002      0.000008     -0.000003      0.000000
     53 Si    c       0.000084      0.000076     -0.000154      0.000000
     54 Si    c       0.000007     -0.000006      0.000019      0.000000
     55 Si    c       0.000007     -0.000000      0.000053      0.000000
     56 Si    c       0.000007     -0.000034     -0.000056      0.000000
     57 Si    c       0.000060     -0.000093      0.000136      0.000000
     58 Si    c      -0.000058      0.000023      0.000161      0.000000
     59 Si    c       0.000005     -0.000006      0.000045      0.000000
     60 Si    c      -0.000027      0.000022      0.000080      0.000000
     61 O2    c      -0.000053      0.000071     -0.000082      0.000000
     62 O2    c       0.000009      0.000010      0.000010      0.000000
     63 O3    c      -0.000049      0.000105      0.000023      0.000000
     64 O2    c       0.000015     -0.000028     -0.000055      0.000000
     65 O2    c      -0.000012     -0.000138      0.000061      0.000000
     66 O2    c       0.000012     -0.000034      0.000045      0.000000
     67 O2    c      -0.000021      0.000044     -0.000113      0.000000
     68 O2    c      -0.000044     -0.000036     -0.000131      0.000000
     69 O2    c      -0.000010      0.000008      0.000006      0.000000
     70 O2    c      -0.000110      0.000125      0.000131      0.000000
     71 O2    c      -0.000012     -0.000039      0.000083      0.000000
     72 O2    c       0.000019     -0.000007      0.000041      0.000000
     73 O2    c       0.000006      0.000054     -0.000104      0.000000
     74 O2    c      -0.000087     -0.000033      0.000240      0.000000
     75 O2    c       0.000007      0.000022      0.000052      0.000000
     76 O2    c      -0.000006     -0.000006     -0.000006      0.000000
     77 O2    c      -0.000010     -0.000041     -0.000068      0.000000
     78 O2    c      -0.000095      0.000202     -0.000120      0.000000
     79 O2    c       0.000004     -0.000003     -0.000008      0.000000
     80 O2    c      -0.000013      0.000011      0.000036      0.000000
     81 O1    c      -0.000066      0.000210      0.000010      0.000000
     82 O2    c       0.000005     -0.000005     -0.000019      0.000000
     83 O2    c      -0.000084      0.000077     -0.000007      0.000000
     84 O2    c       0.000003     -0.000009     -0.000000      0.000000
     85 O2    c      -0.000004     -0.000013      0.000008      0.000000
     86 O2    c      -0.000036      0.000067      0.000022      0.000000
     87 O2    c      -0.000039      0.000010     -0.000016      0.000000
     88 O2    c      -0.000045     -0.000051     -0.000000      0.000000
     89 O2    c      -0.000004      0.000009      0.000024      0.000000
     90 O2    c      -0.000007      0.000001      0.000006      0.000000
     91 O2    c       0.000085     -0.000073     -0.000317      0.000000
     92 O3    c      -0.000092      0.000050     -0.000691      0.000000
     93 O2    c      -0.000003      0.000027     -0.000033      0.000000
     94 O2    c      -0.000008     -0.000001     -0.000145      0.000000
     95 O2    c      -0.000016      0.000013      0.000027      0.000000
     96 O2    c       0.000003     -0.000004     -0.000031      0.000000
     97 O2    c       0.000005     -0.000009     -0.000021      0.000000
     98 O2    c       0.000003      0.000009     -0.000025      0.000000
     99 O3    c       0.000036      0.000023     -0.000039      0.000000
    100 O2    c       0.000001      0.000005     -0.000018      0.000000
    101 O3    c      -0.000002     -0.000163     -0.000042      0.000000
    102 O2    c      -0.000016     -0.000002      0.000047      0.000000
    103 O2    c      -0.000001      0.000006     -0.000001      0.000000
    104 O2    c       0.000036     -0.000016      0.000000      0.000000
    105 O2    c       0.000005      0.000015      0.000004      0.000000
    106 O2    c       0.000028      0.000018     -0.000023      0.000000
    107 O2    c      -0.000004     -0.000001     -0.000018      0.000000
    108 O2    c      -0.000004     -0.000010      0.000010      0.000000
    109 O2    c       0.000013     -0.000005      0.000129      0.000000
    110 O2    c      -0.000015      0.000005      0.000032      0.000000
    111 O2    c       0.000008     -0.000020      0.000007      0.000000
    112 O2    c      -0.000018      0.000029      0.000047      0.000000
    113 O2    c       0.000024     -0.000005     -0.000056      0.000000
    114 O2    c      -0.000014      0.000009      0.000019      0.000000
    115 O2    c       0.000032     -0.000009      0.000039      0.000000
    116 O2    c      -0.000001      0.000002      0.000009      0.000000
    117 O3    c       0.000012     -0.000020     -0.000061      0.000000
    118 O2    c      -0.000001     -0.000002     -0.000004      0.000000
    119 O2    c      -0.000071      0.000057     -0.000010      0.000000
    120 O2    c      -0.000004     -0.000007     -0.000004      0.000000
    121 O2    c      -0.000002     -0.000006      0.000005      0.000000
    122 O2    c       0.000012     -0.000018      0.000004      0.000000
    123 O2    c       0.000001      0.000011     -0.000026      0.000000
    124 O2    c       0.000002      0.000014      0.000000      0.000000
    125 O2    c      -0.000026      0.000011      0.000006      0.000000
    126 O2    c       0.000003      0.000003     -0.000003      0.000000
    127 O2    c       0.000002      0.000007      0.000026      0.000000
    128 O2    c      -0.000002      0.000005      0.000008      0.000000
    129 O2    c       0.000079     -0.000008      0.000069      0.000000
    130 O2    c      -0.000004      0.000007     -0.000035      0.000000
    131 O3    c       0.000001     -0.000001      0.000045      0.000000
    132 O2    c      -0.000011     -0.000004      0.000017      0.000000
    133 O2    c      -0.000014      0.000015      0.000020      0.000000
    134 O2    c      -0.000012      0.000013     -0.000000      0.000000
    135 O2    c      -0.000011     -0.000022      0.000019      0.000000
    136 O2    c      -0.000019      0.000014      0.000003      0.000000
    137 O2    c       0.000009     -0.000003     -0.000003      0.000000
    138 O2    c      -0.000001      0.000001     -0.000002      0.000000
    139 O2    c       0.000034      0.000018      0.000060      0.000000
    140 O2    c       0.000018     -0.000001      0.000037      0.000000
    141 O2    c       0.000005     -0.000003      0.000043      0.000000
    142 O2    c      -0.000001      0.000012     -0.000020      0.000000
    143 O2    c      -0.000008      0.000003     -0.000035      0.000000
    144 O2    c       0.000012     -0.000011      0.000001      0.000000
    145 O2    c       0.000009     -0.000006      0.000007      0.000000
    146 O2    c       0.000009      0.000013     -0.000008      0.000000
    147 O3    c       0.000058     -0.000015      0.000080      0.000000
    148 O2    c      -0.000029     -0.000041     -0.000023      0.000000
    149 O2    c      -0.000007      0.000017      0.000013      0.000000
    150 O2    c       0.000054     -0.000048      0.000013      0.000000
    151 O3    c      -0.000032     -0.000023      0.000062      0.000000
    152 O2    c      -0.000004     -0.000008     -0.000001      0.000000
    153 O3    c       0.000020     -0.000038     -0.000134      0.000000
    154 O2    c      -0.000001     -0.000008      0.000002      0.000000
    155 O2    c      -0.000011      0.000030      0.000020      0.000000
    156 O2    c      -0.000016      0.000020     -0.000044      0.000000
    157 O2    c      -0.000001      0.000000     -0.000035      0.000000
    158 O2    c       0.000004     -0.000001      0.000023      0.000000
    159 O2    c       0.000002     -0.000015      0.000005      0.000000
    160 O2    c       0.000001      0.000011     -0.000051      0.000000
    161 O2    c       0.000000      0.000037      0.000091      0.000000
    162 O2    c      -0.000001      0.000006      0.000030      0.000000
    163 O2    c      -0.000007     -0.000009     -0.000000      0.000000
    164 O2    c       0.000006      0.000006      0.000018      0.000000
    165 O2    c       0.000011     -0.000005      0.000010      0.000000
    166 O2    c      -0.000006      0.000009     -0.000000      0.000000
    167 O2    c       0.000021     -0.000031      0.000075      0.000000
    168 O2    c      -0.000008      0.000013      0.000020      0.000000
    169 O2    c       0.000000     -0.000004     -0.000006      0.000000
    170 O2    c      -0.000015      0.000005      0.000018      0.000000
    171 O2    c       0.000001      0.000026      0.000039      0.000000
    172 O3    c       0.000098     -0.000056     -0.000142      0.000000
    173 O2    c      -0.000001     -0.000010      0.000029      0.000000
    174 O2    c      -0.000005      0.000008     -0.000000      0.000000
    175 O2    c       0.000002     -0.000003      0.000020      0.000000
    176 O2    c       0.000013      0.000007     -0.000080      0.000000
    177 O2    c      -0.000014      0.000010     -0.000079      0.000000
    178 O2    c      -0.000010      0.000011      0.000010      0.000000
    179 O2    c       0.000012     -0.000003      0.000067      0.000000
    180 O2    c      -0.000001     -0.000001      0.000014      0.000000
    181 F     c      -0.000001     -0.000004     -0.000030      0.000000
    182 F     c      -0.000031      0.000035      0.000026      0.000000
    183 F     c      -0.000029     -0.000009     -0.000179      0.000000
    184 F     c      -0.000020     -0.000033      0.000017      0.000000
    185 F     c      -0.000013      0.000005      0.000029      0.000000
    186 F     c      -0.000000     -0.000006      0.000011      0.000000
    187 O2    s       0.000002     -0.000036     -0.000012      0.000000
    188 O2    s      -0.000005      0.000012      0.000029      0.000000
    189 O3    s       0.000011     -0.000020      0.000029      0.000000
    190 O2    s      -0.000014      0.000013     -0.000009      0.000000
    191 O2    s       0.000097     -0.000019     -0.000082      0.000000
    192 O2    s      -0.000008      0.000007      0.000008      0.000000
    193 O2    s       0.000012     -0.000009      0.000029      0.000000
    194 O2    s       0.000028     -0.000011     -0.000004      0.000000
    195 O2    s      -0.000006      0.000007      0.000004      0.000000
    196 O2    s       0.000109     -0.000077     -0.000053      0.000000
    197 O2    s       0.000002      0.000018     -0.000008      0.000000
    198 O2    s      -0.000009      0.000003      0.000006      0.000000
    199 O2    s      -0.000013     -0.000031      0.000027      0.000000
    200 O2    s       0.000027      0.000011      0.000004      0.000000
    201 O2    s       0.000004     -0.000007      0.000002      0.000000
    202 O2    s      -0.000004     -0.000001      0.000000      0.000000
    203 O2    s       0.000003      0.000002      0.000021      0.000000
    204 O2    s       0.000050     -0.000102      0.000079      0.000000
    205 O2    s      -0.000021      0.000003      0.000049      0.000000
    206 O2    s      -0.000006      0.000021     -0.000011      0.000000
    207 O1    s       0.000074     -0.000219      0.000053      0.000000
    208 O2    s      -0.000010      0.000009      0.000038      0.000000
    209 O2    s       0.000008      0.000010     -0.000041      0.000000
    210 O2    s      -0.000007      0.000016     -0.000013      0.000000
    211 O2    s       0.000011     -0.000006     -0.000014      0.000000
    212 O2    s      -0.000000     -0.000000     -0.000047      0.000000
    213 O2    s       0.000015     -0.000009      0.000015      0.000000
    214 O2    s       0.000029      0.000014      0.000017      0.000000
    215 O2    s      -0.000005      0.000005     -0.000022      0.000000
    216 O2    s      -0.000008      0.000001     -0.000021      0.000000
    217 O2    s      -0.000039      0.000044      0.000085      0.000000
    218 O3    s       0.000009      0.000008      0.000328      0.000000
    219 O2    s       0.000015     -0.000028      0.000027      0.000000
    220 O2    s       0.000041      0.000011      0.000096      0.000000
    221 O2    s      -0.000007      0.000002     -0.000022      0.000000
    222 O2    s      -0.000008      0.000004      0.000006      0.000000
    223 O2    s       0.000015     -0.000002      0.000004      0.000000
    224 O2    s       0.000003     -0.000025      0.000026      0.000000
    225 O3    s      -0.000032      0.000045      0.000009      0.000000
    226 O2    s       0.000002     -0.000015      0.000009      0.000000
    227 O3    s      -0.000011      0.000076     -0.000008      0.000000
    228 O2    s       0.000011     -0.000001     -0.000024      0.000000
    229 O2    s       0.000000      0.000010     -0.000020      0.000000
    230 O2    s       0.000011      0.000001      0.000003      0.000000
    231 O2    s       0.000011     -0.000009      0.000023      0.000000
    232 O2    s      -0.000039      0.000033      0.000071      0.000000
    233 O2    s      -0.000007      0.000005      0.000022      0.000000
    234 O2    s       0.000018      0.000002     -0.000050      0.000000
    235 O2    s       0.000003      0.000008      0.000009      0.000000
    236 O2    s       0.000003      0.000002     -0.000009      0.000000
    237 O2    s      -0.000023      0.000019     -0.000045      0.000000
    238 O2    s       0.000017     -0.000086     -0.000010      0.000000
    239 O2    s       0.000008      0.000009      0.000084      0.000000
    240 O2    s       0.000019     -0.000009     -0.000011      0.000000
    241 O2    s       0.000019     -0.000025     -0.000017      0.000000
    242 O2    s       0.000004     -0.000007     -0.000013      0.000000
    243 O3    s      -0.000002      0.000029      0.000107      0.000000
    244 O2    s      -0.000008      0.000001     -0.000005      0.000000
    245 O2    s       0.000052     -0.000004     -0.000086      0.000000
    246 O2    s      -0.000018      0.000023     -0.000052      0.000000
    247 O2    s       0.000012     -0.000006     -0.000019      0.000000
    248 O2    s       0.000007      0.000031     -0.000018      0.000000
    249 O2    s       0.000051     -0.000018     -0.000062      0.000000
    250 O2    s      -0.000033     -0.000014      0.000063      0.000000
    251 O2    s      -0.000003     -0.000000     -0.000000      0.000000
    252 O2    s       0.000000      0.000012     -0.000024      0.000000
    253 O2    s      -0.000018      0.000003     -0.000051      0.000000
    254 O2    s       0.000007     -0.000017     -0.000006      0.000000
    255 O2    s      -0.000019      0.000076     -0.000060      0.000000
    256 O2    s      -0.000007     -0.000001      0.000043      0.000000
    257 O3    s      -0.000013     -0.000017     -0.000080      0.000000
    258 O2    s       0.000012      0.000004     -0.000001      0.000000
    259 O2    s       0.000017     -0.000019     -0.000011      0.000000
    260 O2    s       0.000003      0.000008      0.000024      0.000000
    261 O2    s      -0.000004      0.000018     -0.000015      0.000000
    262 O2    s       0.000010      0.000003     -0.000094      0.000000
    263 O2    s      -0.000008      0.000003      0.000015      0.000000
    264 O2    s       0.000023      0.000002      0.000040      0.000000
    265 O2    s      -0.000032      0.000006     -0.000135      0.000000
    266 O2    s       0.000003     -0.000014     -0.000043      0.000000
    267 O2    s      -0.000021      0.000035      0.000154      0.000000
    268 O2    s       0.000011     -0.000004     -0.000034      0.000000
    269 O2    s      -0.000000      0.000025      0.000046      0.000000
    270 O2    s      -0.000017      0.000009      0.000006      0.000000
    271 O2    s      -0.000024      0.000003     -0.000001      0.000000
    272 O2    s      -0.000034      0.000012      0.000034      0.000000
    273 O3    s      -0.000033     -0.000003     -0.000087      0.000000
    274 O2    s      -0.000008      0.000018      0.000062      0.000000
    275 O2    s      -0.000004      0.000000     -0.000049      0.000000
    276 O2    s       0.000019      0.000025     -0.000044      0.000000
    277 O3    s       0.000036      0.000019     -0.000161      0.000000
    278 O2    s       0.000007      0.000009     -0.000022      0.000000
    279 O3    s      -0.000032      0.000056      0.000110      0.000000
    280 O2    s      -0.000004      0.000007      0.000023      0.000000
    281 O2    s      -0.000010     -0.000009      0.000139      0.000000
    282 O2    s       0.000005     -0.000009      0.000070      0.000000
    283 O2    s      -0.000001     -0.000001      0.000023      0.000000
    284 O2    s       0.000011     -0.000007      0.000058      0.000000
    285 O2    s      -0.000030      0.000026     -0.000094      0.000000
    286 O2    s       0.000005     -0.000021     -0.000017      0.000000
    287 O2    s       0.000010     -0.000014      0.000004      0.000000
    288 O2    s       0.000005     -0.000003      0.000012      0.000000
    289 O2    s       0.000034     -0.000008      0.000046      0.000000
    290 O2    s      -0.000009     -0.000014     -0.000010      0.000000
    291 O2    s       0.000022     -0.000025     -0.000005      0.000000
    292 O2    s       0.000000      0.000007     -0.000008      0.000000
    293 O2    s      -0.000048      0.000044     -0.000071      0.000000
    294 O2    s      -0.000002     -0.000010     -0.000073      0.000000
    295 O2    s       0.000003      0.000000     -0.000001      0.000000
    296 O2    s       0.000030     -0.000022      0.000006      0.000000
    297 O2    s      -0.000026     -0.000056     -0.000147      0.000000
    298 O3    s      -0.000105      0.000055      0.000206      0.000000
    299 O2    s      -0.000002      0.000004     -0.000015      0.000000
    300 O2    s       0.000001      0.000009     -0.000013      0.000000
    301 O2    s       0.000000      0.000003     -0.000087      0.000000
    302 O2    s      -0.000001     -0.000021     -0.000026      0.000000
    303 O2    s      -0.000004     -0.000004     -0.000041      0.000000
    304 O2    s      -0.000018     -0.000012      0.000109      0.000000
    305 O2    s      -0.000013     -0.000009      0.000013      0.000000
    306 O2    s       0.000011     -0.000004      0.000021      0.000000
    307 F     s       0.000002      0.000006      0.000067      0.000000
    308 F     s       0.000011      0.000026      0.000069      0.000000
    309 F     s      -0.000046     -0.000051     -0.000190      0.000000
    310 F     s       0.000070      0.000081     -0.000011      0.000000
    311 F     s       0.000007     -0.000020     -0.000036      0.000000
    312 F     s      -0.000004      0.000019     -0.000008      0.000000
--------------------------------------------------------------------------------
  Maximum abs         0.000110      0.000219      0.000691      0.000000
--------------------------------------------------------------------------------


  Time to end of optimisation =       7.1165 seconds


  Peak dynamic memory used =      19.13 MB 


  Timing analysis for GULP :

--------------------------------------------------------------------------------
  Task / Subroutine                                          Time (Seconds)
--------------------------------------------------------------------------------
  Calculation of reciprocal space energy and derivatives          0.2813
  Calculation of real space energy and derivatives                5.9067
  Calculation of three-body energy and derivatives                0.6990
  Calculation of matrix inversion                                 0.1920
--------------------------------------------------------------------------------
  Total CPU time                                                  7.1165
--------------------------------------------------------------------------------


  Dump file written as out.res                                                 
  CIF file written as out.cif                                                 


  Job Finished at 21:43.57 26th November   2016                               

