********************************************************************************
*                       GENERAL UTILITY LATTICE PROGRAM                        *
*                                 Julian Gale                                  *
*                      Nanochemistry Research Institute                        *
*                           Department of Chemistry                            *
*                    Curtin University, Western Australia                      *
********************************************************************************
* Version = 4.2.0 * Last modified =  20th January 2014                         *
********************************************************************************
*  optimise     - perform optimisation run                                     *
*  conp         - constant pressure calculation                                *
*  qok          - running with non charge neutral cell is OK                   *
********************************************************************************

  Job Started  at 16:50.19 26th November   2016                               

  Number of CPUs =     1


  Total number of configurations input =   1

********************************************************************************
*  Input for Configuration =   1                                               *
********************************************************************************

  Formula = Si57Ge3O120F6                                               

  Number of irreducible atoms/shells =     312


  Total number atoms/shells =     312

  Dimensionality = 3               :  Bulk   


  Charge on solid   =  -6.000000 =>neutralising background added


  Cartesian lattice vectors (Angstroms) :

       11.960363    0.000000    0.000000
       -5.952324   10.390114    0.000000
       -0.263023    0.012825   29.452624

  Cell parameters (Angstroms/Degrees):

  a =      11.9604    alpha =  89.7240
  b =      11.9743    beta  =  90.5117
  c =      29.4538    gamma = 119.8077

  Initial cell volume =        3660.063782 Angs**3

  Temperature of configuration =  0.000     K 

  Pressure of configuration =         0.000 GPa 

  Fractional coordinates of asymmetric unit :

--------------------------------------------------------------------------------
   No.  Atomic       x           y          z         Charge      Occupancy
        Label      (Frac)      (Frac)     (Frac)        (e)         (Frac)  
--------------------------------------------------------------------------------
      1 Si    c    0.699600    0.375700    0.033890     4.00000    1.000000    
      2 Si    c    0.617315 *  0.325357 *  0.367066 *   4.00000    1.000000    
      3 Si    c    0.679626 *  0.296226 *  0.699267 *   4.00000    1.000000    
      4 Si    c    0.299920 *  0.626280 *  0.534120 *   4.00000    1.000000    
      5 Si    c    0.374562 *  0.680598 *  0.864243 *   4.00000    1.000000    
      6 Si    c    0.329128 *  0.712971 *  0.201130 *   4.00000    1.000000    
      7 Si    c    0.380002 *  0.705774 *  0.301622 *   4.00000    1.000000    
      8 Si    c    0.318842 *  0.615904 *  0.966364 *   4.00000    1.000000    
      9 Si    c    0.298681 *  0.674814 *  0.635321 *   4.00000    1.000000    
     10 Si    c    0.631515 *  0.300043 *  0.800017 *   4.00000    1.000000    
     11 Si    c    0.677046 *  0.381380 *  0.467135 *   4.00000    1.000000    
     12 Si    c    0.695737 *  0.320835 *  0.136662 *   4.00000    1.000000    
     13 Si    c    0.527528 *  0.410507 *  0.965957 *   4.00000    1.000000    
     14 Si    c    0.580291 *  0.115749 *  0.302379 *   4.00000    1.000000    
     15 Si    c    0.888557 *  0.469110 *  0.634548 *   4.00000    1.000000    
     16 Si    c    0.468626 *  0.585749 *  0.468671 *   4.00000    1.000000    
     17 Si    c    0.422321 *  0.897085 *  0.801358 *   4.00000    1.000000    
     18 Si    c    0.121545 *  0.531719 *  0.136700 *   4.00000    1.000000    
     19 Si    c    0.414035 *  0.530490 *  0.367028 *   4.00000    1.000000    
     20 Si    c    0.113160 *  0.578670 *  0.032858 *   4.00000    1.000000    
     21 Si    c    0.470230 *  0.886406 *  0.700333 *   4.00000    1.000000    
     22 Si    c    0.588985 *  0.466981 *  0.863129 *   4.00000    1.000000    
     23 Si    c    0.887362 *  0.422572 *  0.532829 *   4.00000    1.000000    
     24 Si    c    0.524184 *  0.117452 *  0.200914 *   4.00000    1.000000    
     25 Ge    c    0.315436 *  0.410512 *  0.857111 *   4.00000    1.000000    
     26 Si    c    0.604498 *  0.914828 *  0.185494 *   4.00000    1.000000    
     27 Si    c    0.096964 *  0.702246 *  0.520144 *   4.00000    1.000000    
     28 Si    c    0.694133 *  0.603167 *  0.351531 *   4.00000    1.000000    
     29 Si    c    0.400347 *  0.097444 *  0.685590 *   4.00000    1.000000    
     30 Si    c    0.900830 *  0.294546 *  0.016240 *   4.00000    1.000000    
     31 Si    c    0.400913 *  0.306256 *  0.483559 *   4.00000    1.000000    
     32 Si    c    0.906500 *  0.601444 *  0.151091 *   4.00000    1.000000    
     33 Si    c    0.704604 *  0.096601 *  0.815493 *   4.00000    1.000000    
     34 Si    c    0.601240 *  0.695452 *  0.981262 *   4.00000    1.000000    
     35 Si    c    0.097981 *  0.395738 *  0.648414 *   4.00000    1.000000    
     36 Si    c    0.301157 *  0.905545 *  0.316241 *   4.00000    1.000000    
     37 Si    c    0.243250 *  0.328394 *  0.952984 *   4.00000    1.000000    
     38 Si    c    0.660037 *  0.916407 *  0.286617 *   4.00000    1.000000    
     39 Si    c    0.089486 *  0.747742 *  0.621177 *   4.00000    1.000000    
     40 Si    c    0.745895 *  0.660582 *  0.452236 *   4.00000    1.000000    
     41 Si    c    0.346624 *  0.099298 *  0.786293 *   4.00000    1.000000    
     42 Ge    c    0.910427 *  0.267571 *  0.116349 *   4.00000    1.000000    
     43 Si    c    0.336251 *  0.252041 *  0.383175 *   4.00000    1.000000    
     44 Si    c    0.913012 *  0.660485 *  0.048901 *   4.00000    1.000000    
     45 Si    c    0.750074 *  0.085757 *  0.714777 *   4.00000    1.000000    
     46 Si    c    0.660674 *  0.747836 *  0.879483 *   4.00000    1.000000    
     47 Si    c    0.090033 *  0.346641 *  0.547123 *   4.00000    1.000000    
     48 Si    c    0.247837 *  0.914163 *  0.215789 *   4.00000    1.000000    
     49 Si    c    0.967789 *  0.116427 *  0.967702 *   4.00000    1.000000    
     50 Si    c    0.875885 *  0.850683 *  0.300977 *   4.00000    1.000000    
     51 Si    c    0.148593 *  0.025209 *  0.636797 *   4.00000    1.000000    
     52 Si    c    0.025253 *  0.877256 *  0.467158 *   4.00000    1.000000    
     53 Si    c    0.127842 *  0.161406 *  0.803192 *   4.00000    1.000000    
     54 Si    c    0.851600 *  0.981586 *  0.134252 *   4.00000    1.000000    
     55 Si    c    0.120116 *  0.971467 *  0.366491 *   4.00000    1.000000    
     56 Si    c    0.845672 *  0.876222 *  0.034449 *   4.00000    1.000000    
     57 Si    c    0.030156 *  0.149331 *  0.701509 *   4.00000    1.000000    
     58 Si    c    0.883733 *  0.026562 *  0.866181 *   4.00000    1.000000    
     59 Ge    c    0.150142 *  0.124193 *  0.533676 *   4.00000    1.000000    
     60 Si    c    0.967514 *  0.850700 *  0.199838 *   4.00000    1.000000    
     61 O2    c    0.920868 *  0.995329 *  0.001020 *   0.87073    1.000000    
     62 O2    c    0.000112 *  0.930309 *  0.332648 *   0.87073    1.000000    
     63 O2    c    0.072083 *  0.066408 *  0.670938 *   0.87073    1.000000    
     64 O3    c    0.061362 *  0.998546 *  0.497668 *   1.33043    1.000000    
     65 O2    c    0.005315 *  0.067811 *  0.834515 *   0.87073    1.000000    
     66 O2    c    0.923568 *  0.926653 *  0.166472 *   0.87073    1.000000    
     67 O2    c    0.339563 *  0.581780 *  0.334055 *   0.87073    1.000000    
     68 O2    c    0.420805 *  0.759548 *  0.668667 *   0.87073    1.000000    
     69 O2    c    0.236712 *  0.654590 *  0.999934 *   0.87073    1.000000    
     70 O2    c    0.674932 *  0.423533 *  0.833360 *   0.87073    1.000000    
     71 O2    c    0.569625 *  0.243874 *  0.168769 *   0.87073    1.000000    
     72 O2    c    0.763093 *  0.344431 *  0.499927 *   0.87073    1.000000    
     73 O2    c    0.578759 *  0.339560 *  0.000355 *   0.87073    1.000000    
     74 O2    c    0.763238 *  0.418865 *  0.666667 *   0.87073    1.000000    
     75 O2    c    0.656094 *  0.241169 *  0.334564 *   0.87073    1.000000    
     76 O2    c    0.421979 *  0.663932 *  0.501141 *   0.87073    1.000000    
     77 O2    c    0.250606 *  0.592068 *  0.167234 *   0.87073    1.000000    
     78 O2    c    0.343579 *  0.777055 *  0.835680 *   0.87073    1.000000    
     79 O2    c    0.120757 *  0.207383 *  0.977430 *   0.87073    1.000000    
     80 O2    c    0.786700 *  0.915920 *  0.306685 *   0.87073    1.000000    
     81 O2    c    0.088836 *  0.871534 *  0.642777 *   0.87073    1.000000    
     82 O2    c    0.871769 *  0.785134 *  0.472359 *   0.87073    1.000000    
     83 O2    c    0.224799 *  0.102813 *  0.807450 *   0.87073    1.000000    
     84 O3    c    0.918502 *  0.130651 *  0.137990 *   1.33043    1.000000    
     85 O2    c    0.209680 *  0.126098 *  0.363075 *   0.87073    1.000000    
     86 O2    c    0.910396 *  0.785228 *  0.029344 *   0.87073    1.000000    
     87 O2    c    0.875829 *  0.085775 *  0.694703 *   0.87073    1.000000    
     88 O2    c    0.787389 *  0.872604 *  0.860295 *   0.87073    1.000000    
     89 O3    c    0.086435 *  0.223430 *  0.525054 *   1.33043    1.000000    
     90 O2    c    0.121681 *  0.914320 *  0.195270 *   0.87073    1.000000    
     91 O2    c    0.925108 *  0.861159 *  0.250105 *   0.87073    1.000000    
     92 O3    c    0.125285 *  0.060448 *  0.587065 *   1.33043    1.000000    
     93 O2    c    0.933793 *  0.058855 *  0.917592 *   0.87073    1.000000    
     94 O2    c    0.069274 *  0.141703 *  0.752546 *   0.87073    1.000000    
     95 O2    c    0.854774 *  0.926241 *  0.084597 *   0.87073    1.000000    
     96 O2    c    0.064386 *  0.925863 *  0.416093 *   0.87073    1.000000    
     97 O2    c    0.899637 *  0.202941 *  0.975005 *   0.87073    1.000000    
     98 O2    c    0.792145 *  0.699499 *  0.313235 *   0.87073    1.000000    
     99 O2    c    0.302136 *  0.096659 *  0.646867 *   0.87073    1.000000    
    100 O2    c    0.099463 *  0.800774 *  0.481658 *   0.87073    1.000000    
    101 O3    c    0.201022 *  0.307085 *  0.815538 *   1.33043    1.000000    
    102 O2    c    0.699434 *  0.916166 *  0.146645 *   0.87073    1.000000    
    103 O2    c    0.204170 *  0.904092 *  0.354688 *   0.87073    1.000000    
    104 O2    c    0.694843 *  0.788977 *  0.020686 *   0.87073    1.000000    
    105 O2    c    0.099735 *  0.298995 *  0.686660 *   0.87073    1.000000    
    106 O2    c    0.802342 *  0.097504 *  0.854357 *   0.87073    1.000000    
    107 O3    c    0.312626 *  0.210544 *  0.522980 *   1.33043    1.000000    
    108 O2    c    0.903327 *  0.698593 *  0.188168 *   0.87073    1.000000    
    109 O2    c    0.324602 *  0.650672 *  0.250950 *   0.87073    1.000000    
    110 O2    c    0.356816 *  0.679091 *  0.584931 *   0.87073    1.000000    
    111 O2    c    0.320549 *  0.672452 *  0.916212 *   0.87073    1.000000    
    112 O2    c    0.684067 *  0.355486 *  0.749424 *   0.87073    1.000000    
    113 O2    c    0.646326 *  0.322275 *  0.084427 *   0.87073    1.000000    
    114 O2    c    0.677586 *  0.325358 *  0.416887 *   0.87073    1.000000    
    115 O2    c    0.372319 *  0.324672 *  0.969563 *   0.87073    1.000000    
    116 O2    c    0.668228 *  0.047203 *  0.305607 *   0.87073    1.000000    
    117 O2    c    0.957366 *  0.624719 *  0.638696 *   0.87073    1.000000    
    118 O2    c    0.624772 *  0.672117 *  0.470768 *   0.87073    1.000000    
    119 O2    c    0.335457 *  0.965843 *  0.804168 *   0.87073    1.000000    
    120 O3    c    0.060150 *  0.380195 *  0.141140 *   1.33043    1.000000    
    121 O2    c    0.326068 *  0.374468 *  0.364282 *   0.87073    1.000000    
    122 O2    c    0.041167 *  0.663493 *  0.030314 *   0.87073    1.000000    
    123 O2    c    0.626331 *  0.953985 *  0.696812 *   0.87073    1.000000    
    124 O2    c    0.670289 *  0.624114 *  0.863280 *   0.87073    1.000000    
    125 O2    c    0.956768 *  0.336559 *  0.529650 *   0.87073    1.000000    
    126 O2    c    0.368153 *  0.048076 *  0.198042 *   0.87073    1.000000    
    127 O2    c    0.769071 *  0.302447 *  0.011643 *   0.87073    1.000000    
    128 O2    c    0.691162 *  0.467743 *  0.344102 *   0.87073    1.000000    
    129 O2    c    0.535650 *  0.228680 *  0.677143 *   0.87073    1.000000    
    130 O2    c    0.231152 *  0.702444 *  0.512618 *   0.87073    1.000000    
    131 O3    c    0.298948 *  0.544434 *  0.840364 *   1.33043    1.000000    
    132 O2    c    0.471223 *  0.780271 *  0.178709 *   0.87073    1.000000    
    133 O2    c    0.304454 *  0.773307 *  0.324002 *   0.87073    1.000000    
    134 O2    c    0.464315 *  0.689023 *  0.986878 *   0.87073    1.000000    
    135 O2    c    0.230949 *  0.530507 *  0.656572 *   0.87073    1.000000    
    136 O2    c    0.707019 *  0.231699 *  0.822306 *   0.87073    1.000000    
    137 O2    c    0.535253 *  0.306048 *  0.489596 *   0.87073    1.000000    
    138 O2    c    0.772210 *  0.467759 *  0.156033 *   0.87073    1.000000    
    139 O2    c    0.788032 *  0.530562 *  0.031875 *   0.87073    1.000000    
    140 O2    c    0.460898 *  0.250029 *  0.363512 *   0.87073    1.000000    
    141 O2    c    0.751639 *  0.212349 *  0.694934 *   0.87073    1.000000    
    142 O2    c    0.217445 *  0.471453 *  0.528290 *   0.87073    1.000000    
    143 O2    c    0.531357 *  0.743102 *  0.861463 *   0.87073    1.000000    
    144 O2    c    0.249081 *  0.789628 *  0.195567 *   0.87073    1.000000    
    145 O2    c    0.536120 *  0.788766 *  0.305808 *   0.87073    1.000000    
    146 O2    c    0.250978 *  0.461112 *  0.970535 *   0.87073    1.000000    
    147 O2    c    0.215970 *  0.747792 *  0.640453 *   0.87073    1.000000    
    148 O2    c    0.476255 *  0.221595 *  0.805556 *   0.87073    1.000000    
    149 O2    c    0.749282 *  0.536631 *  0.471871 *   0.87073    1.000000    
    150 O3    c    0.768355 *  0.240520 *  0.143753 *   1.33043    1.000000    
    151 O3    c    0.214572 *  0.302708 *  0.900531 *   1.33043    1.000000    
    152 O2    c    0.678813 *  0.919471 *  0.232339 *   0.87073    1.000000    
    153 O2    c    0.092629 *  0.771213 *  0.566842 *   0.87073    1.000000    
    154 O2    c    0.764269 *  0.677510 *  0.397900 *   0.87073    1.000000    
    155 O2    c    0.329148 *  0.099661 *  0.731765 *   0.87073    1.000000    
    156 O3    c    0.904409 *  0.216185 *  0.059436 *   1.33043    1.000000    
    157 O2    c    0.319819 *  0.234115 *  0.437761 *   0.87073    1.000000    
    158 O2    c    0.915377 *  0.670890 *  0.103072 *   0.87073    1.000000    
    159 O2    c    0.771205 *  0.087772 *  0.769141 *   0.87073    1.000000    
    160 O2    c    0.669682 *  0.760879 *  0.934176 *   0.87073    1.000000    
    161 O2    c    0.095856 *  0.324692 *  0.601420 *   0.87073    1.000000    
    162 O2    c    0.228304 *  0.909283 *  0.270078 *   0.87073    1.000000    
    163 O2    c    0.582196 *  0.553560 *  0.986437 *   0.87073    1.000000    
    164 O2    c    0.439621 *  0.031433 *  0.325140 *   0.87073    1.000000    
    165 O2    c    0.971876 *  0.409044 *  0.656667 *   0.87073    1.000000    
    166 O2    c    0.413910 *  0.445409 *  0.492081 *   0.87073    1.000000    
    167 O2    c    0.564087 *  0.974457 *  0.825007 *   0.87073    1.000000    
    168 O2    c    0.028463 *  0.581406 *  0.158622 *   0.87073    1.000000    
    169 O2    c    0.553976 *  0.588162 *  0.343266 *   0.87073    1.000000    
    170 O2    c    0.025586 *  0.437645 *  0.010658 *   0.87073    1.000000    
    171 O2    c    0.412138 *  0.970459 *  0.677421 *   0.87073    1.000000    
    172 O3    c    0.453815 *  0.408418 *  0.837576 *   1.33043    1.000000    
    173 O2    c    0.970716 *  0.564626 *  0.510541 *   0.87073    1.000000    
    174 O2    c    0.582301 *  0.035652 *  0.177258 *   0.87073    1.000000    
    175 O2    c    0.579149 *  0.169485 *  0.251666 *   0.87073    1.000000    
    176 O2    c    0.833536 *  0.420082 *  0.583532 *   0.87073    1.000000    
    177 O2    c    0.579777 *  0.412509 *  0.915285 *   0.87073    1.000000    
    178 O2    c    0.419142 *  0.836598 *  0.751590 *   0.87073    1.000000    
    179 O2    c    0.163808 *  0.579845 *  0.084010 *   0.87073    1.000000    
    180 O2    c    0.413937 *  0.584103 *  0.417710 *   0.87073    1.000000    
    181 F     c    0.448578 *  0.907277 *  0.251107 *   0.56000    1.000000    
    182 F     c    0.096006 *  0.549074 *  0.583899 *   0.56000    1.000000    
    183 F     c    0.423412 *  0.515521 *  0.905933 *   0.56000    1.000000    
    184 F     c    0.551746 *  0.095460 *  0.750777 *   0.56000    1.000000    
    185 F     c    0.907188 *  0.415455 *  0.089315 *   0.56000    1.000000    
    186 F     c    0.544295 *  0.452458 *  0.417349 *   0.56000    1.000000    
    187 O2    s    0.917452 *  0.995130 *  0.001132 *  -2.87073    1.000000    
    188 O2    s    0.999511 *  0.925968 *  0.332854 *  -2.87073    1.000000    
    189 O2    s    0.075946 *  0.071095 *  0.670545 *  -2.87073    1.000000    
    190 O3    s    0.065169 *  0.996234 *  0.497474 *  -3.33043    1.000000    
    191 O2    s    0.004057 *  0.072744 *  0.834905 *  -2.87073    1.000000    
    192 O2    s    0.921017 *  0.923654 *  0.166922 *  -2.87073    1.000000    
    193 O2    s    0.351362 *  0.589283 *  0.334085 *  -2.87073    1.000000    
    194 O2    s    0.413362 *  0.763852 *  0.668486 *  -2.87073    1.000000    
    195 O2    s    0.232433 *  0.642762 *  0.999856 *  -2.87073    1.000000    
    196 O2    s    0.661991 *  0.415706 *  0.833057 *  -2.87073    1.000000    
    197 O2    s    0.577754 *  0.239089 *  0.168720 *  -2.87073    1.000000    
    198 O2    s    0.766995 *  0.356400 *  0.499904 *  -2.87073    1.000000    
    199 O2    s    0.586179 *  0.350766 *  0.000319 *  -2.87073    1.000000    
    200 O2    s    0.767516 *  0.411311 *  0.666744 *  -2.87073    1.000000    
    201 O2    s    0.644196 *  0.236788 *  0.334570 *  -2.87073    1.000000    
    202 O2    s    0.414343 *  0.652138 *  0.501188 *  -2.87073    1.000000    
    203 O2    s    0.244865 *  0.598174 *  0.167475 *  -2.87073    1.000000    
    204 O2    s    0.355023 *  0.779039 *  0.835241 *  -2.87073    1.000000    
    205 O2    s    0.117237 *  0.210124 *  0.974034 *  -2.87073    1.000000    
    206 O2    s    0.783092 *  0.909067 *  0.304039 *  -2.87073    1.000000    
    207 O2    s    0.095177 *  0.874712 *  0.639921 *  -2.87073    1.000000    
    208 O2    s    0.874719 *  0.781669 *  0.469679 *  -2.87073    1.000000    
    209 O2    s    0.228151 *  0.108331 *  0.804772 *  -2.87073    1.000000    
    210 O3    s    0.910376 *  0.122656 *  0.136184 *  -3.33043    1.000000    
    211 O2    s    0.213240 *  0.122746 *  0.365480 *  -2.87073    1.000000    
    212 O2    s    0.904087 *  0.781132 *  0.031927 *  -2.87073    1.000000    
    213 O2    s    0.878825 *  0.092391 *  0.697470 *  -2.87073    1.000000    
    214 O2    s    0.783736 *  0.875078 *  0.862922 *  -2.87073    1.000000    
    215 O3    s    0.092107 *  0.227615 *  0.527980 *  -3.33043    1.000000    
    216 O2    s    0.118390 *  0.907514 *  0.197865 *  -2.87073    1.000000    
    217 O2    s    0.924357 *  0.858779 *  0.250148 *  -2.87073    1.000000    
    218 O3    s    0.129981 *  0.062268 *  0.587720 *  -3.33043    1.000000    
    219 O2    s    0.932052 *  0.061766 *  0.917570 *  -2.87073    1.000000    
    220 O2    s    0.071024 *  0.144690 *  0.752061 *  -2.87073    1.000000    
    221 O2    s    0.853361 *  0.926100 *  0.083850 *  -2.87073    1.000000    
    222 O2    s    0.066418 *  0.925666 *  0.416091 *  -2.87073    1.000000    
    223 O2    s    0.906748 *  0.203112 *  0.978290 *  -2.87073    1.000000    
    224 O2    s    0.790989 *  0.705640 *  0.315845 *  -2.87073    1.000000    
    225 O2    s    0.296191 *  0.089355 *  0.649731 *  -2.87073    1.000000    
    226 O2    s    0.091387 *  0.798740 *  0.484101 *  -2.87073    1.000000    
    227 O3    s    0.200457 *  0.297612 *  0.816925 *  -3.33043    1.000000    
    228 O2    s    0.704741 *  0.922611 *  0.149491 *  -2.87073    1.000000    
    229 O2    s    0.205215 *  0.911442 *  0.351977 *  -2.87073    1.000000    
    230 O2    s    0.700481 *  0.788001 *  0.017893 *  -2.87073    1.000000    
    231 O2    s    0.092232 *  0.293315 *  0.684232 *  -2.87073    1.000000    
    232 O2    s    0.800997 *  0.089890 *  0.851646 *  -2.87073    1.000000    
    233 O3    s    0.307787 *  0.212667 *  0.520068 *  -3.33043    1.000000    
    234 O2    s    0.910275 *  0.703907 *  0.185432 *  -2.87073    1.000000    
    235 O2    s    0.330719 *  0.662663 *  0.251062 *  -2.87073    1.000000    
    236 O2    s    0.345207 *  0.673317 *  0.584857 *  -2.87073    1.000000    
    237 O2    s    0.325522 *  0.667220 *  0.916547 *  -2.87073    1.000000    
    238 O2    s    0.678195 *  0.343733 *  0.749531 *  -2.87073    1.000000    
    239 O2    s    0.656685 *  0.327691 *  0.084217 *  -2.87073    1.000000    
    240 O2    s    0.671345 *  0.331112 *  0.416932 *  -2.87073    1.000000    
    241 O2    s    0.375771 *  0.334055 *  0.967516 *  -2.87073    1.000000    
    242 O2    s    0.658333 *  0.040586 *  0.303284 *  -2.87073    1.000000    
    243 O2    s    0.964132 *  0.621545 *  0.636416 *  -2.87073    1.000000    
    244 O2    s    0.621291 *  0.661986 *  0.468600 *  -2.87073    1.000000    
    245 O2    s    0.345848 *  0.972568 *  0.801977 *  -2.87073    1.000000    
    246 O3    s    0.055703 *  0.387735 *  0.138876 *  -3.33043    1.000000    
    247 O2    s    0.336125 *  0.377796 *  0.366529 *  -2.87073    1.000000    
    248 O2    s    0.034929 *  0.654536 *  0.032538 *  -2.87073    1.000000    
    249 O2    s    0.623310 *  0.960845 *  0.699056 *  -2.87073    1.000000    
    250 O2    s    0.661084 *  0.621414 *  0.864999 *  -2.87073    1.000000    
    251 O2    s    0.963544 *  0.346826 *  0.531866 *  -2.87073    1.000000    
    252 O2    s    0.371707 *  0.041221 *  0.200212 *  -2.87073    1.000000    
    253 O2    s    0.775285 *  0.309258 *  0.014462 *  -2.87073    1.000000    
    254 O2    s    0.683891 *  0.467392 *  0.347263 *  -2.87073    1.000000    
    255 O2    s    0.536239 *  0.221839 *  0.680331 *  -2.87073    1.000000    
    256 O2    s    0.224218 *  0.694582 *  0.515665 *  -2.87073    1.000000    
    257 O3    s    0.308053 *  0.549198 *  0.844099 *  -3.33043    1.000000    
    258 O2    s    0.470453 *  0.787461 *  0.181809 *  -2.87073    1.000000    
    259 O2    s    0.311867 *  0.780384 *  0.320853 *  -2.87073    1.000000    
    260 O2    s    0.463971 *  0.682139 *  0.984138 *  -2.87073    1.000000    
    261 O2    s    0.224143 *  0.531404 *  0.653499 *  -2.87073    1.000000    
    262 O2    s    0.698955 *  0.224452 *  0.819237 *  -2.87073    1.000000    
    263 O2    s    0.535894 *  0.314003 *  0.486545 *  -2.87073    1.000000    
    264 O2    s    0.778757 *  0.467086 *  0.153514 *  -2.87073    1.000000    
    265 O2    s    0.792262 *  0.528248 *  0.033922 *  -2.87073    1.000000    
    266 O2    s    0.463757 *  0.258179 *  0.365976 *  -2.87073    1.000000    
    267 O2    s    0.743785 *  0.207400 *  0.697514 *  -2.87073    1.000000    
    268 O2    s    0.212417 *  0.474457 *  0.530910 *  -2.87073    1.000000    
    269 O2    s    0.530114 *  0.737292 *  0.863712 *  -2.87073    1.000000    
    270 O2    s    0.257220 *  0.795221 *  0.198282 *  -2.87073    1.000000    
    271 O2    s    0.533209 *  0.793978 *  0.303326 *  -2.87073    1.000000    
    272 O2    s    0.257494 *  0.464084 *  0.968316 *  -2.87073    1.000000    
    273 O2    s    0.210809 *  0.739996 *  0.637833 *  -2.87073    1.000000    
    274 O2    s    0.478718 *  0.216585 *  0.802933 *  -2.87073    1.000000    
    275 O2    s    0.741168 *  0.533773 *  0.469247 *  -2.87073    1.000000    
    276 O3    s    0.771696 *  0.250837 *  0.141024 *  -3.33043    1.000000    
    277 O3    s    0.224430 *  0.312678 *  0.903200 *  -3.33043    1.000000    
    278 O2    s    0.669076 *  0.918687 *  0.233234 *  -2.87073    1.000000    
    279 O2    s    0.092778 *  0.761677 *  0.567653 *  -2.87073    1.000000    
    280 O2    s    0.754877 *  0.667844 *  0.398745 *  -2.87073    1.000000    
    281 O2    s    0.338480 *  0.099404 *  0.732653 *  -2.87073    1.000000    
    282 O3    s    0.904437 *  0.227835 *  0.059030 *  -3.33043    1.000000    
    283 O2    s    0.329581 *  0.243197 *  0.436716 *  -2.87073    1.000000    
    284 O2    s    0.914194 *  0.662400 *  0.102135 *  -2.87073    1.000000    
    285 O2    s    0.761934 *  0.088475 *  0.768309 *  -2.87073    1.000000    
    286 O2    s    0.661314 *  0.752421 *  0.933556 *  -2.87073    1.000000    
    287 O2    s    0.095555 *  0.334288 *  0.600739 *  -2.87073    1.000000    
    288 O2    s    0.237971 *  0.909412 *  0.269113 *  -2.87073    1.000000    
    289 O2    s    0.578443 *  0.554041 *  0.983709 *  -2.87073    1.000000    
    290 O2    s    0.439479 *  0.026545 *  0.321772 *  -2.87073    1.000000    
    291 O2    s    0.976853 *  0.414072 *  0.653458 *  -2.87073    1.000000    
    292 O2    s    0.418387 *  0.445229 *  0.488723 *  -2.87073    1.000000    
    293 O2    s    0.564569 *  0.979741 *  0.821534 *  -2.87073    1.000000    
    294 O2    s    0.024078 *  0.578492 *  0.155620 *  -2.87073    1.000000    
    295 O2    s    0.554591 *  0.583617 *  0.346635 *  -2.87073    1.000000    
    296 O2    s    0.021911 *  0.437869 *  0.013596 *  -2.87073    1.000000    
    297 O2    s    0.417132 *  0.975424 *  0.680699 *  -2.87073    1.000000    
    298 O3    s    0.457610 *  0.414830 *  0.841643 *  -3.33043    1.000000    
    299 O2    s    0.975807 *  0.564650 *  0.513916 *  -2.87073    1.000000    
    300 O2    s    0.578304 *  0.031069 *  0.180649 *  -2.87073    1.000000    
    301 O2    s    0.573548 *  0.158503 *  0.251629 *  -2.87073    1.000000    
    302 O2    s    0.844838 *  0.425453 *  0.583562 *  -2.87073    1.000000    
    303 O2    s    0.575078 *  0.417507 *  0.915626 *  -2.87073    1.000000    
    304 O2    s    0.424751 *  0.847917 *  0.751426 *  -2.87073    1.000000    
    305 O2    s    0.154261 *  0.575012 *  0.083666 *  -2.87073    1.000000    
    306 O2    s    0.419568 *  0.578737 *  0.417738 *  -2.87073    1.000000    
    307 F     s    0.448018 *  0.906637 *  0.251065 *  -1.56000    1.000000    
    308 F     s    0.096268 *  0.549191 *  0.583853 *  -1.56000    1.000000    
    309 F     s    0.416761 *  0.509084 *  0.903116 *  -1.56000    1.000000    
    310 F     s    0.551911 *  0.095585 *  0.750846 *  -1.56000    1.000000    
    311 F     s    0.907150 *  0.407353 *  0.090668 *  -1.56000    1.000000    
    312 F     s    0.544375 *  0.452134 *  0.417338 *  -1.56000    1.000000    
--------------------------------------------------------------------------------



********************************************************************************
*  General input information                                                   *
********************************************************************************

  Species output for all configurations : 

--------------------------------------------------------------------------------
  Species    Type    Atomic    Atomic    Charge       Radii (Angs)     Library
                     Number     Mass       (e)     Cova   Ionic  VDW   Symbol
--------------------------------------------------------------------------------
    Si       Core       14      28.09   4.000000   1.200  0.000  2.100          
    O1       Core        8      16.00   1.733957   0.730  0.000  1.360          
    O1       Shell       8       0.00  -3.733957   0.730  0.000  1.360          
    O2       Core        8      16.00   0.870733   0.730  0.000  1.360          
    O2       Shell       8       0.00  -2.870733   0.730  0.000  1.360          
    O3       Core        8      16.00   1.330431   0.730  0.000  1.360          
    O3       Shell       8       0.00  -3.330431   0.730  0.000  1.360          
    F        Core        9      19.00   0.560000   0.710  0.000  1.300          
    F        Shell       9       0.00  -1.560000   0.710  0.000  1.300          
    Ge       Core       32      72.61   4.000000   1.170  0.000  1.750          
--------------------------------------------------------------------------------


  Lattice summation method               =    Ewald          (3-D)
                                         =    Parry          (2-D)
                                         =    Saunders et al (1-D)
  Accuracy factor for lattice sums       =   12.000


  Time limit = Infinity

  Maximum range for interatomic potentials =        16.000000 Angstroms

  Taper potentials to zero over   1.0000 Angstroms using polynomial

  General interatomic potentials :

--------------------------------------------------------------------------------
Atom  Types   Potential         A         B         C         D     Cutoffs(Ang)
  1     2                                                            Min    Max 
--------------------------------------------------------------------------------
Si   c O1   s Buckingham    0.132E+04 0.318      10.1      0.00     0.000 16.000
Si   c O2   s Buckingham    0.132E+04 0.318      10.1      0.00     0.000 16.000
Si   c O3   s Buckingham    0.132E+04 0.318      10.1      0.00     0.000 16.000
Ge   c O1   s Buckingham    0.150E+04 0.326      16.8      0.00     0.000 16.000
Ge   c O2   s Buckingham    0.150E+04 0.326      16.8      0.00     0.000 16.000
Ge   c O3   s Buckingham    0.150E+04 0.326      16.8      0.00     0.000 16.000
O1   s O1   s Buckingham    0.228E+05 0.149      10.9      0.00     0.000 16.000
O1   s O2   s Buckingham    0.228E+05 0.149      10.9      0.00     0.000 16.000
O1   s O3   s Buckingham    0.228E+05 0.149      10.9      0.00     0.000 16.000
O2   s O2   s Buckingham    0.228E+05 0.149      10.9      0.00     0.000 16.000
O2   s O3   s Buckingham    0.228E+05 0.149      10.9      0.00     0.000 16.000
O3   s O3   s Buckingham    0.228E+05 0.149      10.9      0.00     0.000 16.000
Si   c F    s Buckingham     977.     0.282      0.00      0.00     0.000 16.000
Ge   c F    s Buckingham     681.     0.320      0.00      0.00     0.000 16.000
F    s F    s Buckingham     540.     0.262      0.00      0.00     0.000 16.000
O1   s F    s Buckingham    0.168E+04 0.268      0.00      0.00     0.000 16.000
O2   s F    s Buckingham    0.168E+04 0.268      0.00      0.00     0.000 16.000
O3   s F    s Buckingham    0.168E+04 0.268      0.00      0.00     0.000 16.000
O2   c O2   s Spring (c-s)   76.0      0.00      0.00      0.00     0.000  0.800
O3   c O3   s Spring (c-s)   128.      0.00      0.00      0.00     0.000  0.800
O1   c O1   s Spring (c-s)   180.      0.00      0.00      0.00     0.000  0.800
F    c F    s Spring (c-s)   33.5      0.00      0.00      0.00     0.000  0.800
--------------------------------------------------------------------------------

  General Three-body potentials :

  Harmonic form:

--------------------------------------------------------------------------------
Atom    Atom    Atom           Force Constants            Theta     Cutoffs  
  1       2       3     (eVrad**-2/eVrad**-3/eVrad**-4)   (deg)  1-2  1-3  2-3
--------------------------------------------------------------------------------
Si    c O1    s O1    s  1.261        0.0000    0.0000   109.470 0.00 0.00 0.00
                                                                 1.90 1.90 3.50
Si    c O1    s O2    s  1.261        0.0000    0.0000   109.470 0.00 0.00 0.00
                                                                 1.90 1.90 3.50
Si    c O2    s O2    s  1.261        0.0000    0.0000   109.470 0.00 0.00 0.00
                                                                 1.90 1.90 3.50
--------------------------------------------------------------------------------

********************************************************************************
*  Output for configuration   1                                                *
********************************************************************************


  Components of energy : 

--------------------------------------------------------------------------------
  Interatomic potentials     =        2063.28920180 eV
  Three-body potentials      =           0.48633581 eV
  Monopole - monopole (real) =       -6613.18135085 eV
  Monopole - monopole (recip)=       -3170.40141637 eV
  Monopole - monopole (total)=       -9783.58276722 eV
  Neutralising energy        =          -6.45811430 eV
--------------------------------------------------------------------------------
  Total lattice energy       =       -7726.26534391 eV
--------------------------------------------------------------------------------
  Total lattice energy       =         -745466.4989 kJ/(mole unit cells)
--------------------------------------------------------------------------------


  Number of variables =      939

  Maximum number of calculations  =          1000
  Maximum Hessian update interval =            10
  Maximum step size               =   1.000000000
  Maximum parameter tolerance     =   0.000010000
  Maximum function  tolerance     =   0.000010000
  Maximum gradient  tolerance     =   0.001000000
  Maximum gradient  component     =   0.010000000

  Symmetry not applied to optimisation

  Cell parameters to be optimised using strains

  Newton-Raphson optimiser to be used

  BFGS hessian update to be used

  Dumpfile to be written after every cycle

  Start of bulk optimisation :

  Cycle:      0 Energy:     -7726.265344  Gnorm:      0.001159  CPU:    1.121
  ** Hessian calculated **
  Cycle:      1 Energy:     -7726.294009  Gnorm:      0.001738  CPU:    3.045
  Cycle:      2 Energy:     -7726.294118  Gnorm:      0.000106  CPU:    4.440


  **** Optimisation achieved ****


  Final energy =   -7726.29412182 eV
  Final Gnorm  =       0.00003156

  Components of energy : 

--------------------------------------------------------------------------------
  Interatomic potentials     =        2063.55967858 eV
  Three-body potentials      =           0.49187509 eV
  Monopole - monopole (real) =       -6612.85494077 eV
  Monopole - monopole (recip)=       -3171.03133751 eV
  Monopole - monopole (total)=       -9783.88627828 eV
  Neutralising energy        =          -6.45939721 eV
--------------------------------------------------------------------------------
  Total lattice energy       =       -7726.29412182 eV
--------------------------------------------------------------------------------
  Total lattice energy       =         -745469.2755 kJ/(mole unit cells)
--------------------------------------------------------------------------------

  Final fractional coordinates of atoms :

--------------------------------------------------------------------------------
   No.  Atomic        x           y          z          Radius
        Label       (Frac)      (Frac)     (Frac)       (Angs) 
--------------------------------------------------------------------------------
     1  Si    c     0.699600    0.375700    0.033890    0.000000
     2  Si    c     0.619018    0.335197    0.368129    0.000000
     3  Si    c     0.685792    0.306968    0.700387    0.000000
     4  Si    c     0.305149    0.638312    0.535585    0.000000
     5  Si    c     0.374922    0.686097    0.865126    0.000000
     6  Si    c     0.328685    0.719489    0.202269    0.000000
     7  Si    c     0.381830    0.715852    0.302949    0.000000
     8  Si    c     0.317476    0.617641    0.967054    0.000000
     9  Si    c     0.304084    0.685650    0.636798    0.000000
    10  Si    c     0.637687    0.308921    0.800993    0.000000
    11  Si    c     0.681423    0.392172    0.468206    0.000000
    12  Si    c     0.695344    0.324002    0.137077    0.000000
    13  Si    c     0.527326    0.412550    0.966402    0.000000
    14  Si    c     0.581362    0.125638    0.303001    0.000000
    15  Si    c     0.894249    0.480271    0.635731    0.000000
    16  Si    c     0.473017    0.597160    0.470273    0.000000
    17  Si    c     0.427652    0.906203    0.802916    0.000000
    18  Si    c     0.121337    0.535517    0.137913    0.000000
    19  Si    c     0.416272    0.541124    0.368705    0.000000
    20  Si    c     0.112514    0.580467    0.033788    0.000000
    21  Si    c     0.475999    0.897205    0.701693    0.000000
    22  Si    c     0.589553    0.471928    0.863649    0.000000
    23  Si    c     0.892985    0.434546    0.533851    0.000000
    24  Si    c     0.522761    0.123683    0.201591    0.000000
    25  Ge    c     0.316131    0.416085    0.858069    0.000000
    26  Si    c     0.603826    0.921809    0.186106    0.000000
    27  Si    c     0.102482    0.714645    0.521482    0.000000
    28  Si    c     0.695930    0.613437    0.353089    0.000000
    29  Si    c     0.406174    0.108606    0.686808    0.000000
    30  Si    c     0.901273    0.295545    0.016942    0.000000
    31  Si    c     0.405922    0.317840    0.484973    0.000000
    32  Si    c     0.905796    0.604947    0.151801    0.000000
    33  Si    c     0.710558    0.105848    0.816589    0.000000
    34  Si    c     0.600164    0.697269    0.982028    0.000000
    35  Si    c     0.103610    0.406615    0.649923    0.000000
    36  Si    c     0.302636    0.915516    0.317098    0.000000
    37  Si    c     0.242772    0.330162    0.953592    0.000000
    38  Si    c     0.661574    0.926464    0.287302    0.000000
    39  Si    c     0.095260    0.758842    0.622648    0.000000
    40  Si    c     0.749941    0.671643    0.453714    0.000000
    41  Si    c     0.352463    0.109323    0.787632    0.000000
    42  Ge    c     0.910461    0.271406    0.117283    0.000000
    43  Si    c     0.338287    0.262383    0.384731    0.000000
    44  Si    c     0.911695    0.661472    0.049405    0.000000
    45  Si    c     0.755919    0.096373    0.715829    0.000000
    46  Si    c     0.661012    0.752778    0.880483    0.000000
    47  Si    c     0.095742    0.358527    0.548479    0.000000
    48  Si    c     0.247037    0.920743    0.216617    0.000000
    49  Si    c     0.968378    0.117513    0.968599    0.000000
    50  Si    c     0.877207    0.860006    0.301816    0.000000
    51  Si    c     0.154478    0.036091    0.637643    0.000000
    52  Si    c     0.029206    0.888607    0.468196    0.000000
    53  Si    c     0.130401    0.167098    0.804265    0.000000
    54  Si    c     0.849693    0.984934    0.134857    0.000000
    55  Si    c     0.121801    0.981680    0.367337    0.000000
    56  Si    c     0.844085    0.877437    0.035394    0.000000
    57  Si    c     0.035323    0.159230    0.702420    0.000000
    58  Si    c     0.886409    0.030704    0.866841    0.000000
    59  Ge    c     0.155431    0.135580    0.534612    0.000000
    60  Si    c     0.965880    0.854307    0.200656    0.000000
    61  O2    c     0.920238    0.996429    0.001973    0.000000
    62  O2    c     0.002509    0.941400    0.333028    0.000000
    63  O2    c     0.077617    0.078341    0.671039    0.000000
    64  O3    c     0.066596    0.011975    0.497700    0.000000
    65  O2    c     0.007632    0.070581    0.835071    0.000000
    66  O2    c     0.919764    0.928427    0.167297    0.000000
    67  O2    c     0.341738    0.592567    0.335737    0.000000
    68  O2    c     0.426435    0.770200    0.670141    0.000000
    69  O2    c     0.235797    0.656173    0.000837    0.000000
    70  O2    c     0.678787    0.431925    0.834391    0.000000
    71  O2    c     0.568648    0.249182    0.168903    0.000000
    72  O2    c     0.768775    0.356103    0.500805    0.000000
    73  O2    c     0.578879    0.340523    0.000284    0.000000
    74  O2    c     0.768918    0.429654    0.667743    0.000000
    75  O2    c     0.657105    0.251343    0.335185    0.000000
    76  O2    c     0.427164    0.675956    0.502699    0.000000
    77  O2    c     0.250259    0.597597    0.168691    0.000000
    78  O2    c     0.347264    0.785631    0.836901    0.000000
    79  O2    c     0.121336    0.208826    0.978352    0.000000
    80  O2    c     0.788873    0.926372    0.307059    0.000000
    81  O2    c     0.095010    0.882673    0.644396    0.000000
    82  O2    c     0.876027    0.795857    0.474039    0.000000
    83  O2    c     0.230455    0.112172    0.808824    0.000000
    84  O3    c     0.918389    0.134126    0.138716    0.000000
    85  O2    c     0.211162    0.136558    0.364728    0.000000
    86  O2    c     0.908253    0.786057    0.030028    0.000000
    87  O2    c     0.881118    0.096064    0.695516    0.000000
    88  O2    c     0.787391    0.877227    0.860956    0.000000
    89  O3    c     0.091804    0.235101    0.526485    0.000000
    90  O2    c     0.120101    0.919246    0.195960    0.000000
    91  O2    c     0.924341    0.865825    0.250916    0.000000
    92  O3    c     0.130707    0.068812    0.587525    0.000000
    93  O2    c     0.936039    0.060335    0.918400    0.000000
    94  O2    c     0.073502    0.147715    0.753293    0.000000
    95  O2    c     0.852484    0.927941    0.085460    0.000000
    96  O2    c     0.064910    0.933617    0.416631    0.000000
    97  O2    c     0.900289    0.204123    0.975730    0.000000
    98  O2    c     0.793449    0.709484    0.314776    0.000000
    99  O2    c     0.307962    0.108148    0.648037    0.000000
   100  O2    c     0.104781    0.813681    0.483165    0.000000
   101  O3    c     0.200573    0.312718    0.816735    0.000000
   102  O2    c     0.697669    0.922082    0.147103    0.000000
   103  O2    c     0.206336    0.914978    0.355523    0.000000
   104  O2    c     0.693145    0.790393    0.021718    0.000000
   105  O2    c     0.104887    0.309627    0.688289    0.000000
   106  O2    c     0.808091    0.105074    0.855303    0.000000
   107  O3    c     0.318074    0.222298    0.524472    0.000000
   108  O2    c     0.902820    0.702189    0.188940    0.000000
   109  O2    c     0.325341    0.659419    0.252437    0.000000
   110  O2    c     0.362403    0.690661    0.586436    0.000000
   111  O2    c     0.319638    0.675748    0.917054    0.000000
   112  O2    c     0.690991    0.366235    0.750636    0.000000
   113  O2    c     0.646570    0.323320    0.084515    0.000000
   114  O2    c     0.680316    0.335461    0.417894    0.000000
   115  O2    c     0.372234    0.327211    0.970268    0.000000
   116  O2    c     0.669609    0.057296    0.306279    0.000000
   117  O2    c     0.963109    0.635872    0.640068    0.000000
   118  O2    c     0.629160    0.683397    0.472309    0.000000
   119  O2    c     0.341748    0.975923    0.805401    0.000000
   120  O3    c     0.060082    0.384036    0.142521    0.000000
   121  O2    c     0.328111    0.385049    0.365968    0.000000
   122  O2    c     0.040318    0.665118    0.031088    0.000000
   123  O2    c     0.631878    0.964688    0.697969    0.000000
   124  O2    c     0.670340    0.629027    0.864405    0.000000
   125  O2    c     0.962603    0.348718    0.530882    0.000000
   126  O2    c     0.366742    0.054940    0.198752    0.000000
   127  O2    c     0.768956    0.302462    0.011887    0.000000
   128  O2    c     0.692538    0.477880    0.345419    0.000000
   129  O2    c     0.541546    0.239680    0.678358    0.000000
   130  O2    c     0.236698    0.714923    0.514027    0.000000
   131  O3    c     0.299361    0.550260    0.841064    0.000000
   132  O2    c     0.470650    0.786735    0.179960    0.000000
   133  O2    c     0.306776    0.783814    0.325283    0.000000
   134  O2    c     0.462913    0.689842    0.987665    0.000000
   135  O2    c     0.236616    0.541369    0.658121    0.000000
   136  O2    c     0.713922    0.241464    0.823643    0.000000
   137  O2    c     0.540088    0.317113    0.490905    0.000000
   138  O2    c     0.771609    0.471179    0.156318    0.000000
   139  O2    c     0.787938    0.530878    0.032099    0.000000
   140  O2    c     0.462589    0.260206    0.364917    0.000000
   141  O2    c     0.757944    0.223230    0.695893    0.000000
   142  O2    c     0.222845    0.483429    0.529606    0.000000
   143  O2    c     0.531569    0.748100    0.862607    0.000000
   144  O2    c     0.248805    0.796238    0.196586    0.000000
   145  O2    c     0.538010    0.799014    0.306736    0.000000
   146  O2    c     0.249326    0.462709    0.970890    0.000000
   147  O2    c     0.221736    0.758952    0.642075    0.000000
   148  O2    c     0.482455    0.231200    0.806867    0.000000
   149  O2    c     0.753581    0.547430    0.472996    0.000000
   150  O3    c     0.768442    0.244294    0.144760    0.000000
   151  O3    c     0.214873    0.305614    0.901087    0.000000
   152  O2    c     0.679308    0.928710    0.232988    0.000000
   153  O2    c     0.098218    0.782967    0.568322    0.000000
   154  O2    c     0.767069    0.688257    0.399338    0.000000
   155  O2    c     0.335445    0.110580    0.733064    0.000000
   156  O3    c     0.904606    0.218291    0.060471    0.000000
   157  O2    c     0.323275    0.245021    0.439377    0.000000
   158  O2    c     0.914283    0.673286    0.103569    0.000000
   159  O2    c     0.777401    0.097745    0.770220    0.000000
   160  O2    c     0.669328    0.764747    0.935251    0.000000
   161  O2    c     0.101778    0.336235    0.602797    0.000000
   162  O2    c     0.228307    0.917158    0.270930    0.000000
   163  O2    c     0.582223    0.555652    0.986958    0.000000
   164  O2    c     0.440859    0.042009    0.325824    0.000000
   165  O2    c     0.977625    0.420157    0.657862    0.000000
   166  O2    c     0.418857    0.456914    0.493745    0.000000
   167  O2    c     0.569850    0.983935    0.826277    0.000000
   168  O2    c     0.027805    0.584985    0.159465    0.000000
   169  O2    c     0.555909    0.598803    0.344877    0.000000
   170  O2    c     0.025387    0.439161    0.011630    0.000000
   171  O2    c     0.418031    0.981589    0.678880    0.000000
   172  O3    c     0.454469    0.414532    0.838020    0.000000
   173  O2    c     0.976418    0.576838    0.511722    0.000000
   174  O2    c     0.580218    0.041653    0.177702    0.000000
   175  O2    c     0.579311    0.178172    0.252097    0.000000
   176  O2    c     0.839479    0.432024    0.584574    0.000000
   177  O2    c     0.578470    0.415187    0.915588    0.000000
   178  O2    c     0.425448    0.847412    0.752960    0.000000
   179  O2    c     0.163297    0.582336    0.085072    0.000000
   180  O2    c     0.417169    0.595123    0.419397    0.000000
   181  F     c     0.449116    0.917112    0.252118    0.000000
   182  F     c     0.102449    0.561368    0.585285    0.000000
   183  F     c     0.422526    0.519339    0.906790    0.000000
   184  F     c     0.560131    0.108185    0.752147    0.000000
   185  F     c     0.907185    0.417795    0.089963    0.000000
   186  F     c     0.547079    0.463087    0.418908    0.000000
   187  O2    s     0.916899    0.996328    0.002062    0.000000
   188  O2    s     0.001714    0.936792    0.333333    0.000000
   189  O2    s     0.081506    0.082707    0.670817    0.000000
   190  O3    s     0.070218    0.009185    0.497679    0.000000
   191  O2    s     0.006447    0.075918    0.835522    0.000000
   192  O2    s     0.917667    0.925792    0.167728    0.000000
   193  O2    s     0.353520    0.599981    0.335730    0.000000
   194  O2    s     0.418977    0.774575    0.669958    0.000000
   195  O2    s     0.231491    0.644390    0.000745    0.000000
   196  O2    s     0.665702    0.423794    0.834041    0.000000
   197  O2    s     0.576820    0.244276    0.168930    0.000000
   198  O2    s     0.772514    0.367980    0.500815    0.000000
   199  O2    s     0.586258    0.351727    0.000314    0.000000
   200  O2    s     0.773267    0.422148    0.667827    0.000000
   201  O2    s     0.645317    0.246920    0.335243    0.000000
   202  O2    s     0.419446    0.664085    0.502738    0.000000
   203  O2    s     0.244535    0.603612    0.168879    0.000000
   204  O2    s     0.358481    0.787332    0.836457    0.000000
   205  O2    s     0.117686    0.211536    0.974931    0.000000
   206  O2    s     0.785110    0.919370    0.304498    0.000000
   207  O2    s     0.101282    0.885833    0.641443    0.000000
   208  O2    s     0.878910    0.792496    0.471277    0.000000
   209  O2    s     0.233513    0.117368    0.806114    0.000000
   210  O3    s     0.910077    0.126151    0.136911    0.000000
   211  O2    s     0.214802    0.133173    0.367035    0.000000
   212  O2    s     0.902086    0.782028    0.032620    0.000000
   213  O2    s     0.884183    0.102687    0.698320    0.000000
   214  O2    s     0.784087    0.879730    0.863615    0.000000
   215  O3    s     0.097509    0.239291    0.529371    0.000000
   216  O2    s     0.116907    0.912478    0.198581    0.000000
   217  O2    s     0.923741    0.863863    0.250963    0.000000
   218  O3    s     0.135440    0.071181    0.588255    0.000000
   219  O2    s     0.934169    0.063518    0.918374    0.000000
   220  O2    s     0.075176    0.151120    0.752859    0.000000
   221  O2    s     0.851214    0.927937    0.084695    0.000000
   222  O2    s     0.067479    0.934125    0.416714    0.000000
   223  O2    s     0.907387    0.204298    0.979045    0.000000
   224  O2    s     0.792334    0.715617    0.317336    0.000000
   225  O2    s     0.302035    0.100756    0.650872    0.000000
   226  O2    s     0.096596    0.811423    0.485538    0.000000
   227  O3    s     0.200445    0.303272    0.818100    0.000000
   228  O2    s     0.703026    0.928352    0.149979    0.000000
   229  O2    s     0.207260    0.922176    0.352807    0.000000
   230  O2    s     0.698889    0.789455    0.018886    0.000000
   231  O2    s     0.097468    0.303932    0.685784    0.000000
   232  O2    s     0.806432    0.097272    0.852578    0.000000
   233  O3    s     0.313171    0.224368    0.521507    0.000000
   234  O2    s     0.909613    0.707491    0.186218    0.000000
   235  O2    s     0.331437    0.671317    0.252483    0.000000
   236  O2    s     0.350706    0.684841    0.586353    0.000000
   237  O2    s     0.324661    0.670599    0.917378    0.000000
   238  O2    s     0.684963    0.354283    0.750710    0.000000
   239  O2    s     0.656850    0.328831    0.084324    0.000000
   240  O2    s     0.674163    0.341233    0.417956    0.000000
   241  O2    s     0.375661    0.336493    0.968187    0.000000
   242  O2    s     0.659733    0.050662    0.303960    0.000000
   243  O2    s     0.969876    0.632689    0.637775    0.000000
   244  O2    s     0.625659    0.673250    0.470138    0.000000
   245  O2    s     0.352009    0.982514    0.803255    0.000000
   246  O3    s     0.055742    0.391661    0.140226    0.000000
   247  O2    s     0.338184    0.388357    0.368198    0.000000
   248  O2    s     0.034082    0.656123    0.033295    0.000000
   249  O2    s     0.628885    0.971563    0.700231    0.000000
   250  O2    s     0.661190    0.626411    0.866066    0.000000
   251  O2    s     0.969324    0.358938    0.533088    0.000000
   252  O2    s     0.370359    0.048003    0.200931    0.000000
   253  O2    s     0.775099    0.309457    0.014748    0.000000
   254  O2    s     0.685332    0.477482    0.348586    0.000000
   255  O2    s     0.542125    0.232808    0.681534    0.000000
   256  O2    s     0.229722    0.707015    0.517066    0.000000
   257  O3    s     0.308487    0.555193    0.844823    0.000000
   258  O2    s     0.469829    0.793948    0.182986    0.000000
   259  O2    s     0.314055    0.790788    0.322090    0.000000
   260  O2    s     0.462632    0.683159    0.984907    0.000000
   261  O2    s     0.229760    0.542238    0.655038    0.000000
   262  O2    s     0.705707    0.234077    0.820524    0.000000
   263  O2    s     0.540720    0.325088    0.487841    0.000000
   264  O2    s     0.778234    0.470566    0.153857    0.000000
   265  O2    s     0.792149    0.528759    0.034155    0.000000
   266  O2    s     0.465510    0.268343    0.367363    0.000000
   267  O2    s     0.750025    0.218239    0.698497    0.000000
   268  O2    s     0.217808    0.486393    0.532244    0.000000
   269  O2    s     0.530357    0.742341    0.864818    0.000000
   270  O2    s     0.256892    0.801766    0.199292    0.000000
   271  O2    s     0.535046    0.804173    0.304269    0.000000
   272  O2    s     0.256006    0.465791    0.968739    0.000000
   273  O2    s     0.216532    0.751112    0.639423    0.000000
   274  O2    s     0.484731    0.226069    0.804214    0.000000
   275  O2    s     0.745443    0.544595    0.470402    0.000000
   276  O3    s     0.771676    0.254531    0.141983    0.000000
   277  O3    s     0.224568    0.315513    0.903874    0.000000
   278  O2    s     0.669553    0.927772    0.233884    0.000000
   279  O2    s     0.098378    0.773408    0.569101    0.000000
   280  O2    s     0.757700    0.678569    0.400214    0.000000
   281  O2    s     0.344671    0.110244    0.733938    0.000000
   282  O3    s     0.904643    0.229971    0.059944    0.000000
   283  O2    s     0.333007    0.254078    0.438283    0.000000
   284  O2    s     0.913116    0.664738    0.102685    0.000000
   285  O2    s     0.768076    0.098437    0.769387    0.000000
   286  O2    s     0.660998    0.756222    0.934580    0.000000
   287  O2    s     0.101420    0.345781    0.602141    0.000000
   288  O2    s     0.238042    0.917364    0.269952    0.000000
   289  O2    s     0.578341    0.556099    0.984254    0.000000
   290  O2    s     0.440743    0.036992    0.322465    0.000000
   291  O2    s     0.982593    0.425165    0.654682    0.000000
   292  O2    s     0.423287    0.456739    0.490352    0.000000
   293  O2    s     0.570168    0.989046    0.822816    0.000000
   294  O2    s     0.023484    0.582088    0.156484    0.000000
   295  O2    s     0.556537    0.594209    0.348252    0.000000
   296  O2    s     0.021717    0.439345    0.014536    0.000000
   297  O2    s     0.423003    0.986529    0.682124    0.000000
   298  O3    s     0.458354    0.420782    0.842115    0.000000
   299  O2    s     0.981452    0.576834    0.515092    0.000000
   300  O2    s     0.576458    0.037136    0.181135    0.000000
   301  O2    s     0.573663    0.167082    0.252125    0.000000
   302  O2    s     0.850711    0.437309    0.584614    0.000000
   303  O2    s     0.574043    0.420337    0.915999    0.000000
   304  O2    s     0.430899    0.858572    0.752829    0.000000
   305  O2    s     0.153798    0.577573    0.084731    0.000000
   306  O2    s     0.422813    0.589746    0.419405    0.000000
   307  F     s     0.448582    0.916636    0.252097    0.000000
   308  F     s     0.102799    0.561554    0.585245    0.000000
   309  F     s     0.415593    0.512704    0.903826    0.000000
   310  F     s     0.560538    0.108599    0.752233    0.000000
   311  F     s     0.907167    0.409424    0.091393    0.000000
   312  F     s     0.547124    0.462762    0.418913    0.000000
--------------------------------------------------------------------------------

  Final Cartesian lattice vectors (Angstroms) :

       11.962547    0.001983   -0.014781
       -5.951689   10.385708    0.005431
       -0.299468    0.007319   29.439760


  Final cell parameters and derivatives :

--------------------------------------------------------------------------------
       a           11.962556 Angstrom     dE/de1(xx)    -0.001501 eV/strain
       b           11.970195 Angstrom     dE/de2(yy)    -0.001435 eV/strain
       c           29.441284 Angstrom     dE/de3(zz)    -0.001128 eV/strain
       alpha       89.671875 Degrees      dE/de4(yz)     0.000935 eV/strain
       beta        90.653600 Degrees      dE/de5(xz)     0.000288 eV/strain
       gamma      119.806037 Degrees      dE/de6(xy)    -0.000413 eV/strain
--------------------------------------------------------------------------------

  Primitive cell volume =          3657.883419 Angs**3

  Density of cell =      1.749124 g/cm**3

  Non-primitive cell volume =          3657.883419 Angs**3


  Final internal derivatives :

--------------------------------------------------------------------------------
   No.  Atomic          a             b             c           Radius
        Label          (eV)          (eV)          (eV)        (eV/Angs)
--------------------------------------------------------------------------------
      1 Si    c       0.000000      0.000000      0.000000      0.000000
      2 Si    c       0.000060     -0.000091      0.000532      0.000000
      3 Si    c       0.000318     -0.000157      0.000651      0.000000
      4 Si    c      -0.000000      0.000062      0.000123      0.000000
      5 Si    c      -0.001327      0.002530     -0.001033      0.000000
      6 Si    c       0.000468     -0.000924      0.003175      0.000000
      7 Si    c      -0.000143     -0.000211     -0.002337      0.000000
      8 Si    c      -0.000426      0.000560     -0.000838      0.000000
      9 Si    c       0.000175      0.000076     -0.000205      0.000000
     10 Si    c      -0.000219      0.001876      0.000624      0.000000
     11 Si    c       0.000368     -0.000345     -0.000153      0.000000
     12 Si    c      -0.001270     -0.000250     -0.002299      0.000000
     13 Si    c       0.000923     -0.000797      0.000901      0.000000
     14 Si    c      -0.000335      0.000206     -0.000862      0.000000
     15 Si    c      -0.000173     -0.000105      0.000229      0.000000
     16 Si    c      -0.000176      0.000215     -0.000166      0.000000
     17 Si    c      -0.000547     -0.000168     -0.001263      0.000000
     18 Si    c       0.000954      0.000355      0.000959      0.000000
     19 Si    c      -0.000047      0.000085      0.000534      0.000000
     20 Si    c      -0.000192     -0.000218     -0.000055      0.000000
     21 Si    c       0.000072     -0.000393      0.000048      0.000000
     22 Si    c       0.001797     -0.000776     -0.000990      0.000000
     23 Si    c      -0.000058     -0.000091     -0.000045      0.000000
     24 Si    c      -0.000050      0.001363      0.001318      0.000000
     25 Ge    c      -0.001337     -0.001518     -0.002340      0.000000
     26 Si    c       0.000982     -0.000816      0.000235      0.000000
     27 Si    c       0.000043      0.000003     -0.001090      0.000000
     28 Si    c      -0.000130      0.000096      0.001249      0.000000
     29 Si    c      -0.000536      0.000362     -0.000864      0.000000
     30 Si    c       0.000027      0.000443      0.005892      0.000000
     31 Si    c      -0.000145     -0.000005     -0.000188      0.000000
     32 Si    c      -0.000213      0.000055     -0.002363      0.000000
     33 Si    c       0.001047     -0.000602      0.000376      0.000000
     34 Si    c       0.000484      0.000180     -0.001955      0.000000
     35 Si    c      -0.000110      0.000039     -0.000408      0.000000
     36 Si    c      -0.000419      0.000335     -0.000820      0.000000
     37 Si    c      -0.000212      0.000440     -0.004032      0.000000
     38 Si    c       0.000264     -0.000226     -0.000376      0.000000
     39 Si    c      -0.000010      0.000074      0.000203      0.000000
     40 Si    c      -0.000079      0.000326     -0.000387      0.000000
     41 Si    c      -0.000473     -0.000299     -0.000642      0.000000
     42 Ge    c       0.001010     -0.001743     -0.003245      0.000000
     43 Si    c       0.000185      0.000105      0.000446      0.000000
     44 Si    c      -0.000159     -0.000828      0.000808      0.000000
     45 Si    c       0.000373      0.000153      0.000630      0.000000
     46 Si    c       0.000531     -0.000264      0.001809      0.000000
     47 Si    c      -0.000029     -0.000139     -0.000217      0.000000
     48 Si    c      -0.001018      0.000584      0.001505      0.000000
     49 Si    c       0.000091     -0.000803     -0.000360      0.000000
     50 Si    c       0.000568     -0.000293     -0.004613      0.000000
     51 Si    c       0.003228     -0.002113      0.007857      0.000000
     52 Si    c       0.000949     -0.005350     -0.001352      0.000000
     53 Si    c      -0.000081     -0.000069      0.002826      0.000000
     54 Si    c      -0.000741      0.000801     -0.001354      0.000000
     55 Si    c       0.000866     -0.000085     -0.005073      0.000000
     56 Si    c       0.000077      0.000280      0.000950      0.000000
     57 Si    c      -0.002160      0.001960      0.002146      0.000000
     58 Si    c      -0.000966      0.000613      0.001158      0.000000
     59 Ge    c       0.001078      0.003368     -0.002676      0.000000
     60 Si    c      -0.000294      0.000533      0.002353      0.000000
     61 O2    c      -0.000350      0.000480     -0.000825      0.000000
     62 O2    c      -0.000307      0.000264     -0.000065      0.000000
     63 O2    c       0.000444     -0.001899     -0.000127      0.000000
     64 O3    c      -0.003743      0.004980      0.002698      0.000000
     65 O2    c       0.001014      0.001208     -0.002611      0.000000
     66 O2    c       0.000543     -0.000684      0.000604      0.000000
     67 O2    c       0.000017     -0.000010      0.000097      0.000000
     68 O2    c      -0.000045     -0.000026     -0.000066      0.000000
     69 O2    c      -0.000066     -0.000073     -0.000057      0.000000
     70 O2    c      -0.001441      0.000176      0.000121      0.000000
     71 O2    c       0.001398     -0.000430     -0.001376      0.000000
     72 O2    c      -0.000379      0.000277     -0.000573      0.000000
     73 O2    c      -0.000578      0.000915     -0.001130      0.000000
     74 O2    c       0.000022     -0.000020      0.000040      0.000000
     75 O2    c      -0.000115      0.000102      0.000338      0.000000
     76 O2    c       0.000199     -0.000210     -0.000348      0.000000
     77 O2    c      -0.001039      0.000216     -0.001414      0.000000
     78 O2    c       0.001824     -0.002498      0.002636      0.000000
     79 O2    c       0.000231      0.000226     -0.000891      0.000000
     80 O2    c      -0.000068     -0.000047      0.000073      0.000000
     81 O2    c      -0.000078     -0.001004      0.000721      0.000000
     82 O2    c      -0.000512      0.000311      0.000666      0.000000
     83 O2    c      -0.000292     -0.000080     -0.000521      0.000000
     84 O3    c      -0.000164     -0.000769     -0.001546      0.000000
     85 O2    c       0.000031      0.000525     -0.000317      0.000000
     86 O2    c      -0.000088      0.000074      0.000713      0.000000
     87 O2    c       0.000041     -0.000008      0.000203      0.000000
     88 O2    c       0.000471      0.000774      0.000895      0.000000
     89 O3    c      -0.000938      0.000749     -0.000822      0.000000
     90 O2    c       0.000231     -0.000217      0.000662      0.000000
     91 O2    c      -0.000516      0.000606      0.003400      0.000000
     92 O3    c      -0.003027      0.000421     -0.004454      0.000000
     93 O2    c      -0.000142      0.000178     -0.001349      0.000000
     94 O2    c       0.000187      0.000203      0.000141      0.000000
     95 O2    c      -0.000038      0.000107      0.000648      0.000000
     96 O2    c      -0.000659      0.000528     -0.000715      0.000000
     97 O2    c       0.000024     -0.000039     -0.000032      0.000000
     98 O2    c      -0.000039     -0.000450      0.000226      0.000000
     99 O2    c       0.000039      0.000111     -0.000588      0.000000
    100 O2    c       0.000402     -0.000129     -0.000274      0.000000
    101 O3    c      -0.000359     -0.000385     -0.001609      0.000000
    102 O2    c       0.001056     -0.000260      0.000068      0.000000
    103 O2    c       0.000219     -0.000119      0.000122      0.000000
    104 O2    c      -0.000040     -0.000059     -0.000440      0.000000
    105 O2    c       0.000229      0.000550     -0.000025      0.000000
    106 O2    c       0.001071     -0.001345     -0.000365      0.000000
    107 O3    c       0.000274     -0.000168      0.000978      0.000000
    108 O2    c      -0.000227      0.000362      0.000357      0.000000
    109 O2    c      -0.000155      0.000909     -0.002086      0.000000
    110 O2    c      -0.000050     -0.000006     -0.000066      0.000000
    111 O2    c       0.000641     -0.000381     -0.002343      0.000000
    112 O2    c      -0.000108     -0.000139      0.001145      0.000000
    113 O2    c       0.000965      0.000050      0.003481      0.000000
    114 O2    c      -0.000194      0.000224      0.000559      0.000000
    115 O2    c      -0.000321      0.000112     -0.000291      0.000000
    116 O2    c      -0.000013      0.000030      0.000173      0.000000
    117 O2    c      -0.000054      0.000036      0.000124      0.000000
    118 O2    c       0.000010      0.000035      0.000008      0.000000
    119 O2    c       0.000530     -0.000283     -0.000547      0.000000
    120 O3    c       0.000137     -0.000189     -0.000765      0.000000
    121 O2    c       0.000052     -0.000103      0.000126      0.000000
    122 O2    c      -0.000299      0.000047     -0.000052      0.000000
    123 O2    c      -0.000191     -0.000087     -0.000263      0.000000
    124 O2    c       0.000068     -0.000385      0.000079      0.000000
    125 O2    c       0.000009     -0.000007     -0.000006      0.000000
    126 O2    c      -0.000062      0.000016      0.000217      0.000000
    127 O2    c       0.000728     -0.000328      0.001217      0.000000
    128 O2    c      -0.000102      0.000188      0.000031      0.000000
    129 O2    c      -0.000095      0.000054     -0.000217      0.000000
    130 O2    c       0.000025     -0.000012      0.000011      0.000000
    131 O3    c      -0.000305      0.000030      0.000859      0.000000
    132 O2    c       0.000177      0.000250      0.000114      0.000000
    133 O2    c      -0.000064      0.000081      0.000053      0.000000
    134 O2    c      -0.000057     -0.000106     -0.000012      0.000000
    135 O2    c       0.000042     -0.000047      0.000113      0.000000
    136 O2    c       0.000347     -0.000366     -0.000074      0.000000
    137 O2    c      -0.000015     -0.000038      0.000151      0.000000
    138 O2    c      -0.000000      0.000201     -0.000240      0.000000
    139 O2    c       0.001148      0.000791      0.001137      0.000000
    140 O2    c       0.000125     -0.000011      0.000033      0.000000
    141 O2    c      -0.000071     -0.000078      0.000394      0.000000
    142 O2    c      -0.000076      0.000155      0.000149      0.000000
    143 O2    c      -0.000191      0.000070      0.000050      0.000000
    144 O2    c       0.000015     -0.000051      0.000034      0.000000
    145 O2    c       0.000036      0.000043      0.000020      0.000000
    146 O2    c       0.000410     -0.000618     -0.000413      0.000000
    147 O2    c       0.000041     -0.000002     -0.000034      0.000000
    148 O2    c      -0.000113     -0.000045      0.000137      0.000000
    149 O2    c      -0.000047      0.000167     -0.000055      0.000000
    150 O3    c      -0.000803      0.000939     -0.000853      0.000000
    151 O3    c       0.000432      0.002899      0.000898      0.000000
    152 O2    c      -0.000397      0.000197     -0.001008      0.000000
    153 O2    c       0.000208     -0.000385      0.000592      0.000000
    154 O2    c      -0.000282     -0.000060     -0.000174      0.000000
    155 O2    c       0.000132     -0.000007      0.000896      0.000000
    156 O3    c      -0.001457      0.002932      0.002313      0.000000
    157 O2    c       0.000493      0.000169     -0.000043      0.000000
    158 O2    c       0.000159     -0.000717     -0.000989      0.000000
    159 O2    c      -0.000079      0.000088     -0.000608      0.000000
    160 O2    c      -0.000238     -0.000580     -0.000205      0.000000
    161 O2    c      -0.000230      0.000416      0.000293      0.000000
    162 O2    c       0.000453     -0.000097      0.000108      0.000000
    163 O2    c      -0.000148      0.000091     -0.000098      0.000000
    164 O2    c       0.000125     -0.000005     -0.000198      0.000000
    165 O2    c      -0.000009     -0.000001     -0.000107      0.000000
    166 O2    c       0.000046     -0.000151     -0.000066      0.000000
    167 O2    c      -0.000127      0.000097     -0.001072      0.000000
    168 O2    c       0.000253     -0.000166     -0.000246      0.000000
    169 O2    c       0.000047     -0.000007      0.000148      0.000000
    170 O2    c      -0.000284     -0.000256      0.000487      0.000000
    171 O2    c      -0.000079      0.000010     -0.000133      0.000000
    172 O3    c      -0.000483      0.000558      0.001444      0.000000
    173 O2    c      -0.000005     -0.000025      0.000035      0.000000
    174 O2    c      -0.000073     -0.000057      0.000021      0.000000
    175 O2    c      -0.000189     -0.000475     -0.001688      0.000000
    176 O2    c       0.000031     -0.000018      0.000053      0.000000
    177 O2    c      -0.000204      0.000732     -0.001983      0.000000
    178 O2    c      -0.000213      0.000515      0.002226      0.000000
    179 O2    c      -0.000238     -0.000086      0.001400      0.000000
    180 O2    c       0.000214     -0.000128      0.000388      0.000000
    181 F     c       0.000039      0.000095      0.001383      0.000000
    182 F     c      -0.000014      0.000024     -0.000144      0.000000
    183 F     c      -0.000029     -0.000029      0.002587      0.000000
    184 F     c       0.000249      0.000415     -0.001222      0.000000
    185 F     c      -0.000138     -0.000007     -0.001953      0.000000
    186 F     c      -0.000022      0.000017     -0.000074      0.000000
    187 O2    s       0.000348     -0.000259      0.000600      0.000000
    188 O2    s      -0.000128     -0.000448     -0.001960      0.000000
    189 O2    s      -0.000460      0.000598      0.003228      0.000000
    190 O3    s       0.001026     -0.000966     -0.001243      0.000000
    191 O2    s      -0.001282      0.000472      0.000604      0.000000
    192 O2    s      -0.000451      0.000441      0.000546      0.000000
    193 O2    s       0.000107      0.000054     -0.000012      0.000000
    194 O2    s       0.000016      0.000042      0.000105      0.000000
    195 O2    s       0.000163      0.000019     -0.000005      0.000000
    196 O2    s       0.000273     -0.000064      0.001841      0.000000
    197 O2    s      -0.000250     -0.000064     -0.000411      0.000000
    198 O2    s       0.000090     -0.000097     -0.000002      0.000000
    199 O2    s       0.000094     -0.000414      0.000026      0.000000
    200 O2    s       0.000070      0.000049     -0.000150      0.000000
    201 O2    s       0.000001     -0.000000     -0.000167      0.000000
    202 O2    s      -0.000076      0.000120      0.000024      0.000000
    203 O2    s       0.000281     -0.000004     -0.000198      0.000000
    204 O2    s      -0.000838      0.000718     -0.000593      0.000000
    205 O2    s      -0.000291      0.000160      0.000798      0.000000
    206 O2    s      -0.000015     -0.000194     -0.000602      0.000000
    207 O2    s       0.000886     -0.001599      0.000366      0.000000
    208 O2    s      -0.000543     -0.001402      0.000056      0.000000
    209 O2    s       0.000280     -0.000351      0.001083      0.000000
    210 O3    s      -0.000252     -0.000013      0.002386      0.000000
    211 O2    s       0.000100      0.000670     -0.000110      0.000000
    212 O2    s       0.000086     -0.000478     -0.001349      0.000000
    213 O2    s      -0.000830      0.000441     -0.000278      0.000000
    214 O2    s      -0.000353      0.000282     -0.001298      0.000000
    215 O3    s      -0.000300      0.001207     -0.000276      0.000000
    216 O2    s       0.000038     -0.000086     -0.000220      0.000000
    217 O2    s       0.000052      0.000357     -0.001761      0.000000
    218 O3    s       0.001284     -0.000381      0.000628      0.000000
    219 O2    s      -0.000323      0.000036      0.000258      0.000000
    220 O2    s      -0.000224     -0.000825      0.003576      0.000000
    221 O2    s      -0.000431      0.000492     -0.000534      0.000000
    222 O2    s       0.000420     -0.000172     -0.003360      0.000000
    223 O2    s      -0.000102      0.000111      0.000016      0.000000
    224 O2    s      -0.000117      0.000157     -0.000096      0.000000
    225 O2    s       0.001265     -0.000457      0.002484      0.000000
    226 O2    s       0.000835     -0.001729      0.002152      0.000000
    227 O3    s       0.000696     -0.000095      0.002559      0.000000
    228 O2    s      -0.000113      0.000087      0.000217      0.000000
    229 O2    s       0.000373     -0.000549     -0.001863      0.000000
    230 O2    s      -0.000023     -0.000264     -0.000318      0.000000
    231 O2    s      -0.000860      0.001273     -0.002068      0.000000
    232 O2    s       0.000057     -0.000411      0.000815      0.000000
    233 O3    s       0.000695      0.000474     -0.002500      0.000000
    234 O2    s       0.000233     -0.000239     -0.000396      0.000000
    235 O2    s       0.000107     -0.000633      0.001346      0.000000
    236 O2    s       0.000107      0.000028      0.000415      0.000000
    237 O2    s       0.000133      0.000046      0.001189      0.000000
    238 O2    s      -0.000140      0.000179      0.000177      0.000000
    239 O2    s      -0.000210     -0.000354      0.000883      0.000000
    240 O2    s       0.000042      0.000002     -0.000259      0.000000
    241 O2    s       0.000316     -0.000245      0.000517      0.000000
    242 O2    s      -0.000042     -0.000027     -0.000592      0.000000
    243 O2    s       0.000210     -0.000153     -0.000344      0.000000
    244 O2    s      -0.000058     -0.000214     -0.000133      0.000000
    245 O2    s      -0.000912      0.000376      0.001834      0.000000
    246 O3    s      -0.000773      0.001000      0.000286      0.000000
    247 O2    s       0.000002     -0.000009     -0.000036      0.000000
    248 O2    s      -0.000140      0.000315      0.000829      0.000000
    249 O2    s      -0.000281      0.000257      0.000653      0.000000
    250 O2    s      -0.000165     -0.000208     -0.000185      0.000000
    251 O2    s       0.000050      0.000031     -0.000023      0.000000
    252 O2    s       0.000364     -0.000374     -0.000484      0.000000
    253 O2    s       0.000041     -0.000417     -0.002727      0.000000
    254 O2    s      -0.000021     -0.000027      0.000009      0.000000
    255 O2    s       0.000061     -0.000184      0.000426      0.000000
    256 O2    s      -0.000114      0.000025      0.000142      0.000000
    257 O3    s       0.000802      0.000549     -0.001044      0.000000
    258 O2    s       0.000229      0.000025     -0.001005      0.000000
    259 O2    s       0.000033      0.000097     -0.000332      0.000000
    260 O2    s       0.000184     -0.000008     -0.000443      0.000000
    261 O2    s      -0.000140      0.000133     -0.000259      0.000000
    262 O2    s      -0.000658      0.000216      0.000438      0.000000
    263 O2    s       0.000044      0.000210     -0.000446      0.000000
    264 O2    s       0.000356     -0.000943      0.000279      0.000000
    265 O2    s      -0.001018      0.000662      0.000610      0.000000
    266 O2    s       0.000023      0.000039     -0.000143      0.000000
    267 O2    s       0.000173      0.000077     -0.001003      0.000000
    268 O2    s       0.000130     -0.000122     -0.000117      0.000000
    269 O2    s       0.000074     -0.000290      0.000276      0.000000
    270 O2    s      -0.000169      0.000496     -0.000241      0.000000
    271 O2    s      -0.000087      0.000149     -0.000275      0.000000
    272 O2    s      -0.000233      0.000599      0.000582      0.000000
    273 O2    s       0.000008     -0.000127      0.000137      0.000000
    274 O2    s       0.000368     -0.000199     -0.000721      0.000000
    275 O2    s      -0.000112     -0.000067     -0.000186      0.000000
    276 O3    s      -0.000122      0.000192      0.000122      0.000000
    277 O3    s       0.000032     -0.003719      0.000754      0.000000
    278 O2    s      -0.000107     -0.000025     -0.000018      0.000000
    279 O2    s      -0.000541      0.001004     -0.000767      0.000000
    280 O2    s       0.000359     -0.000159     -0.000376      0.000000
    281 O2    s      -0.000185      0.000137     -0.000293      0.000000
    282 O3    s       0.001168     -0.002718     -0.004173      0.000000
    283 O2    s      -0.000796     -0.000210      0.000043      0.000000
    284 O2    s       0.000162      0.000429     -0.000720      0.000000
    285 O2    s       0.000057     -0.000157      0.000739      0.000000
    286 O2    s      -0.000236      0.000422      0.001576      0.000000
    287 O2    s       0.000528     -0.000783      0.000345      0.000000
    288 O2    s      -0.000114     -0.000092     -0.000376      0.000000
    289 O2    s       0.000066      0.000151      0.000285      0.000000
    290 O2    s       0.000006     -0.000088     -0.000137      0.000000
    291 O2    s      -0.000008      0.000156      0.000148      0.000000
    292 O2    s       0.000084     -0.000005     -0.000187      0.000000
    293 O2    s       0.000401      0.000002      0.002219      0.000000
    294 O2    s       0.000105     -0.000188     -0.000058      0.000000
    295 O2    s       0.000002     -0.000073     -0.000170      0.000000
    296 O2    s       0.000142      0.000078     -0.000777      0.000000
    297 O2    s       0.000389     -0.000007      0.000982      0.000000
    298 O3    s       0.000615     -0.000567     -0.000033      0.000000
    299 O2    s       0.000056      0.000072      0.000090      0.000000
    300 O2    s      -0.000066     -0.000073      0.000751      0.000000
    301 O2    s       0.000095      0.000230      0.000431      0.000000
    302 O2    s      -0.000044      0.000126      0.000242      0.000000
    303 O2    s       0.000061     -0.000487     -0.000037      0.000000
    304 O2    s       0.000405     -0.000565     -0.002419      0.000000
    305 O2    s       0.000104      0.000002      0.000493      0.000000
    306 O2    s      -0.000109      0.000011     -0.000181      0.000000
    307 F     s      -0.000079     -0.000027     -0.002415      0.000000
    308 F     s      -0.000020      0.000015      0.000288      0.000000
    309 F     s       0.000982      0.000774      0.000258      0.000000
    310 F     s      -0.000574     -0.000652      0.001785      0.000000
    311 F     s      -0.000093      0.000728      0.002969      0.000000
    312 F     s       0.000022     -0.000006      0.000154      0.000000
--------------------------------------------------------------------------------
  Maximum abs         0.003743      0.005350      0.007857      0.000000
--------------------------------------------------------------------------------


  Time to end of optimisation =       5.8366 seconds


  Peak dynamic memory used =      19.13 MB 


  Timing analysis for GULP :

--------------------------------------------------------------------------------
  Task / Subroutine                                          Time (Seconds)
--------------------------------------------------------------------------------
  Calculation of reciprocal space energy and derivatives          0.2547
  Calculation of real space energy and derivatives                4.8098
  Calculation of three-body energy and derivatives                0.5446
  Calculation of matrix inversion                                 0.1920
--------------------------------------------------------------------------------
  Total CPU time                                                  5.8366
--------------------------------------------------------------------------------


  Dump file written as out.res                                                 
  CIF file written as out.cif                                                 


  Job Finished at 16:50.25 26th November   2016                               

