********************************************************************************
*                       GENERAL UTILITY LATTICE PROGRAM                        *
*                                 Julian Gale                                  *
*                      Nanochemistry Research Institute                        *
*                           Department of Chemistry                            *
*                    Curtin University, Western Australia                      *
********************************************************************************
* Version = 4.2.0 * Last modified =  20th January 2014                         *
********************************************************************************
*  optimise     - perform optimisation run                                     *
*  conp         - constant pressure calculation                                *
*  qok          - running with non charge neutral cell is OK                   *
********************************************************************************

  Job Started  at 02:04.02 26th November   2016                               

  Number of CPUs =     1


  Total number of configurations input =   1

********************************************************************************
*  Input for Configuration =   1                                               *
********************************************************************************

  Formula = Si57Ge3O120F6                                               

  Number of irreducible atoms/shells =     312


  Total number atoms/shells =     312

  Dimensionality = 3               :  Bulk   


  Charge on solid   =  -6.000000 =>neutralising background added


  Cartesian lattice vectors (Angstroms) :

       12.025019    0.000000    0.000000
       -6.005467   10.293162    0.000000
        0.165866   -0.023501   29.552844

  Cell parameters (Angstroms/Degrees):

  a =      12.0250    alpha =  90.2014
  b =      11.9170    beta  =  89.6784
  c =      29.5533    gamma = 120.2611

  Initial cell volume =        3657.917055 Angs**3

  Temperature of configuration =  0.000     K 

  Pressure of configuration =         0.000 GPa 

  Fractional coordinates of asymmetric unit :

--------------------------------------------------------------------------------
   No.  Atomic       x           y          z         Charge      Occupancy
        Label      (Frac)      (Frac)     (Frac)        (e)         (Frac)  
--------------------------------------------------------------------------------
      1 Si    c    0.699600    0.375700    0.033890     4.00000    1.000000    
      2 Si    c    0.617026 *  0.322216 *  0.367430 *   4.00000    1.000000    
      3 Si    c    0.675736 *  0.295584 *  0.700216 *   4.00000    1.000000    
      4 Si    c    0.304582 *  0.625424 *  0.530138 *   4.00000    1.000000    
      5 Si    c    0.374134 *  0.674625 *  0.866182 *   4.00000    1.000000    
      6 Si    c    0.324339 *  0.703082 *  0.198738 *   4.00000    1.000000    
      7 Si    c    0.372696 *  0.701150 *  0.299214 *   4.00000    1.000000    
      8 Si    c    0.317028 *  0.625925 *  0.968614 *   4.00000    1.000000    
      9 Si    c    0.300962 *  0.674149 *  0.632955 *   4.00000    1.000000    
     10 Si    c    0.620228 *  0.295429 *  0.800316 *   4.00000    1.000000    
     11 Si    c    0.670316 *  0.384085 *  0.466913 *   4.00000    1.000000    
     12 Si    c    0.702848 *  0.324005 *  0.133874 *   4.00000    1.000000    
     13 Si    c    0.526412 *  0.409224 *  0.968919 *   4.00000    1.000000    
     14 Si    c    0.577212 *  0.114001 *  0.300878 *   4.00000    1.000000    
     15 Si    c    0.886058 *  0.465083 *  0.635049 *   4.00000    1.000000    
     16 Si    c    0.475373 *  0.594998 *  0.464929 *   4.00000    1.000000    
     17 Si    c    0.418233 *  0.886174 *  0.800104 *   4.00000    1.000000    
     18 Si    c    0.113087 *  0.534988 *  0.133909 *   4.00000    1.000000    
     19 Si    c    0.416305 *  0.534464 *  0.364258 *   4.00000    1.000000    
     20 Si    c    0.111109 *  0.590523 *  0.032822 *   4.00000    1.000000    
     21 Si    c    0.469561 *  0.886305 *  0.698779 *   4.00000    1.000000    
     22 Si    c    0.579332 *  0.464948 *  0.865822 *   4.00000    1.000000    
     23 Si    c    0.876914 *  0.409839 *  0.531494 *   4.00000    1.000000    
     24 Si    c    0.531413 *  0.114315 *  0.199460 *   4.00000    1.000000    
     25 Si    c    0.295476 *  0.391884 *  0.848764 *   4.00000    1.000000    
     26 Si    c    0.603924 *  0.904236 *  0.185872 *   4.00000    1.000000    
     27 Si    c    0.094278 *  0.696197 *  0.517176 *   4.00000    1.000000    
     28 Si    c    0.694141 *  0.599757 *  0.349690 *   4.00000    1.000000    
     29 Si    c    0.397141 *  0.095631 *  0.685064 *   4.00000    1.000000    
     30 Si    c    0.905536 *  0.305574 *  0.017948 *   4.00000    1.000000    
     31 Si    c    0.393995 *  0.310844 *  0.482603 *   4.00000    1.000000    
     32 Si    c    0.903016 *  0.603772 *  0.148625 *   4.00000    1.000000    
     33 Si    c    0.699276 *  0.095208 *  0.814445 *   4.00000    1.000000    
     34 Si    c    0.597229 *  0.696205 *  0.983116 *   4.00000    1.000000    
     35 Si    c    0.097231 *  0.391647 *  0.651126 *   4.00000    1.000000    
     36 Si    c    0.295817 *  0.902912 *  0.313223 *   4.00000    1.000000    
     37 Ge    c    0.263273 *  0.356225 *  0.948406 *   4.00000    1.000000    
     38 Si    c    0.654088 *  0.911671 *  0.286704 *   4.00000    1.000000    
     39 Si    c    0.088900 *  0.747862 *  0.619036 *   4.00000    1.000000    
     40 Si    c    0.751417 *  0.667931 *  0.449058 *   4.00000    1.000000    
     41 Si    c    0.338926 *  0.086752 *  0.785705 *   4.00000    1.000000    
     42 Si    c    0.912055 *  0.254288 *  0.118301 *   4.00000    1.000000    
     43 Si    c    0.338898 *  0.255406 *  0.382237 *   4.00000    1.000000    
     44 Si    c    0.906051 *  0.661050 *  0.048622 *   4.00000    1.000000    
     45 Si    c    0.749020 *  0.086986 *  0.713840 *   4.00000    1.000000    
     46 Si    c    0.659199 *  0.747995 *  0.881445 *   4.00000    1.000000    
     47 Ge    c    0.087850 *  0.357180 *  0.551348 *   4.00000    1.000000    
     48 Si    c    0.251430 *  0.912218 *  0.212531 *   4.00000    1.000000    
     49 Si    c    0.977370 *  0.127706 *  0.966731 *   4.00000    1.000000    
     50 Ge    c    0.876660 *  0.852453 *  0.300081 *   4.00000    1.000000    
     51 Si    c    0.152486 *  0.030969 *  0.633518 *   4.00000    1.000000    
     52 Si    c    0.031810 *  0.883289 *  0.467878 *   4.00000    1.000000    
     53 Si    c    0.119358 *  0.144617 *  0.799732 *   4.00000    1.000000    
     54 Si    c    0.850362 *  0.973641 *  0.133196 *   4.00000    1.000000    
     55 Si    c    0.122478 *  0.974648 *  0.366703 *   4.00000    1.000000    
     56 Si    c    0.846694 *  0.881185 *  0.031893 *   4.00000    1.000000    
     57 Si    c    0.026590 *  0.145043 *  0.700388 *   4.00000    1.000000    
     58 Si    c    0.879029 *  0.030778 *  0.866441 *   4.00000    1.000000    
     59 Si    c    0.145570 *  0.128820 *  0.533837 *   4.00000    1.000000    
     60 Si    c    0.975391 *  0.855400 *  0.197377 *   4.00000    1.000000    
     61 O2    c    0.925305 *  0.000386 *  0.998479 *   0.87073    1.000000    
     62 O3    c    0.999900 *  0.938500 *  0.337189 *   1.33043    1.000000    
     63 O2    c    0.071155 *  0.070113 *  0.666407 *   0.87073    1.000000    
     64 O2    c    0.072982 *  0.002035 *  0.501613 *   0.87073    1.000000    
     65 O2    c    0.000563 *  0.070001 *  0.834030 *   0.87073    1.000000    
     66 O2    c    0.934075 *  0.932321 *  0.163213 *   0.87073    1.000000    
     67 O2    c    0.335756 *  0.578029 *  0.332041 *   0.87073    1.000000    
     68 O2    c    0.421859 *  0.761511 *  0.665648 *   0.87073    1.000000    
     69 O2    c    0.237464 *  0.673214 *  0.000633 *   0.87073    1.000000    
     70 O2    c    0.657620 *  0.418448 *  0.833403 *   0.87073    1.000000    
     71 O2    c    0.580691 *  0.239612 *  0.166888 *   0.87073    1.000000    
     72 O2    c    0.748169 *  0.343359 *  0.501333 *   0.87073    1.000000    
     73 O2    c    0.580754 *  0.336431 *  0.000104 *   0.87073    1.000000    
     74 O2    c    0.762184 *  0.419569 *  0.667780 *   0.87073    1.000000    
     75 O2    c    0.653926 *  0.236713 *  0.334584 *   0.87073    1.000000    
     76 O2    c    0.430207 *  0.676190 *  0.497327 *   0.87073    1.000000    
     77 O2    c    0.238960 *  0.581024 *  0.165432 *   0.87073    1.000000    
     78 O2    c    0.341002 *  0.761077 *  0.832977 *   0.87073    1.000000    
     79 O3    c    0.126334 *  0.213027 *  0.970725 *   1.33043    1.000000    
     80 O3    c    0.777520 *  0.916134 *  0.308334 *   1.33043    1.000000    
     81 O2    c    0.091941 *  0.875091 *  0.639286 *   0.87073    1.000000    
     82 O2    c    0.877042 *  0.793283 *  0.469960 *   0.87073    1.000000    
     83 O2    c    0.211521 *  0.082908 *  0.806034 *   0.87073    1.000000    
     84 O2    c    0.913126 *  0.128613 *  0.138748 *   0.87073    1.000000    
     85 O2    c    0.215006 *  0.129365 *  0.361441 *   0.87073    1.000000    
     86 O2    c    0.906065 *  0.786710 *  0.027689 *   0.87073    1.000000    
     87 O2    c    0.873007 *  0.083825 *  0.693589 *   0.87073    1.000000    
     88 O2    c    0.784004 *  0.874589 *  0.861263 *   0.87073    1.000000    
     89 O3    c    0.078952 *  0.211384 *  0.529928 *   1.33043    1.000000    
     90 O2    c    0.128803 *  0.914299 *  0.190966 *   0.87073    1.000000    
     91 O3    c    0.942535 *  0.880976 *  0.246961 *   1.33043    1.000000    
     92 O2    c    0.140897 *  0.069107 *  0.583294 *   0.87073    1.000000    
     93 O2    c    0.927039 *  0.069913 *  0.916735 *   0.87073    1.000000    
     94 O2    c    0.059266 *  0.118771 *  0.750147 *   0.87073    1.000000    
     95 O2    c    0.857487 *  0.935312 *  0.081985 *   0.87073    1.000000    
     96 O2    c    0.079845 *  0.936805 *  0.418193 *   0.87073    1.000000    
     97 O2    c    0.907429 *  0.210728 *  0.979112 *   0.87073    1.000000    
     98 O3    c    0.789209 *  0.688176 *  0.309743 *   1.33043    1.000000    
     99 O2    c    0.303027 *  0.099704 *  0.646866 *   0.87073    1.000000    
    100 O2    c    0.095598 *  0.795634 *  0.480168 *   0.87073    1.000000    
    101 O2    c    0.206470 *  0.299920 *  0.807180 *   0.87073    1.000000    
    102 O2    c    0.700619 *  0.902016 *  0.147805 *   0.87073    1.000000    
    103 O2    c    0.196915 *  0.899534 *  0.351380 *   0.87073    1.000000    
    104 O2    c    0.694261 *  0.796545 *  0.020329 *   0.87073    1.000000    
    105 O2    c    0.095756 *  0.300326 *  0.692689 *   0.87073    1.000000    
    106 O2    c    0.797524 *  0.099291 *  0.852545 *   0.87073    1.000000    
    107 O2    c    0.298326 *  0.216887 *  0.521631 *   0.87073    1.000000    
    108 O2    c    0.902377 *  0.700825 *  0.187472 *   0.87073    1.000000    
    109 O2    c    0.319070 *  0.643120 *  0.248837 *   0.87073    1.000000    
    110 O2    c    0.353705 *  0.674877 *  0.582186 *   0.87073    1.000000    
    111 O2    c    0.320494 *  0.676464 *  0.916605 *   0.87073    1.000000    
    112 O2    c    0.677358 *  0.354410 *  0.750305 *   0.87073    1.000000    
    113 O2    c    0.642173 *  0.320084 *  0.084098 *   0.87073    1.000000    
    114 O2    c    0.672911 *  0.322808 *  0.417668 *   0.87073    1.000000    
    115 O3    c    0.374925 *  0.319304 *  0.973162 *   1.33043    1.000000    
    116 O2    c    0.663251 *  0.045086 *  0.303839 *   0.87073    1.000000    
    117 O2    c    0.958671 *  0.622592 *  0.637058 *   0.87073    1.000000    
    118 O2    c    0.631283 *  0.681931 *  0.466969 *   0.87073    1.000000    
    119 O2    c    0.330943 *  0.954413 *  0.803559 *   0.87073    1.000000    
    120 O2    c    0.043560 *  0.377766 *  0.136741 *   0.87073    1.000000    
    121 O2    c    0.329823 *  0.377241 *  0.362693 *   0.87073    1.000000    
    122 O2    c    0.039809 *  0.675167 *  0.030328 *   0.87073    1.000000    
    123 O2    c    0.625114 *  0.954753 *  0.695611 *   0.87073    1.000000    
    124 O2    c    0.664708 *  0.622395 *  0.863908 *   0.87073    1.000000    
    125 O3    c    0.938551 *  0.319863 *  0.526624 *   1.33043    1.000000    
    126 O2    c    0.375956 *  0.045509 *  0.195493 *   0.87073    1.000000    
    127 O2    c    0.770096 *  0.302501 *  0.011788 *   0.87073    1.000000    
    128 O2    c    0.692798 *  0.464310 *  0.343983 *   0.87073    1.000000    
    129 O2    c    0.533354 *  0.228661 *  0.677821 *   0.87073    1.000000    
    130 O2    c    0.227822 *  0.696064 *  0.511356 *   0.87073    1.000000    
    131 O2    c    0.300251 *  0.530494 *  0.844082 *   0.87073    1.000000    
    132 O2    c    0.468801 *  0.770567 *  0.177461 *   0.87073    1.000000    
    133 O2    c    0.295689 *  0.768212 *  0.320852 *   0.87073    1.000000    
    134 O2    c    0.463419 *  0.696380 *  0.988378 *   0.87073    1.000000    
    135 O2    c    0.231368 *  0.530350 *  0.655239 *   0.87073    1.000000    
    136 O2    c    0.695703 *  0.227959 *  0.822256 *   0.87073    1.000000    
    137 O2    c    0.527660 *  0.310906 *  0.489318 *   0.87073    1.000000    
    138 O2    c    0.770060 *  0.467936 *  0.156616 *   0.87073    1.000000    
    139 O2    c    0.779905 *  0.533736 *  0.029515 *   0.87073    1.000000    
    140 O2    c    0.461759 *  0.248989 *  0.363702 *   0.87073    1.000000    
    141 O2    c    0.750325 *  0.214243 *  0.694646 *   0.87073    1.000000    
    142 O3    c    0.230905 *  0.471714 *  0.523389 *   1.33043    1.000000    
    143 O2    c    0.528808 *  0.739390 *  0.864022 *   0.87073    1.000000    
    144 O2    c    0.251527 *  0.785718 *  0.193235 *   0.87073    1.000000    
    145 O2    c    0.527646 *  0.783673 *  0.305354 *   0.87073    1.000000    
    146 O3    c    0.235685 *  0.472291 *  0.975394 *   1.33043    1.000000    
    147 O2    c    0.211246 *  0.739138 *  0.635687 *   0.87073    1.000000    
    148 O2    c    0.464338 *  0.213821 *  0.805353 *   0.87073    1.000000    
    149 O2    c    0.750413 *  0.541828 *  0.469561 *   0.87073    1.000000    
    150 O2    c    0.784251 *  0.249591 *  0.137891 *   0.87073    1.000000    
    151 O3    c    0.215306 *  0.309038 *  0.891416 *   1.33043    1.000000    
    152 O2    c    0.675230 *  0.906293 *  0.232502 *   0.87073    1.000000    
    153 O2    c    0.088327 *  0.758432 *  0.565061 *   0.87073    1.000000    
    154 O2    c    0.770081 *  0.683466 *  0.394571 *   0.87073    1.000000    
    155 O2    c    0.323228 *  0.090830 *  0.731572 *   0.87073    1.000000    
    156 O2    c    0.912050 *  0.236193 *  0.064147 *   0.87073    1.000000    
    157 O2    c    0.319503 *  0.240044 *  0.436395 *   0.87073    1.000000    
    158 O2    c    0.905234 *  0.679535 *  0.102833 *   0.87073    1.000000    
    159 O2    c    0.768634 *  0.090703 *  0.767972 *   0.87073    1.000000    
    160 O2    c    0.667615 *  0.758424 *  0.935504 *   0.87073    1.000000    
    161 O3    c    0.092520 *  0.309169 *  0.608144 *   1.33043    1.000000    
    162 O2    c    0.227225 *  0.907172 *  0.266676 *   0.87073    1.000000    
    163 O2    c    0.577975 *  0.553834 *  0.990429 *   0.87073    1.000000    
    164 O2    c    0.434151 *  0.029642 *  0.322532 *   0.87073    1.000000    
    165 O2    c    0.974280 *  0.412476 *  0.657031 *   0.87073    1.000000    
    166 O2    c    0.417014 *  0.455155 *  0.489488 *   0.87073    1.000000    
    167 O2    c    0.559808 *  0.967706 *  0.822862 *   0.87073    1.000000    
    168 O2    c    0.029373 *  0.592167 *  0.157260 *   0.87073    1.000000    
    169 O2    c    0.556674 *  0.589368 *  0.340884 *   0.87073    1.000000    
    170 O2    c    0.027228 *  0.448971 *  0.009566 *   0.87073    1.000000    
    171 O2    c    0.409749 *  0.968469 *  0.676352 *   0.87073    1.000000    
    172 O2    c    0.439136 *  0.412414 *  0.843390 *   0.87073    1.000000    
    173 O2    c    0.971028 *  0.554236 *  0.510186 *   0.87073    1.000000    
    174 O2    c    0.591444 *  0.031106 *  0.177549 *   0.87073    1.000000    
    175 O2    c    0.580907 *  0.169231 *  0.250283 *   0.87073    1.000000    
    176 O2    c    0.835452 *  0.414255 *  0.584310 *   0.87073    1.000000    
    177 O2    c    0.577211 *  0.414362 *  0.916794 *   0.87073    1.000000    
    178 O2    c    0.416454 *  0.831253 *  0.749423 *   0.87073    1.000000    
    179 O2    c    0.164714 *  0.589468 *  0.083154 *   0.87073    1.000000    
    180 O2    c    0.419619 *  0.591888 *  0.414629 *   0.87073    1.000000    
    181 F     c    0.449504 *  0.903617 *  0.249615 *   0.56000    1.000000    
    182 F     c    0.092462 *  0.507528 *  0.578248 *   0.56000    1.000000    
    183 F     c    0.412672 *  0.508194 *  0.921754 *   0.56000    1.000000    
    184 F     c    0.547819 *  0.094475 *  0.749836 *   0.56000    1.000000    
    185 F     c    0.901161 *  0.454994 *  0.084545 *   0.56000    1.000000    
    186 F     c    0.550611 *  0.460012 *  0.415306 *   0.56000    1.000000    
    187 O2    s    0.921715 *  0.000068 *  0.998979 *  -2.87073    1.000000    
    188 O3    s    0.002552 *  0.934971 *  0.337185 *  -3.33043    1.000000    
    189 O2    s    0.075237 *  0.074098 *  0.666547 *  -2.87073    1.000000    
    190 O2    s    0.075893 *  0.001692 *  0.501127 *  -2.87073    1.000000    
    191 O2    s    0.000246 *  0.073890 *  0.833806 *  -2.87073    1.000000    
    192 O2    s    0.929218 *  0.928513 *  0.163595 *  -2.87073    1.000000    
    193 O2    s    0.347779 *  0.586152 *  0.331980 *  -2.87073    1.000000    
    194 O2    s    0.414049 *  0.765134 *  0.665603 *  -2.87073    1.000000    
    195 O2    s    0.232996 *  0.660391 *  0.000589 *  -2.87073    1.000000    
    196 O2    s    0.645636 *  0.410670 *  0.833372 *  -2.87073    1.000000    
    197 O2    s    0.588256 *  0.235320 *  0.166846 *  -2.87073    1.000000    
    198 O2    s    0.753841 *  0.354753 *  0.500965 *  -2.87073    1.000000    
    199 O2    s    0.587785 *  0.348285 *  0.000444 *  -2.87073    1.000000    
    200 O2    s    0.766181 *  0.411554 *  0.667723 *  -2.87073    1.000000    
    201 O2    s    0.642100 *  0.232856 *  0.334514 *  -2.87073    1.000000    
    202 O2    s    0.422100 *  0.663137 *  0.497427 *  -2.87073    1.000000    
    203 O2    s    0.234830 *  0.588852 *  0.165623 *  -2.87073    1.000000    
    204 O2    s    0.352442 *  0.764807 *  0.833105 *  -2.87073    1.000000    
    205 O3    s    0.118578 *  0.212907 *  0.968810 *  -3.33043    1.000000    
    206 O3    s    0.773208 *  0.910444 *  0.305494 *  -3.33043    1.000000    
    207 O2    s    0.097800 *  0.877322 *  0.636546 *  -2.87073    1.000000    
    208 O2    s    0.880420 *  0.789786 *  0.467578 *  -2.87073    1.000000    
    209 O2    s    0.215154 *  0.089706 *  0.803299 *  -2.87073    1.000000    
    210 O2    s    0.906315 *  0.125065 *  0.136067 *  -2.87073    1.000000    
    211 O2    s    0.218301 *  0.126204 *  0.364206 *  -2.87073    1.000000    
    212 O2    s    0.899676 *  0.783756 *  0.030281 *  -2.87073    1.000000    
    213 O2    s    0.876080 *  0.090508 *  0.696372 *  -2.87073    1.000000    
    214 O2    s    0.780279 *  0.876901 *  0.863927 *  -2.87073    1.000000    
    215 O3    s    0.087101 *  0.211622 *  0.531756 *  -3.33043    1.000000    
    216 O2    s    0.125524 *  0.907945 *  0.193847 *  -2.87073    1.000000    
    217 O3    s    0.940340 *  0.875782 *  0.246268 *  -3.33043    1.000000    
    218 O2    s    0.142750 *  0.070895 *  0.584022 *  -2.87073    1.000000    
    219 O2    s    0.926656 *  0.071359 *  0.916055 *  -2.87073    1.000000    
    220 O2    s    0.062337 *  0.124618 *  0.750132 *  -2.87073    1.000000    
    221 O2    s    0.855437 *  0.933476 *  0.082094 *  -2.87073    1.000000    
    222 O2    s    0.079104 *  0.934888 *  0.418118 *  -2.87073    1.000000    
    223 O2    s    0.914243 *  0.212302 *  0.981928 *  -2.87073    1.000000    
    224 O3    s    0.787375 *  0.693315 *  0.312758 *  -3.33043    1.000000    
    225 O2    s    0.296971 *  0.092050 *  0.649440 *  -2.87073    1.000000    
    226 O2    s    0.088805 *  0.794009 *  0.482875 *  -2.87073    1.000000    
    227 O2    s    0.206176 *  0.292814 *  0.810453 *  -2.87073    1.000000    
    228 O2    s    0.706591 *  0.909854 *  0.150173 *  -2.87073    1.000000    
    229 O2    s    0.199261 *  0.907773 *  0.349028 *  -2.87073    1.000000    
    230 O2    s    0.699563 *  0.794523 *  0.017554 *  -2.87073    1.000000    
    231 O2    s    0.088698 *  0.293151 *  0.689457 *  -2.87073    1.000000    
    232 O2    s    0.795880 *  0.091604 *  0.850027 *  -2.87073    1.000000    
    233 O2    s    0.293161 *  0.218003 *  0.518742 *  -2.87073    1.000000    
    234 O2    s    0.910031 *  0.707184 *  0.184628 *  -2.87073    1.000000    
    235 O2    s    0.325039 *  0.655079 *  0.248875 *  -2.87073    1.000000    
    236 O2    s    0.343470 *  0.669985 *  0.582435 *  -2.87073    1.000000    
    237 O2    s    0.325689 *  0.671326 *  0.916432 *  -2.87073    1.000000    
    238 O2    s    0.671344 *  0.342379 *  0.750311 *  -2.87073    1.000000    
    239 O2    s    0.654172 *  0.326212 *  0.083933 *  -2.87073    1.000000    
    240 O2    s    0.666990 *  0.328961 *  0.417533 *  -2.87073    1.000000    
    241 O3    s    0.382657 *  0.331367 *  0.970907 *  -3.33043    1.000000    
    242 O2    s    0.653090 *  0.038253 *  0.301687 *  -2.87073    1.000000    
    243 O2    s    0.965072 *  0.619742 *  0.634934 *  -2.87073    1.000000    
    244 O2    s    0.627675 *  0.671449 *  0.464863 *  -2.87073    1.000000    
    245 O2    s    0.340886 *  0.961188 *  0.801310 *  -2.87073    1.000000    
    246 O2    s    0.036877 *  0.381031 *  0.134492 *  -2.87073    1.000000    
    247 O2    s    0.339825 *  0.380800 *  0.364933 *  -2.87073    1.000000    
    248 O2    s    0.033201 *  0.664859 *  0.032518 *  -2.87073    1.000000    
    249 O2    s    0.621886 *  0.961471 *  0.697863 *  -2.87073    1.000000    
    250 O2    s    0.655327 *  0.619516 *  0.865966 *  -2.87073    1.000000    
    251 O3    s    0.942730 *  0.331833 *  0.528899 *  -3.33043    1.000000    
    252 O2    s    0.378889 *  0.038527 *  0.197725 *  -2.87073    1.000000    
    253 O2    s    0.776969 *  0.310346 *  0.014744 *  -2.87073    1.000000    
    254 O2    s    0.684981 *  0.463910 *  0.347106 *  -2.87073    1.000000    
    255 O2    s    0.533739 *  0.221557 *  0.680941 *  -2.87073    1.000000    
    256 O2    s    0.221331 *  0.688921 *  0.513902 *  -2.87073    1.000000    
    257 O2    s    0.307440 *  0.531396 *  0.846897 *  -2.87073    1.000000    
    258 O2    s    0.468019 *  0.777553 *  0.180561 *  -2.87073    1.000000    
    259 O2    s    0.303620 *  0.775380 *  0.317784 *  -2.87073    1.000000    
    260 O2    s    0.462807 *  0.689231 *  0.985798 *  -2.87073    1.000000    
    261 O2    s    0.225050 *  0.531287 *  0.652468 *  -2.87073    1.000000    
    262 O2    s    0.688229 *  0.220956 *  0.819120 *  -2.87073    1.000000    
    263 O2    s    0.528553 *  0.318575 *  0.486234 *  -2.87073    1.000000    
    264 O2    s    0.777220 *  0.467526 *  0.153402 *  -2.87073    1.000000    
    265 O2    s    0.785375 *  0.531381 *  0.031996 *  -2.87073    1.000000    
    266 O2    s    0.464902 *  0.257592 *  0.366110 *  -2.87073    1.000000    
    267 O2    s    0.742371 *  0.208846 *  0.697258 *  -2.87073    1.000000    
    268 O3    s    0.227716 *  0.478937 *  0.526111 *  -3.33043    1.000000    
    269 O2    s    0.526656 *  0.733373 *  0.866144 *  -2.87073    1.000000    
    270 O2    s    0.259244 *  0.790966 *  0.195888 *  -2.87073    1.000000    
    271 O2    s    0.524983 *  0.788883 *  0.302727 *  -2.87073    1.000000    
    272 O3    s    0.246180 *  0.479284 *  0.972712 *  -3.33043    1.000000    
    273 O2    s    0.207293 *  0.733121 *  0.633587 *  -2.87073    1.000000    
    274 O2    s    0.467009 *  0.208521 *  0.802752 *  -2.87073    1.000000    
    275 O2    s    0.742131 *  0.538931 *  0.467099 *  -2.87073    1.000000    
    276 O2    s    0.789642 *  0.258013 *  0.135366 *  -2.87073    1.000000    
    277 O3    s    0.226883 *  0.320837 *  0.891055 *  -3.33043    1.000000    
    278 O2    s    0.665690 *  0.906565 *  0.233186 *  -2.87073    1.000000    
    279 O2    s    0.089002 *  0.750644 *  0.565951 *  -2.87073    1.000000    
    280 O2    s    0.760667 *  0.673672 *  0.395733 *  -2.87073    1.000000    
    281 O2    s    0.332667 *  0.090903 *  0.732427 *  -2.87073    1.000000    
    282 O2    s    0.911388 *  0.245346 *  0.065110 *  -2.87073    1.000000    
    283 O2    s    0.329349 *  0.249106 *  0.435464 *  -2.87073    1.000000    
    284 O2    s    0.905089 *  0.669733 *  0.101864 *  -2.87073    1.000000    
    285 O2    s    0.759235 *  0.090779 *  0.767120 *  -2.87073    1.000000    
    286 O2    s    0.659243 *  0.750678 *  0.934570 *  -2.87073    1.000000    
    287 O3    s    0.092694 *  0.321012 *  0.608674 *  -3.33043    1.000000    
    288 O2    s    0.236787 *  0.907225 *  0.265857 *  -2.87073    1.000000    
    289 O2    s    0.574722 *  0.554895 *  0.987480 *  -2.87073    1.000000    
    290 O2    s    0.434135 *  0.024571 *  0.319239 *  -2.87073    1.000000    
    291 O2    s    0.977813 *  0.416006 *  0.654086 *  -2.87073    1.000000    
    292 O2    s    0.420940 *  0.454333 *  0.486146 *  -2.87073    1.000000    
    293 O2    s    0.559920 *  0.972899 *  0.819594 *  -2.87073    1.000000    
    294 O2    s    0.024442 *  0.587270 *  0.153896 *  -2.87073    1.000000    
    295 O2    s    0.556612 *  0.584595 *  0.344274 *  -2.87073    1.000000    
    296 O2    s    0.022800 *  0.448547 *  0.012932 *  -2.87073    1.000000    
    297 O2    s    0.414746 *  0.973546 *  0.679615 *  -2.87073    1.000000    
    298 O2    s    0.439029 *  0.415955 *  0.846338 *  -2.87073    1.000000    
    299 O2    s    0.975346 *  0.555402 *  0.513092 *  -2.87073    1.000000    
    300 O2    s    0.586360 *  0.025926 *  0.180744 *  -2.87073    1.000000    
    301 O2    s    0.575413 *  0.157875 *  0.250273 *  -2.87073    1.000000    
    302 O2    s    0.844892 *  0.419192 *  0.584528 *  -2.87073    1.000000    
    303 O2    s    0.572413 *  0.419166 *  0.916525 *  -2.87073    1.000000    
    304 O2    s    0.422093 *  0.842555 *  0.749423 *  -2.87073    1.000000    
    305 O2    s    0.153854 *  0.583960 *  0.083194 *  -2.87073    1.000000    
    306 O2    s    0.425056 *  0.586337 *  0.414644 *  -2.87073    1.000000    
    307 F     s    0.449247 *  0.903090 *  0.249628 *  -1.56000    1.000000    
    308 F     s    0.092427 *  0.498881 *  0.576804 *  -1.56000    1.000000    
    309 F     s    0.404525 *  0.500147 *  0.923074 *  -1.56000    1.000000    
    310 F     s    0.548043 *  0.094900 *  0.749838 *  -1.56000    1.000000    
    311 F     s    0.900540 *  0.454851 *  0.084677 *  -1.56000    1.000000    
    312 F     s    0.551273 *  0.460122 *  0.415236 *  -1.56000    1.000000    
--------------------------------------------------------------------------------



********************************************************************************
*  General input information                                                   *
********************************************************************************

  Species output for all configurations : 

--------------------------------------------------------------------------------
  Species    Type    Atomic    Atomic    Charge       Radii (Angs)     Library
                     Number     Mass       (e)     Cova   Ionic  VDW   Symbol
--------------------------------------------------------------------------------
    Si       Core       14      28.09   4.000000   1.200  0.000  2.100          
    O1       Core        8      16.00   1.733957   0.730  0.000  1.360          
    O1       Shell       8       0.00  -3.733957   0.730  0.000  1.360          
    O2       Core        8      16.00   0.870733   0.730  0.000  1.360          
    O2       Shell       8       0.00  -2.870733   0.730  0.000  1.360          
    O3       Core        8      16.00   1.330431   0.730  0.000  1.360          
    O3       Shell       8       0.00  -3.330431   0.730  0.000  1.360          
    F        Core        9      19.00   0.560000   0.710  0.000  1.300          
    F        Shell       9       0.00  -1.560000   0.710  0.000  1.300          
    Ge       Core       32      72.61   4.000000   1.170  0.000  1.750          
--------------------------------------------------------------------------------


  Lattice summation method               =    Ewald          (3-D)
                                         =    Parry          (2-D)
                                         =    Saunders et al (1-D)
  Accuracy factor for lattice sums       =   12.000


  Time limit = Infinity

  Maximum range for interatomic potentials =        16.000000 Angstroms

  Taper potentials to zero over   1.0000 Angstroms using polynomial

  General interatomic potentials :

--------------------------------------------------------------------------------
Atom  Types   Potential         A         B         C         D     Cutoffs(Ang)
  1     2                                                            Min    Max 
--------------------------------------------------------------------------------
Si   c O1   s Buckingham    0.132E+04 0.318      10.1      0.00     0.000 16.000
Si   c O2   s Buckingham    0.132E+04 0.318      10.1      0.00     0.000 16.000
Si   c O3   s Buckingham    0.132E+04 0.318      10.1      0.00     0.000 16.000
Ge   c O1   s Buckingham    0.150E+04 0.326      16.8      0.00     0.000 16.000
Ge   c O2   s Buckingham    0.150E+04 0.326      16.8      0.00     0.000 16.000
Ge   c O3   s Buckingham    0.150E+04 0.326      16.8      0.00     0.000 16.000
O1   s O1   s Buckingham    0.228E+05 0.149      10.9      0.00     0.000 16.000
O1   s O2   s Buckingham    0.228E+05 0.149      10.9      0.00     0.000 16.000
O1   s O3   s Buckingham    0.228E+05 0.149      10.9      0.00     0.000 16.000
O2   s O2   s Buckingham    0.228E+05 0.149      10.9      0.00     0.000 16.000
O2   s O3   s Buckingham    0.228E+05 0.149      10.9      0.00     0.000 16.000
O3   s O3   s Buckingham    0.228E+05 0.149      10.9      0.00     0.000 16.000
Si   c F    s Buckingham     977.     0.282      0.00      0.00     0.000 16.000
Ge   c F    s Buckingham     681.     0.320      0.00      0.00     0.000 16.000
F    s F    s Buckingham     540.     0.262      0.00      0.00     0.000 16.000
O1   s F    s Buckingham    0.168E+04 0.268      0.00      0.00     0.000 16.000
O2   s F    s Buckingham    0.168E+04 0.268      0.00      0.00     0.000 16.000
O3   s F    s Buckingham    0.168E+04 0.268      0.00      0.00     0.000 16.000
O2   c O2   s Spring (c-s)   76.0      0.00      0.00      0.00     0.000  0.800
O3   c O3   s Spring (c-s)   128.      0.00      0.00      0.00     0.000  0.800
O1   c O1   s Spring (c-s)   180.      0.00      0.00      0.00     0.000  0.800
F    c F    s Spring (c-s)   33.5      0.00      0.00      0.00     0.000  0.800
--------------------------------------------------------------------------------

  General Three-body potentials :

  Harmonic form:

--------------------------------------------------------------------------------
Atom    Atom    Atom           Force Constants            Theta     Cutoffs  
  1       2       3     (eVrad**-2/eVrad**-3/eVrad**-4)   (deg)  1-2  1-3  2-3
--------------------------------------------------------------------------------
Si    c O1    s O1    s  1.261        0.0000    0.0000   109.470 0.00 0.00 0.00
                                                                 1.90 1.90 3.50
Si    c O1    s O2    s  1.261        0.0000    0.0000   109.470 0.00 0.00 0.00
                                                                 1.90 1.90 3.50
Si    c O2    s O2    s  1.261        0.0000    0.0000   109.470 0.00 0.00 0.00
                                                                 1.90 1.90 3.50
--------------------------------------------------------------------------------

********************************************************************************
*  Output for configuration   1                                                *
********************************************************************************


  Components of energy : 

--------------------------------------------------------------------------------
  Interatomic potentials     =        2062.93906429 eV
  Three-body potentials      =           0.48243480 eV
  Monopole - monopole (real) =       -6612.15608851 eV
  Monopole - monopole (recip)=       -3171.02446431 eV
  Monopole - monopole (total)=       -9783.18055282 eV
  Neutralising energy        =          -6.45937741 eV
--------------------------------------------------------------------------------
  Total lattice energy       =       -7726.21843115 eV
--------------------------------------------------------------------------------
  Total lattice energy       =         -745461.9725 kJ/(mole unit cells)
--------------------------------------------------------------------------------


  Number of variables =      939

  Maximum number of calculations  =          1000
  Maximum Hessian update interval =            10
  Maximum step size               =   1.000000000
  Maximum parameter tolerance     =   0.000010000
  Maximum function  tolerance     =   0.000010000
  Maximum gradient  tolerance     =   0.001000000
  Maximum gradient  component     =   0.010000000

  Symmetry not applied to optimisation

  Cell parameters to be optimised using strains

  Newton-Raphson optimiser to be used

  BFGS hessian update to be used

  Dumpfile to be written after every cycle

  Start of bulk optimisation :

  Cycle:      0 Energy:     -7726.218431  Gnorm:      0.004542  CPU:    1.058
  ** Hessian calculated **
  Cycle:      1 Energy:     -7726.296128  Gnorm:      0.004721  CPU:    3.294
  Cycle:      2 Energy:     -7726.297110  Gnorm:      0.000547  CPU:    4.675
  Cycle:      3 Energy:     -7726.297164  Gnorm:      0.000155  CPU:    6.056


  **** Optimisation achieved ****


  Final energy =   -7726.29716563 eV
  Final Gnorm  =       0.00001877

  Components of energy : 

--------------------------------------------------------------------------------
  Interatomic potentials     =        2062.77705518 eV
  Three-body potentials      =           0.48832177 eV
  Monopole - monopole (real) =       -6613.64406357 eV
  Monopole - monopole (recip)=       -3169.46228633 eV
  Monopole - monopole (total)=       -9783.10634990 eV
  Neutralising energy        =          -6.45619267 eV
--------------------------------------------------------------------------------
  Total lattice energy       =       -7726.29716563 eV
--------------------------------------------------------------------------------
  Total lattice energy       =         -745469.5692 kJ/(mole unit cells)
--------------------------------------------------------------------------------

  Final fractional coordinates of atoms :

--------------------------------------------------------------------------------
   No.  Atomic        x           y          z          Radius
        Label       (Frac)      (Frac)     (Frac)       (Angs) 
--------------------------------------------------------------------------------
     1  Si    c     0.699600    0.375700    0.033890    0.000000
     2  Si    c     0.601165    0.318621    0.367640    0.000000
     3  Si    c     0.654776    0.276911    0.700479    0.000000
     4  Si    c     0.284650    0.612557    0.530531    0.000000
     5  Si    c     0.356803    0.656358    0.866878    0.000000
     6  Si    c     0.313520    0.701096    0.199610    0.000000
     7  Si    c     0.360000    0.699107    0.300204    0.000000
     8  Si    c     0.304256    0.611577    0.969810    0.000000
     9  Si    c     0.278201    0.657270    0.633590    0.000000
    10  Si    c     0.598968    0.275842    0.800718    0.000000
    11  Si    c     0.653472    0.378003    0.467300    0.000000
    12  Si    c     0.695622    0.321311    0.134048    0.000000
    13  Si    c     0.514801    0.394992    0.969999    0.000000
    14  Si    c     0.563690    0.111338    0.301062    0.000000
    15  Si    c     0.864416    0.448953    0.635263    0.000000
    16  Si    c     0.460542    0.589786    0.465834    0.000000
    17  Si    c     0.397531    0.866890    0.800776    0.000000
    18  Si    c     0.104170    0.531437    0.134927    0.000000
    19  Si    c     0.402212    0.531339    0.365169    0.000000
    20  Si    c     0.104225    0.587494    0.034025    0.000000
    21  Si    c     0.448144    0.867787    0.699470    0.000000
    22  Si    c     0.561205    0.447179    0.866271    0.000000
    23  Si    c     0.857186    0.396656    0.531513    0.000000
    24  Si    c     0.520470    0.111998    0.199471    0.000000
    25  Si    c     0.277229    0.372989    0.849621    0.000000
    26  Si    c     0.592714    0.901669    0.186633    0.000000
    27  Si    c     0.074483    0.683090    0.517359    0.000000
    28  Si    c     0.679325    0.596902    0.350247    0.000000
    29  Si    c     0.376213    0.077071    0.685672    0.000000
    30  Si    c     0.901964    0.302629    0.017760    0.000000
    31  Si    c     0.377825    0.305301    0.483580    0.000000
    32  Si    c     0.895159    0.601150    0.149458    0.000000
    33  Si    c     0.678108    0.075699    0.814973    0.000000
    34  Si    c     0.584278    0.681887    0.983849    0.000000
    35  Si    c     0.074356    0.374325    0.651418    0.000000
    36  Si    c     0.282667    0.900610    0.313409    0.000000
    37  Ge    c     0.252339    0.342471    0.949563    0.000000
    38  Si    c     0.641268    0.909430    0.287621    0.000000
    39  Si    c     0.067167    0.732003    0.619378    0.000000
    40  Si    c     0.735640    0.662474    0.449813    0.000000
    41  Si    c     0.317823    0.067016    0.786328    0.000000
    42  Si    c     0.904398    0.250895    0.118472    0.000000
    43  Si    c     0.323494    0.251755    0.383037    0.000000
    44  Si    c     0.901632    0.660156    0.049300    0.000000
    45  Si    c     0.727380    0.067711    0.714302    0.000000
    46  Si    c     0.641965    0.730618    0.881845    0.000000
    47  Ge    c     0.067369    0.344025    0.551477    0.000000
    48  Si    c     0.240695    0.910350    0.212532    0.000000
    49  Si    c     0.965098    0.118174    0.966436    0.000000
    50  Ge    c     0.863373    0.849684    0.300473    0.000000
    51  Si    c     0.132997    0.016089    0.633871    0.000000
    52  Si    c     0.016736    0.874401    0.468237    0.000000
    53  Si    c     0.099647    0.126582    0.800112    0.000000
    54  Si    c     0.838190    0.968633    0.133583    0.000000
    55  Si    c     0.108165    0.970293    0.367299    0.000000
    56  Si    c     0.832999    0.872873    0.032549    0.000000
    57  Si    c     0.005223    0.127668    0.700871    0.000000
    58  Si    c     0.860218    0.014525    0.867051    0.000000
    59  Si    c     0.129912    0.119362    0.534529    0.000000
    60  Si    c     0.964637    0.852233    0.198003    0.000000
    61  O2    c     0.906823    0.991950    0.998894    0.000000
    62  O3    c     0.985767    0.934858    0.337891    0.000000
    63  O2    c     0.051195    0.054568    0.666692    0.000000
    64  O2    c     0.061249    0.993157    0.502067    0.000000
    65  O2    c     0.980711    0.052916    0.834327    0.000000
    66  O2    c     0.921709    0.927116    0.163540    0.000000
    67  O2    c     0.322225    0.575859    0.333100    0.000000
    68  O2    c     0.399022    0.742932    0.666368    0.000000
    69  O2    c     0.230358    0.665733    0.001507    0.000000
    70  O2    c     0.637663    0.399328    0.833605    0.000000
    71  O2    c     0.572208    0.237213    0.166590    0.000000
    72  O2    c     0.729060    0.333490    0.501255    0.000000
    73  O2    c     0.578206    0.330500    0.000534    0.000000
    74  O2    c     0.740343    0.401340    0.668007    0.000000
    75  O2    c     0.638919    0.234182    0.334708    0.000000
    76  O2    c     0.412068    0.667556    0.498452    0.000000
    77  O2    c     0.229086    0.577800    0.166776    0.000000
    78  O2    c     0.321806    0.741635    0.833741    0.000000
    79  O3    c     0.114020    0.197884    0.970808    0.000000
    80  O3    c     0.764996    0.914070    0.308895    0.000000
    81  O2    c     0.070514    0.859755    0.639179    0.000000
    82  O2    c     0.861913    0.787472    0.470467    0.000000
    83  O2    c     0.190210    0.063122    0.806342    0.000000
    84  O2    c     0.903419    0.123996    0.138727    0.000000
    85  O2    c     0.199488    0.125411    0.362575    0.000000
    86  O2    c     0.899848    0.785125    0.028724    0.000000
    87  O2    c     0.851503    0.064586    0.694291    0.000000
    88  O2    c     0.766773    0.858067    0.862118    0.000000
    89  O3    c     0.060481    0.199055    0.530256    0.000000
    90  O2    c     0.117969    0.912583    0.191206    0.000000
    91  O3    c     0.930806    0.877591    0.247519    0.000000
    92  O2    c     0.125178    0.058533    0.583843    0.000000
    93  O2    c     0.910211    0.057977    0.917006    0.000000
    94  O2    c     0.039714    0.102424    0.750528    0.000000
    95  O2    c     0.841132    0.927218    0.082476    0.000000
    96  O2    c     0.065896    0.928821    0.418640    0.000000
    97  O2    c     0.903221    0.208780    0.978582    0.000000
    98  O3    c     0.774599    0.685481    0.310315    0.000000
    99  O2    c     0.282694    0.082486    0.647627    0.000000
   100  O2    c     0.076616    0.783181    0.480350    0.000000
   101  O2    c     0.187856    0.281488    0.808062    0.000000
   102  O2    c     0.689369    0.899066    0.148807    0.000000
   103  O2    c     0.183197    0.896711    0.351261    0.000000
   104  O2    c     0.681504    0.782326    0.020961    0.000000
   105  O2    c     0.072286    0.282757    0.693042    0.000000
   106  O2    c     0.776704    0.080575    0.853011    0.000000
   107  O2    c     0.282460    0.211079    0.522662    0.000000
   108  O2    c     0.893522    0.697566    0.188310    0.000000
   109  O2    c     0.307527    0.641295    0.249794    0.000000
   110  O2    c     0.331471    0.659028    0.582901    0.000000
   111  O2    c     0.304756    0.658490    0.917441    0.000000
   112  O2    c     0.655867    0.334667    0.750647    0.000000
   113  O2    c     0.639287    0.320125    0.083928    0.000000
   114  O2    c     0.656650    0.318649    0.417814    0.000000
   115  O3    c     0.363482    0.304690    0.974802    0.000000
   116  O2    c     0.650040    0.042938    0.304398    0.000000
   117  O2    c     0.936975    0.606596    0.637508    0.000000
   118  O2    c     0.616310    0.677473    0.467989    0.000000
   119  O2    c     0.309845    0.934637    0.804330    0.000000
   120  O2    c     0.034838    0.374087    0.137566    0.000000
   121  O2    c     0.315300    0.374073    0.363379    0.000000
   122  O2    c     0.035896    0.675026    0.031336    0.000000
   123  O2    c     0.603490    0.935673    0.696014    0.000000
   124  O2    c     0.646492    0.604785    0.863964    0.000000
   125  O3    c     0.917996    0.306090    0.526521    0.000000
   126  O2    c     0.365248    0.043482    0.195191    0.000000
   127  O2    c     0.767515    0.300793    0.011744    0.000000
   128  O2    c     0.676686    0.460926    0.344278    0.000000
   129  O2    c     0.512455    0.209799    0.678307    0.000000
   130  O2    c     0.208036    0.683442    0.511898    0.000000
   131  O2    c     0.282890    0.512112    0.844987    0.000000
   132  O2    c     0.457670    0.768261    0.178284    0.000000
   133  O2    c     0.282513    0.766002    0.321339    0.000000
   134  O2    c     0.451084    0.682488    0.988875    0.000000
   135  O2    c     0.208084    0.513130    0.655675    0.000000
   136  O2    c     0.674129    0.208176    0.822624    0.000000
   137  O2    c     0.511055    0.304749    0.489680    0.000000
   138  O2    c     0.762849    0.464783    0.157092    0.000000
   139  O2    c     0.777371    0.533151    0.028989    0.000000
   140  O2    c     0.446079    0.245481    0.364332    0.000000
   141  O2    c     0.728855    0.195182    0.695073    0.000000
   142  O3    c     0.210440    0.459038    0.523368    0.000000
   143  O2    c     0.511395    0.721585    0.864626    0.000000
   144  O2    c     0.240758    0.783637    0.193465    0.000000
   145  O2    c     0.514686    0.782106    0.306532    0.000000
   146  O3    c     0.224436    0.458106    0.977230    0.000000
   147  O2    c     0.188814    0.722578    0.636197    0.000000
   148  O2    c     0.443274    0.194028    0.805873    0.000000
   149  O2    c     0.733853    0.535808    0.470372    0.000000
   150  O2    c     0.776852    0.246858    0.137736    0.000000
   151  O3    c     0.199754    0.292187    0.892826    0.000000
   152  O2    c     0.662751    0.903389    0.233482    0.000000
   153  O2    c     0.066756    0.743270    0.565419    0.000000
   154  O2    c     0.754892    0.679108    0.395338    0.000000
   155  O2    c     0.302303    0.071534    0.732216    0.000000
   156  O2    c     0.907270    0.233930    0.064346    0.000000
   157  O2    c     0.303748    0.236307    0.437175    0.000000
   158  O2    c     0.898115    0.676918    0.103510    0.000000
   159  O2    c     0.746844    0.070983    0.768416    0.000000
   160  O2    c     0.652804    0.741931    0.935827    0.000000
   161  O3    c     0.070375    0.293391    0.608195    0.000000
   162  O2    c     0.215618    0.905398    0.266601    0.000000
   163  O2    c     0.564246    0.539480    0.991270    0.000000
   164  O2    c     0.420776    0.027271    0.322723    0.000000
   165  O2    c     0.951786    0.395473    0.657163    0.000000
   166  O2    c     0.402528    0.450118    0.490599    0.000000
   167  O2    c     0.538910    0.948226    0.823536    0.000000
   168  O2    c     0.020734    0.588823    0.158203    0.000000
   169  O2    c     0.542271    0.587040    0.341565    0.000000
   170  O2    c     0.022059    0.446977    0.010014    0.000000
   171  O2    c     0.388326    0.949758    0.676862    0.000000
   172  O2    c     0.420750    0.393638    0.844143    0.000000
   173  O2    c     0.951992    0.540968    0.510148    0.000000
   174  O2    c     0.580812    0.028758    0.178052    0.000000
   175  O2    c     0.568339    0.166802    0.250384    0.000000
   176  O2    c     0.814973    0.399889    0.584328    0.000000
   177  O2    c     0.560991    0.398064    0.917281    0.000000
   178  O2    c     0.395221    0.811951    0.750083    0.000000
   179  O2    c     0.157540    0.586686    0.084373    0.000000
   180  O2    c     0.405343    0.588194    0.415575    0.000000
   181  F     c     0.437223    0.901557    0.249995    0.000000
   182  F     c     0.070863    0.492275    0.578463    0.000000
   183  F     c     0.397798    0.491017    0.922555    0.000000
   184  F     c     0.525820    0.073801    0.750315    0.000000
   185  F     c     0.896822    0.454710    0.084425    0.000000
   186  F     c     0.535343    0.457278    0.415994    0.000000
   187  O2    s     0.904382    0.991476    0.999366    0.000000
   188  O3    s     0.988471    0.931327    0.337841    0.000000
   189  O2    s     0.055167    0.058432    0.666862    0.000000
   190  O2    s     0.063374    0.992744    0.501588    0.000000
   191  O2    s     0.980565    0.056840    0.834143    0.000000
   192  O2    s     0.917036    0.923528    0.163964    0.000000
   193  O2    s     0.334287    0.583935    0.333007    0.000000
   194  O2    s     0.391363    0.746765    0.666314    0.000000
   195  O2    s     0.225268    0.652585    0.001541    0.000000
   196  O2    s     0.625737    0.391629    0.833609    0.000000
   197  O2    s     0.579615    0.232881    0.166630    0.000000
   198  O2    s     0.734972    0.344963    0.500956    0.000000
   199  O2    s     0.584052    0.342155    0.000738    0.000000
   200  O2    s     0.744467    0.393531    0.667950    0.000000
   201  O2    s     0.627130    0.230175    0.334647    0.000000
   202  O2    s     0.404142    0.654416    0.498454    0.000000
   203  O2    s     0.224903    0.585711    0.166878    0.000000
   204  O2    s     0.333297    0.745553    0.833848    0.000000
   205  O3    s     0.106262    0.198373    0.968945    0.000000
   206  O3    s     0.760580    0.908333    0.306074    0.000000
   207  O2    s     0.076532    0.861968    0.636537    0.000000
   208  O2    s     0.865221    0.783686    0.468099    0.000000
   209  O2    s     0.194016    0.070104    0.803652    0.000000
   210  O2    s     0.896560    0.120573    0.136104    0.000000
   211  O2    s     0.202935    0.122259    0.365242    0.000000
   212  O2    s     0.892888    0.781420    0.031258    0.000000
   213  O2    s     0.854594    0.071446    0.697016    0.000000
   214  O2    s     0.762902    0.860335    0.864709    0.000000
   215  O3    s     0.068799    0.199573    0.532107    0.000000
   216  O2    s     0.114691    0.906072    0.194091    0.000000
   217  O3    s     0.928584    0.872499    0.246824    0.000000
   218  O2    s     0.126576    0.059926    0.584546    0.000000
   219  O2    s     0.910110    0.059183    0.916322    0.000000
   220  O2    s     0.042568    0.107968    0.750519    0.000000
   221  O2    s     0.839875    0.925735    0.082613    0.000000
   222  O2    s     0.064991    0.927224    0.418553    0.000000
   223  O2    s     0.909273    0.209617    0.981498    0.000000
   224  O3    s     0.772866    0.690611    0.313298    0.000000
   225  O2    s     0.276622    0.074899    0.650144    0.000000
   226  O2    s     0.070148    0.781888    0.483068    0.000000
   227  O2    s     0.187472    0.274349    0.811275    0.000000
   228  O2    s     0.695264    0.906765    0.151104    0.000000
   229  O2    s     0.185583    0.904895    0.348998    0.000000
   230  O2    s     0.686795    0.780965    0.018209    0.000000
   231  O2    s     0.065499    0.275619    0.689813    0.000000
   232  O2    s     0.775242    0.073058    0.850517    0.000000
   233  O2    s     0.277349    0.211888    0.519726    0.000000
   234  O2    s     0.901055    0.703951    0.185441    0.000000
   235  O2    s     0.313493    0.653280    0.249837    0.000000
   236  O2    s     0.321357    0.654301    0.583121    0.000000
   237  O2    s     0.310122    0.653668    0.917249    0.000000
   238  O2    s     0.649938    0.322750    0.750635    0.000000
   239  O2    s     0.651224    0.325946    0.083963    0.000000
   240  O2    s     0.650674    0.324691    0.417699    0.000000
   241  O3    s     0.371312    0.316678    0.972515    0.000000
   242  O2    s     0.639927    0.036051    0.302244    0.000000
   243  O2    s     0.943326    0.603748    0.635364    0.000000
   244  O2    s     0.612597    0.666858    0.465862    0.000000
   245  O2    s     0.319786    0.941463    0.802065    0.000000
   246  O2    s     0.028241    0.377354    0.135273    0.000000
   247  O2    s     0.325220    0.377544    0.365650    0.000000
   248  O2    s     0.028949    0.664423    0.033504    0.000000
   249  O2    s     0.600332    0.942438    0.698295    0.000000
   250  O2    s     0.637297    0.601992    0.866089    0.000000
   251  O3    s     0.922135    0.318111    0.528797    0.000000
   252  O2    s     0.368177    0.036552    0.197470    0.000000
   253  O2    s     0.774560    0.308847    0.014739    0.000000
   254  O2    s     0.669021    0.460551    0.347422    0.000000
   255  O2    s     0.512865    0.202756    0.681421    0.000000
   256  O2    s     0.201483    0.676240    0.514390    0.000000
   257  O2    s     0.290026    0.513053    0.847776    0.000000
   258  O2    s     0.456937    0.775292    0.181389    0.000000
   259  O2    s     0.290523    0.773183    0.318286    0.000000
   260  O2    s     0.450480    0.675251    0.986385    0.000000
   261  O2    s     0.201861    0.514106    0.652908    0.000000
   262  O2    s     0.666718    0.201204    0.819502    0.000000
   263  O2    s     0.511954    0.312504    0.486654    0.000000
   264  O2    s     0.769995    0.464537    0.153888    0.000000
   265  O2    s     0.782689    0.530450    0.031648    0.000000
   266  O2    s     0.449248    0.254053    0.366711    0.000000
   267  O2    s     0.720943    0.189848    0.697667    0.000000
   268  O3    s     0.207450    0.466325    0.526114    0.000000
   269  O2    s     0.509335    0.715608    0.866732    0.000000
   270  O2    s     0.248432    0.788944    0.196151    0.000000
   271  O2    s     0.512122    0.787232    0.303855    0.000000
   272  O3    s     0.234756    0.465292    0.974483    0.000000
   273  O2    s     0.184881    0.716635    0.634097    0.000000
   274  O2    s     0.445907    0.188757    0.803270    0.000000
   275  O2    s     0.725648    0.532942    0.467876    0.000000
   276  O2    s     0.782211    0.255209    0.135281    0.000000
   277  O3    s     0.211410    0.304048    0.892221    0.000000
   278  O2    s     0.653289    0.903762    0.234120    0.000000
   279  O2    s     0.067608    0.735621    0.566285    0.000000
   280  O2    s     0.745421    0.669307    0.396461    0.000000
   281  O2    s     0.311748    0.071644    0.733064    0.000000
   282  O2    s     0.906431    0.242894    0.065257    0.000000
   283  O2    s     0.313594    0.245193    0.436260    0.000000
   284  O2    s     0.898183    0.667289    0.102552    0.000000
   285  O2    s     0.737523    0.071138    0.767571    0.000000
   286  O2    s     0.644343    0.734303    0.934957    0.000000
   287  O3    s     0.070603    0.305279    0.608824    0.000000
   288  O2    s     0.225153    0.905384    0.265828    0.000000
   289  O2    s     0.561348    0.540779    0.988333    0.000000
   290  O2    s     0.420761    0.022170    0.319424    0.000000
   291  O2    s     0.955345    0.399085    0.654238    0.000000
   292  O2    s     0.406208    0.449164    0.487226    0.000000
   293  O2    s     0.539068    0.953481    0.820256    0.000000
   294  O2    s     0.015788    0.583984    0.154834    0.000000
   295  O2    s     0.542219    0.582132    0.344957    0.000000
   296  O2    s     0.017515    0.446221    0.013398    0.000000
   297  O2    s     0.393359    0.954924    0.680150    0.000000
   298  O2    s     0.420754    0.397300    0.847063    0.000000
   299  O2    s     0.956211    0.542225    0.513080    0.000000
   300  O2    s     0.575627    0.023570    0.181229    0.000000
   301  O2    s     0.562912    0.155433    0.250363    0.000000
   302  O2    s     0.824373    0.404771    0.584587    0.000000
   303  O2    s     0.556470    0.402971    0.916998    0.000000
   304  O2    s     0.400908    0.823360    0.750094    0.000000
   305  O2    s     0.146475    0.581055    0.084381    0.000000
   306  O2    s     0.410744    0.582516    0.415577    0.000000
   307  F     s     0.436967    0.901070    0.249994    0.000000
   308  F     s     0.070816    0.483325    0.576938    0.000000
   309  F     s     0.389015    0.482240    0.924054    0.000000
   310  F     s     0.525943    0.074048    0.750313    0.000000
   311  F     s     0.896342    0.454770    0.084460    0.000000
   312  F     s     0.535979    0.457521    0.415931    0.000000
--------------------------------------------------------------------------------

  Final Cartesian lattice vectors (Angstroms) :

       12.046228    0.003912   -0.001254
       -6.012711   10.289410    0.008897
        0.163069    0.000303   29.549637


  Final cell parameters and derivatives :

--------------------------------------------------------------------------------
       a           12.046229 Angstrom     dE/de1(xx)     0.001560 eV/strain
       b           11.917413 Angstrom     dE/de2(yy)     0.000594 eV/strain
       c           29.550087 Angstrom     dE/de3(zz)     0.000231 eV/strain
       alpha       90.116243 Degrees      dE/de4(yz)    -0.000345 eV/strain
       beta        89.689782 Degrees      dE/de5(xz)     0.000104 eV/strain
       gamma      120.281656 Degrees      dE/de6(xy)     0.000133 eV/strain
--------------------------------------------------------------------------------

  Primitive cell volume =          3663.332909 Angs**3

  Density of cell =      1.746522 g/cm**3

  Non-primitive cell volume =          3663.332909 Angs**3


  Final internal derivatives :

--------------------------------------------------------------------------------
   No.  Atomic          a             b             c           Radius
        Label          (eV)          (eV)          (eV)        (eV/Angs)
--------------------------------------------------------------------------------
      1 Si    c       0.000000      0.000000      0.000000      0.000000
      2 Si    c      -0.000138      0.000120      0.000054      0.000000
      3 Si    c       0.000078     -0.000011      0.000022      0.000000
      4 Si    c      -0.000423     -0.000542      0.000243      0.000000
      5 Si    c      -0.000003      0.000028      0.000163      0.000000
      6 Si    c      -0.000066      0.000083     -0.000060      0.000000
      7 Si    c       0.000022      0.000026     -0.000132      0.000000
      8 Si    c      -0.000480     -0.000159      0.000189      0.000000
      9 Si    c      -0.000110     -0.000042     -0.000521      0.000000
     10 Si    c       0.000005      0.000045      0.000208      0.000000
     11 Si    c       0.000302     -0.000043      0.000463      0.000000
     12 Si    c       0.000115      0.000295     -0.000243      0.000000
     13 Si    c      -0.002341      0.001283     -0.004595      0.000000
     14 Si    c       0.000027      0.000049     -0.000125      0.000000
     15 Si    c       0.000207      0.000012     -0.000393      0.000000
     16 Si    c       0.000993     -0.000267     -0.001748      0.000000
     17 Si    c       0.000007     -0.000024      0.000106      0.000000
     18 Si    c       0.000253     -0.000290      0.001980      0.000000
     19 Si    c       0.000028     -0.000011      0.000027      0.000000
     20 Si    c      -0.000118      0.000499     -0.001534      0.000000
     21 Si    c       0.000077      0.000138      0.000526      0.000000
     22 Si    c       0.000433     -0.000288      0.000809      0.000000
     23 Si    c       0.000283     -0.000421      0.000266      0.000000
     24 Si    c      -0.000046     -0.000084      0.000518      0.000000
     25 Si    c      -0.000156     -0.000261      0.001361      0.000000
     26 Si    c       0.000202     -0.000106     -0.000097      0.000000
     27 Si    c       0.000001     -0.000042      0.000122      0.000000
     28 Si    c      -0.000059      0.000022      0.000027      0.000000
     29 Si    c      -0.000169      0.000034     -0.000101      0.000000
     30 Si    c       0.000488      0.000030      0.000037      0.000000
     31 Si    c      -0.000125     -0.000220      0.000243      0.000000
     32 Si    c      -0.000188     -0.000380     -0.000017      0.000000
     33 Si    c       0.000008      0.000021      0.000005      0.000000
     34 Si    c       0.000671     -0.000337     -0.000357      0.000000
     35 Si    c       0.000043      0.000014      0.000220      0.000000
     36 Si    c       0.000037      0.000003     -0.000202      0.000000
     37 Ge    c      -0.000783     -0.001449      0.000187      0.000000
     38 Si    c      -0.000076      0.000051     -0.000210      0.000000
     39 Si    c       0.000092     -0.000121     -0.000214      0.000000
     40 Si    c      -0.000229      0.000131     -0.000262      0.000000
     41 Si    c      -0.000045      0.000069      0.000042      0.000000
     42 Si    c      -0.000149      0.000217      0.000045      0.000000
     43 Si    c       0.000078     -0.000136      0.000106      0.000000
     44 Si    c      -0.000896     -0.000016     -0.001666      0.000000
     45 Si    c      -0.000069      0.000018      0.000063      0.000000
     46 Si    c      -0.000034      0.000198      0.000155      0.000000
     47 Ge    c      -0.000304      0.000933      0.000878      0.000000
     48 Si    c       0.000009      0.000013      0.000180      0.000000
     49 Si    c       0.000848     -0.000353     -0.004288      0.000000
     50 Ge    c      -0.000383      0.000208      0.000324      0.000000
     51 Si    c      -0.000129     -0.000010      0.000187      0.000000
     52 Si    c      -0.000080      0.000112      0.001053      0.000000
     53 Si    c       0.000014     -0.000004     -0.000301      0.000000
     54 Si    c      -0.000160     -0.000236      0.001036      0.000000
     55 Si    c      -0.000177      0.000357     -0.000649      0.000000
     56 Si    c      -0.000663     -0.000201      0.002672      0.000000
     57 Si    c      -0.000031      0.000171      0.000432      0.000000
     58 Si    c       0.000172     -0.000222      0.001000      0.000000
     59 Si    c       0.000396     -0.000464     -0.000497      0.000000
     60 Si    c      -0.000409      0.000030      0.000637      0.000000
     61 O2    c       0.001941     -0.001602      0.000117      0.000000
     62 O3    c       0.000163     -0.000093      0.000280      0.000000
     63 O2    c       0.000325     -0.000240     -0.000828      0.000000
     64 O2    c       0.000360      0.000033      0.000221      0.000000
     65 O2    c      -0.000206      0.000109     -0.000030      0.000000
     66 O2    c      -0.000057     -0.000104     -0.000153      0.000000
     67 O2    c       0.000003     -0.000063      0.000141      0.000000
     68 O2    c       0.000032     -0.000234     -0.000296      0.000000
     69 O2    c       0.000976     -0.000519     -0.001481      0.000000
     70 O2    c      -0.000094      0.000106      0.000266      0.000000
     71 O2    c       0.000088      0.000139     -0.000489      0.000000
     72 O2    c      -0.000471      0.000268     -0.001049      0.000000
     73 O2    c       0.002730     -0.001025      0.000112      0.000000
     74 O2    c      -0.000213     -0.000032      0.000437      0.000000
     75 O2    c      -0.000020      0.000019     -0.000062      0.000000
     76 O2    c      -0.000489      0.000720      0.001408      0.000000
     77 O2    c      -0.000067      0.000071      0.000294      0.000000
     78 O2    c       0.000026     -0.000052      0.000220      0.000000
     79 O3    c       0.000078     -0.000647      0.000465      0.000000
     80 O3    c       0.000507     -0.000294     -0.000248      0.000000
     81 O2    c      -0.000010     -0.000252      0.000033      0.000000
     82 O2    c      -0.000173      0.000295      0.000038      0.000000
     83 O2    c      -0.000172      0.000170     -0.000212      0.000000
     84 O2    c       0.000074      0.000218      0.000190      0.000000
     85 O2    c      -0.000026     -0.000039      0.000007      0.000000
     86 O2    c       0.001349     -0.001103      0.000101      0.000000
     87 O2    c      -0.000074     -0.000062     -0.000090      0.000000
     88 O2    c       0.000027     -0.000026     -0.000019      0.000000
     89 O3    c      -0.000677      0.000583     -0.000142      0.000000
     90 O2    c       0.000173     -0.000025     -0.000090      0.000000
     91 O3    c       0.000962     -0.000500     -0.003859      0.000000
     92 O2    c       0.000174      0.000256      0.000050      0.000000
     93 O2    c      -0.000058      0.000614      0.001270      0.000000
     94 O2    c       0.000031      0.000077      0.000160      0.000000
     95 O2    c      -0.000017     -0.000408     -0.002556      0.000000
     96 O2    c       0.000303     -0.000449     -0.000123      0.000000
     97 O2    c      -0.002385      0.002569      0.001928      0.000000
     98 O3    c      -0.000002     -0.000213     -0.000349      0.000000
     99 O2    c       0.000137     -0.000110      0.000244      0.000000
    100 O2    c       0.000005     -0.000349     -0.000135      0.000000
    101 O2    c       0.000067     -0.000151     -0.000034      0.000000
    102 O2    c       0.000209      0.000004     -0.000087      0.000000
    103 O2    c       0.000145     -0.000141     -0.000173      0.000000
    104 O2    c      -0.001538     -0.000130     -0.001219      0.000000
    105 O2    c      -0.000029      0.000032      0.000020      0.000000
    106 O2    c      -0.000121      0.000018     -0.000036      0.000000
    107 O2    c       0.000027      0.000357     -0.000067      0.000000
    108 O2    c      -0.000005      0.000235     -0.000018      0.000000
    109 O2    c       0.000015     -0.000004      0.000148      0.000000
    110 O2    c      -0.000074     -0.000127      0.000162      0.000000
    111 O2    c       0.000043     -0.000216      0.000167      0.000000
    112 O2    c       0.000012      0.000013      0.000125      0.000000
    113 O2    c       0.000594      0.000196     -0.002382      0.000000
    114 O2    c      -0.000061      0.000063      0.000201      0.000000
    115 O3    c      -0.000659      0.000279     -0.001288      0.000000
    116 O2    c       0.000081     -0.000078     -0.000131      0.000000
    117 O2    c       0.000023      0.000063      0.000022      0.000000
    118 O2    c       0.000128     -0.000056     -0.000059      0.000000
    119 O2    c      -0.000025      0.000036      0.000020      0.000000
    120 O2    c       0.000014      0.000063      0.000231      0.000000
    121 O2    c      -0.000053      0.000001     -0.000085      0.000000
    122 O2    c       0.000198     -0.000164     -0.000399      0.000000
    123 O2    c       0.000001      0.000013     -0.000009      0.000000
    124 O2    c       0.000249     -0.000343     -0.000106      0.000000
    125 O3    c      -0.000131      0.000033     -0.000478      0.000000
    126 O2    c      -0.000087     -0.000036      0.000012      0.000000
    127 O2    c      -0.000734      0.000558      0.000449      0.000000
    128 O2    c       0.000023     -0.000126      0.000058      0.000000
    129 O2    c      -0.000033      0.000017     -0.000089      0.000000
    130 O2    c       0.000003      0.000019      0.000035      0.000000
    131 O2    c      -0.000045      0.000111      0.000150      0.000000
    132 O2    c       0.000011      0.000007      0.000107      0.000000
    133 O2    c      -0.000016      0.000026     -0.000025      0.000000
    134 O2    c       0.000049     -0.000013      0.000045      0.000000
    135 O2    c      -0.000005      0.000003      0.000008      0.000000
    136 O2    c       0.000009     -0.000011     -0.000016      0.000000
    137 O2    c      -0.000047     -0.000025     -0.000104      0.000000
    138 O2    c       0.000178     -0.000068     -0.000457      0.000000
    139 O2    c       0.000175     -0.000170      0.000106      0.000000
    140 O2    c       0.000024      0.000021      0.000123      0.000000
    141 O2    c       0.000036      0.000010     -0.000064      0.000000
    142 O3    c       0.000322     -0.000153     -0.000253      0.000000
    143 O2    c       0.000059      0.000026      0.000082      0.000000
    144 O2    c       0.000044     -0.000042     -0.000002      0.000000
    145 O2    c       0.000015      0.000001     -0.000108      0.000000
    146 O3    c       0.000376      0.000535     -0.000122      0.000000
    147 O2    c      -0.000033      0.000022      0.000013      0.000000
    148 O2    c       0.000052      0.000010     -0.000037      0.000000
    149 O2    c       0.000043     -0.000027      0.000165      0.000000
    150 O2    c       0.000121     -0.000029      0.000231      0.000000
    151 O3    c       0.001117      0.000675      0.003792      0.000000
    152 O2    c      -0.000084      0.000049     -0.000127      0.000000
    153 O2    c      -0.000019     -0.000022      0.000155      0.000000
    154 O2    c       0.000001     -0.000089      0.000155      0.000000
    155 O2    c       0.000009     -0.000001     -0.000150      0.000000
    156 O2    c       0.000086     -0.000050     -0.000105      0.000000
    157 O2    c      -0.000047     -0.000022     -0.000170      0.000000
    158 O2    c      -0.000086      0.000042      0.000173      0.000000
    159 O2    c       0.000017      0.000007      0.000086      0.000000
    160 O2    c       0.000016     -0.000229      0.001274      0.000000
    161 O3    c       0.000065     -0.000080     -0.000147      0.000000
    162 O2    c       0.000014     -0.000000     -0.000135      0.000000
    163 O2    c       0.000405     -0.000912     -0.000744      0.000000
    164 O2    c       0.000011     -0.000002     -0.000132      0.000000
    165 O2    c      -0.000053      0.000077     -0.000073      0.000000
    166 O2    c      -0.000154      0.000167     -0.000054      0.000000
    167 O2    c      -0.000002      0.000024     -0.000040      0.000000
    168 O2    c      -0.000223      0.000042      0.000211      0.000000
    169 O2    c       0.000074     -0.000048     -0.000046      0.000000
    170 O2    c      -0.000359     -0.000261      0.000599      0.000000
    171 O2    c       0.000010     -0.000008      0.000081      0.000000
    172 O2    c      -0.000061     -0.000012     -0.000074      0.000000
    173 O2    c       0.000115      0.000075      0.000108      0.000000
    174 O2    c      -0.000066      0.000074      0.000127      0.000000
    175 O2    c      -0.000016     -0.000002     -0.000146      0.000000
    176 O2    c       0.000022      0.000027     -0.000226      0.000000
    177 O2    c      -0.000247      0.000251      0.002482      0.000000
    178 O2    c       0.000011      0.000011     -0.000034      0.000000
    179 O2    c       0.000251     -0.000006     -0.000121      0.000000
    180 O2    c       0.000038     -0.000080      0.000417      0.000000
    181 F     c       0.000037      0.000023      0.000102      0.000000
    182 F     c       0.000317     -0.000269     -0.000491      0.000000
    183 F     c       0.000172      0.000668     -0.002320      0.000000
    184 F     c       0.000005      0.000041      0.000001      0.000000
    185 F     c       0.000347     -0.000287      0.001411      0.000000
    186 F     c      -0.000084     -0.000028     -0.000006      0.000000
    187 O2    s      -0.000353      0.000462     -0.000041      0.000000
    188 O3    s      -0.000234      0.000272      0.000261      0.000000
    189 O2    s      -0.000087     -0.000062      0.000271      0.000000
    190 O2    s       0.000486     -0.000337     -0.000198      0.000000
    191 O2    s       0.000296     -0.000002      0.000106      0.000000
    192 O2    s       0.000173     -0.000126      0.000303      0.000000
    193 O2    s       0.000013      0.000026     -0.000080      0.000000
    194 O2    s      -0.000036      0.000165     -0.000026      0.000000
    195 O2    s      -0.000570      0.000477      0.000699      0.000000
    196 O2    s       0.000013     -0.000019     -0.000244      0.000000
    197 O2    s      -0.000171     -0.000127      0.000178      0.000000
    198 O2    s       0.000060     -0.000037      0.000359      0.000000
    199 O2    s      -0.001711      0.000457      0.000887      0.000000
    200 O2    s       0.000098      0.000018     -0.000104      0.000000
    201 O2    s       0.000000     -0.000010      0.000068      0.000000
    202 O2    s       0.000278     -0.000412     -0.000402      0.000000
    203 O2    s       0.000054     -0.000132     -0.000385      0.000000
    204 O2    s      -0.000006      0.000016     -0.000152      0.000000
    205 O3    s       0.001185      0.001165     -0.000649      0.000000
    206 O3    s      -0.000473      0.000277      0.000393      0.000000
    207 O2    s      -0.000154      0.000103     -0.000023      0.000000
    208 O2    s      -0.000195      0.000035      0.000003      0.000000
    209 O2    s      -0.000047      0.000033      0.000137      0.000000
    210 O2    s       0.000059     -0.000001      0.000016      0.000000
    211 O2    s      -0.000128      0.000026      0.000120      0.000000
    212 O2    s       0.000664     -0.000554      0.000963      0.000000
    213 O2    s      -0.000089     -0.000009      0.000169      0.000000
    214 O2    s       0.000145     -0.000146     -0.000146      0.000000
    215 O3    s      -0.000045     -0.000321     -0.000045      0.000000
    216 O2    s      -0.000078      0.000080     -0.000209      0.000000
    217 O3    s      -0.000270      0.000095      0.001628      0.000000
    218 O2    s       0.000107     -0.000177     -0.000160      0.000000
    219 O2    s      -0.000283     -0.000316     -0.002905      0.000000
    220 O2    s       0.000143     -0.000023      0.000262      0.000000
    221 O2    s      -0.000311      0.000597      0.001966      0.000000
    222 O2    s      -0.000070      0.000376      0.000296      0.000000
    223 O2    s      -0.000367     -0.000172     -0.000823      0.000000
    224 O3    s      -0.000087      0.000057      0.000602      0.000000
    225 O2    s       0.000114      0.000011      0.000087      0.000000
    226 O2    s      -0.000008     -0.000018      0.000333      0.000000
    227 O2    s      -0.000058     -0.000088      0.000027      0.000000
    228 O2    s      -0.000304      0.000088      0.000350      0.000000
    229 O2    s       0.000210     -0.000064     -0.000111      0.000000
    230 O2    s      -0.000523      0.000397      0.000431      0.000000
    231 O2    s      -0.000077      0.000192      0.000094      0.000000
    232 O2    s      -0.000079      0.000049     -0.000053      0.000000
    233 O2    s      -0.000122     -0.000008      0.000116      0.000000
    234 O2    s       0.000063     -0.000002      0.000578      0.000000
    235 O2    s      -0.000017     -0.000008     -0.000167      0.000000
    236 O2    s       0.000105      0.000128      0.000143      0.000000
    237 O2    s      -0.000165      0.000237     -0.000132      0.000000
    238 O2    s      -0.000027      0.000032     -0.000284      0.000000
    239 O2    s      -0.001056     -0.000147      0.001178      0.000000
    240 O2    s       0.000109     -0.000036     -0.000022      0.000000
    241 O3    s       0.000907     -0.000426      0.002137      0.000000
    242 O2    s      -0.000040      0.000029      0.000203      0.000000
    243 O2    s      -0.000065      0.000050      0.000130      0.000000
    244 O2    s      -0.000092      0.000146      0.000041      0.000000
    245 O2    s       0.000020     -0.000003     -0.000018      0.000000
    246 O2    s       0.000247      0.000111     -0.000443      0.000000
    247 O2    s       0.000040     -0.000020     -0.000022      0.000000
    248 O2    s       0.000081     -0.000124      0.001496      0.000000
    249 O2    s       0.000082     -0.000020     -0.000118      0.000000
    250 O2    s      -0.000272      0.000145     -0.000503      0.000000
    251 O3    s       0.000220     -0.000109      0.000846      0.000000
    252 O2    s      -0.000025      0.000033     -0.000185      0.000000
    253 O2    s       0.000910     -0.000818     -0.000559      0.000000
    254 O2    s       0.000056     -0.000016     -0.000132      0.000000
    255 O2    s       0.000061     -0.000048      0.000167      0.000000
    256 O2    s       0.000049     -0.000013     -0.000039      0.000000
    257 O2    s       0.000018      0.000158     -0.000315      0.000000
    258 O2    s      -0.000057      0.000030     -0.000143      0.000000
    259 O2    s       0.000014     -0.000006      0.000111      0.000000
    260 O2    s      -0.000006      0.000025      0.000106      0.000000
    261 O2    s       0.000012     -0.000040     -0.000060      0.000000
    262 O2    s       0.000028     -0.000011      0.000049      0.000000
    263 O2    s       0.000067      0.000109     -0.000009      0.000000
    264 O2    s      -0.000652      0.000288      0.001449      0.000000
    265 O2    s       0.000438     -0.000135      0.001145      0.000000
    266 O2    s      -0.000018     -0.000067     -0.000212      0.000000
    267 O2    s      -0.000111      0.000016      0.000123      0.000000
    268 O3    s      -0.000456      0.000241      0.000209      0.000000
    269 O2    s      -0.000056     -0.000026     -0.000181      0.000000
    270 O2    s      -0.000015     -0.000003     -0.000116      0.000000
    271 O2    s       0.000010      0.000027      0.000199      0.000000
    272 O3    s      -0.000594     -0.000158      0.001688      0.000000
    273 O2    s       0.000042     -0.000001      0.000011      0.000000
    274 O2    s      -0.000102      0.000033      0.000065      0.000000
    275 O2    s      -0.000063     -0.000066     -0.000023      0.000000
    276 O2    s      -0.000147     -0.000285     -0.000482      0.000000
    277 O3    s      -0.001492     -0.000761     -0.003514      0.000000
    278 O2    s       0.000121     -0.000050      0.000205      0.000000
    279 O2    s       0.000023     -0.000001     -0.000081      0.000000
    280 O2    s      -0.000005      0.000092      0.000047      0.000000
    281 O2    s       0.000027      0.000011      0.000049      0.000000
    282 O2    s      -0.000453      0.000418     -0.000131      0.000000
    283 O2    s       0.000131      0.000027      0.000149      0.000000
    284 O2    s       0.000474     -0.000422     -0.001013      0.000000
    285 O2    s       0.000002      0.000022     -0.000186      0.000000
    286 O2    s      -0.000190      0.000325     -0.000693      0.000000
    287 O3    s      -0.000121      0.000116     -0.000507      0.000000
    288 O2    s      -0.000011     -0.000021      0.000113      0.000000
    289 O2    s      -0.000647      0.000425      0.000232      0.000000
    290 O2    s       0.000035      0.000017      0.000227      0.000000
    291 O2    s       0.000022     -0.000091      0.000180      0.000000
    292 O2    s       0.000105      0.000091      0.000390      0.000000
    293 O2    s      -0.000020     -0.000023      0.000055      0.000000
    294 O2    s       0.000630     -0.000110     -0.001148      0.000000
    295 O2    s      -0.000072      0.000027      0.000108      0.000000
    296 O2    s       0.000504     -0.000009     -0.000407      0.000000
    297 O2    s      -0.000035      0.000045     -0.000204      0.000000
    298 O2    s       0.000344      0.000047      0.000261      0.000000
    299 O2    s      -0.000223      0.000101     -0.000511      0.000000
    300 O2    s       0.000019     -0.000016     -0.000033      0.000000
    301 O2    s       0.000013     -0.000054      0.000160      0.000000
    302 O2    s      -0.000007     -0.000100     -0.000097      0.000000
    303 O2    s      -0.000625      0.000070     -0.002946      0.000000
    304 O2    s      -0.000025      0.000070      0.000160      0.000000
    305 O2    s      -0.001002      0.000048      0.000157      0.000000
    306 O2    s      -0.000041      0.000115     -0.000362      0.000000
    307 F     s      -0.000017      0.000002     -0.000192      0.000000
    308 F     s      -0.000148     -0.000466     -0.000240      0.000000
    309 F     s       0.001216      0.000234      0.000368      0.000000
    310 F     s      -0.000004     -0.000091     -0.000046      0.000000
    311 F     s       0.000011      0.000507     -0.003045      0.000000
    312 F     s       0.000109      0.000014      0.000147      0.000000
--------------------------------------------------------------------------------
  Maximum abs         0.002730      0.002569      0.004595      0.000000
--------------------------------------------------------------------------------


  Time to end of optimisation =       7.4384 seconds


  Peak dynamic memory used =      19.13 MB 


  Timing analysis for GULP :

--------------------------------------------------------------------------------
  Task / Subroutine                                          Time (Seconds)
--------------------------------------------------------------------------------
  Calculation of reciprocal space energy and derivatives          0.2958
  Calculation of real space energy and derivatives                6.2235
  Calculation of three-body energy and derivatives                0.6915
  Calculation of matrix inversion                                 0.1920
--------------------------------------------------------------------------------
  Total CPU time                                                  7.4384
--------------------------------------------------------------------------------


  Dump file written as out.res                                                 
  CIF file written as out.cif                                                 


  Job Finished at 02:04.09 26th November   2016                               

