********************************************************************************
*                       GENERAL UTILITY LATTICE PROGRAM                        *
*                                 Julian Gale                                  *
*                      Nanochemistry Research Institute                        *
*                           Department of Chemistry                            *
*                    Curtin University, Western Australia                      *
********************************************************************************
* Version = 4.2.0 * Last modified =  20th January 2014                         *
********************************************************************************
*  optimise     - perform optimisation run                                     *
*  conp         - constant pressure calculation                                *
*  qok          - running with non charge neutral cell is OK                   *
********************************************************************************

  Job Started  at 16:30.21 21st October    2016                               

  Number of CPUs =     1


  Total number of configurations input =   1

********************************************************************************
*  Input for Configuration =   1                                               *
********************************************************************************

  Formula = Ge2Si58O120F6                                               

  Number of irreducible atoms/shells =     312


  Total number atoms/shells =     312

  Dimensionality = 3               :  Bulk   


  Charge on solid   =  -6.000000 =>neutralising background added


  Cartesian lattice vectors (Angstroms) :

       11.966200    0.000000    0.000000
       -6.072361   10.343760    0.000000
       -0.064684   -0.087731   29.453267

  Cell parameters (Angstroms/Degrees):

  a =      11.9662    alpha =  90.0835
  b =      11.9945    beta  =  90.1258
  c =      29.4535    gamma = 120.4153

  Initial cell volume =        3645.593069 Angs**3

  Temperature of configuration =  0.000     K 

  Pressure of configuration =         0.000 GPa 

  Fractional coordinates of asymmetric unit :

--------------------------------------------------------------------------------
   No.  Atomic       x           y          z         Charge      Occupancy
        Label      (Frac)      (Frac)     (Frac)        (e)         (Frac)  
--------------------------------------------------------------------------------
      1 Ge    c    0.699600    0.375700    0.033890     4.00000    1.000000    
      2 Si    c    0.615645 *  0.317830 *  0.365055 *   4.00000    1.000000    
      3 Si    c    0.675834 *  0.298227 *  0.698732 *   4.00000    1.000000    
      4 Si    c    0.287532 *  0.616941 *  0.526161 *   4.00000    1.000000    
      5 Si    c    0.376049 *  0.685592 *  0.860932 *   4.00000    1.000000    
      6 Si    c    0.313146 *  0.700714 *  0.195721 *   4.00000    1.000000    
      7 Si    c    0.367001 *  0.693006 *  0.295955 *   4.00000    1.000000    
      8 Si    c    0.320040 *  0.626883 *  0.962055 *   4.00000    1.000000    
      9 Si    c    0.295916 *  0.676070 *  0.626695 *   4.00000    1.000000    
     10 Si    c    0.622284 *  0.300972 *  0.800942 *   4.00000    1.000000    
     11 Si    c    0.668081 *  0.377696 *  0.465537 *   4.00000    1.000000    
     12 Si    c    0.680822 *  0.315246 *  0.132484 *   4.00000    1.000000    
     13 Si    c    0.531389 *  0.423110 *  0.966644 *   4.00000    1.000000    
     14 Si    c    0.575373 *  0.103284 *  0.302259 *   4.00000    1.000000    
     15 Si    c    0.885194 *  0.468545 *  0.632059 *   4.00000    1.000000    
     16 Si    c    0.459780 *  0.579383 *  0.461430 *   4.00000    1.000000    
     17 Ge    c    0.430579 *  0.904721 *  0.793993 *   4.00000    1.000000    
     18 Si    c    0.102757 *  0.531705 *  0.128179 *   4.00000    1.000000    
     19 Si    c    0.408762 *  0.522124 *  0.359830 *   4.00000    1.000000    
     20 Si    c    0.101415 *  0.582700 *  0.024895 *   4.00000    1.000000    
     21 Si    c    0.465737 *  0.876883 *  0.694671 *   4.00000    1.000000    
     22 Si    c    0.581870 *  0.475840 *  0.864504 *   4.00000    1.000000    
     23 Si    c    0.877612 *  0.413327 *  0.530593 *   4.00000    1.000000    
     24 Si    c    0.523172 *  0.109164 *  0.201031 *   4.00000    1.000000    
     25 Si    c    0.301756 *  0.406098 *  0.848949 *   4.00000    1.000000    
     26 Si    c    0.594552 *  0.902345 *  0.183214 *   4.00000    1.000000    
     27 Si    c    0.085940 *  0.694167 *  0.514280 *   4.00000    1.000000    
     28 Si    c    0.690859 *  0.593926 *  0.347943 *   4.00000    1.000000    
     29 Si    c    0.393347 *  0.091171 *  0.682859 *   4.00000    1.000000    
     30 Si    c    0.887464 *  0.293110 *  0.010362 *   4.00000    1.000000    
     31 Si    c    0.388384 *  0.299981 *  0.477993 *   4.00000    1.000000    
     32 Si    c    0.887715 *  0.601531 *  0.141904 *   4.00000    1.000000    
     33 Si    c    0.704604 *  0.100005 *  0.817816 *   4.00000    1.000000    
     34 Si    c    0.597906 *  0.704052 *  0.977972 *   4.00000    1.000000    
     35 Si    c    0.094840 *  0.397810 *  0.644168 *   4.00000    1.000000    
     36 Si    c    0.291822 *  0.893206 *  0.313882 *   4.00000    1.000000    
     37 Si    c    0.252463 *  0.347705 *  0.949022 *   4.00000    1.000000    
     38 Si    c    0.650998 *  0.902591 *  0.283966 *   4.00000    1.000000    
     39 Si    c    0.085821 *  0.747900 *  0.615125 *   4.00000    1.000000    
     40 Si    c    0.739541 *  0.657195 *  0.448440 *   4.00000    1.000000    
     41 Si    c    0.333236 *  0.086119 *  0.784970 *   4.00000    1.000000    
     42 Si    c    0.897193 *  0.248590 *  0.113503 *   4.00000    1.000000    
     43 Si    c    0.333039 *  0.244717 *  0.377266 *   4.00000    1.000000    
     44 Si    c    0.896496 *  0.661256 *  0.039273 *   4.00000    1.000000    
     45 Si    c    0.746719 *  0.084315 *  0.714617 *   4.00000    1.000000    
     46 Si    c    0.657293 *  0.754382 *  0.877329 *   4.00000    1.000000    
     47 Si    c    0.078832 *  0.335704 *  0.543493 *   4.00000    1.000000    
     48 Si    c    0.241636 *  0.907809 *  0.213460 *   4.00000    1.000000    
     49 Si    c    0.975850 *  0.124584 *  0.964273 *   4.00000    1.000000    
     50 Si    c    0.869755 *  0.841433 *  0.297495 *   4.00000    1.000000    
     51 Si    c    0.146789 *  0.027688 *  0.631177 *   4.00000    1.000000    
     52 Si    c    0.019719 *  0.875675 *  0.464210 *   4.00000    1.000000    
     53 Si    c    0.122575 *  0.159190 *  0.797713 *   4.00000    1.000000    
     54 Si    c    0.842448 *  0.972487 *  0.131424 *   4.00000    1.000000    
     55 Si    c    0.113756 *  0.963802 *  0.363104 *   4.00000    1.000000    
     56 Si    c    0.846447 *  0.884796 *  0.029853 *   4.00000    1.000000    
     57 Si    c    0.028525 *  0.152251 *  0.696315 *   4.00000    1.000000    
     58 Si    c    0.884943 *  0.032635 *  0.864169 *   4.00000    1.000000    
     59 Si    c    0.141895 *  0.119190 *  0.529998 *   4.00000    1.000000    
     60 Si    c    0.962950 *  0.849834 *  0.195831 *   4.00000    1.000000    
     61 O2    c    0.932601 *  0.011494 *  0.000560 *   0.87073    1.000000    
     62 O2    c    0.992779 *  0.921939 *  0.329891 *   0.87073    1.000000    
     63 O2    c    0.066870 *  0.068386 *  0.664129 *   0.87073    1.000000    
     64 O2    c    0.062391 *  0.995497 *  0.497925 *   0.87073    1.000000    
     65 O2    c    0.001744 *  0.072275 *  0.829640 *   0.87073    1.000000    
     66 O2    c    0.925860 *  0.936366 *  0.164860 *   0.87073    1.000000    
     67 O2    c    0.329873 *  0.567052 *  0.326911 *   0.87073    1.000000    
     68 O2    c    0.424944 *  0.764387 *  0.656481 *   0.87073    1.000000    
     69 O2    c    0.229386 *  0.660599 *  0.994023 *   0.87073    1.000000    
     70 O2    c    0.658555 *  0.424953 *  0.832353 *   0.87073    1.000000    
     71 O2    c    0.573801 *  0.238721 *  0.171417 *   0.87073    1.000000    
     72 O2    c    0.749203 *  0.337445 *  0.499113 *   0.87073    1.000000    
     73 O3    c    0.567413 *  0.340385 *  0.998588 *   1.33043    1.000000    
     74 O2    c    0.761545 *  0.419525 *  0.665780 *   0.87073    1.000000    
     75 O2    c    0.653802 *  0.228743 *  0.334862 *   0.87073    1.000000    
     76 O2    c    0.408799 *  0.656154 *  0.492529 *   0.87073    1.000000    
     77 O2    c    0.227612 *  0.581348 *  0.161053 *   0.87073    1.000000    
     78 O3    c    0.340566 *  0.767292 *  0.828907 *   1.33043    1.000000    
     79 O2    c    0.128889 *  0.220052 *  0.970385 *   0.87073    1.000000    
     80 O2    c    0.776940 *  0.901813 *  0.304004 *   0.87073    1.000000    
     81 O2    c    0.084578 *  0.873132 *  0.635486 *   0.87073    1.000000    
     82 O2    c    0.864625 *  0.785671 *  0.468794 *   0.87073    1.000000    
     83 O2    c    0.214745 *  0.099690 *  0.803483 *   0.87073    1.000000    
     84 O2    c    0.902337 *  0.126943 *  0.135048 *   0.87073    1.000000    
     85 O2    c    0.207645 *  0.117499 *  0.356573 *   0.87073    1.000000    
     86 O2    c    0.913350 *  0.798564 *  0.023396 *   0.87073    1.000000    
     87 O2    c    0.873578 *  0.090225 *  0.692533 *   0.87073    1.000000    
     88 O2    c    0.785187 *  0.880277 *  0.856969 *   0.87073    1.000000    
     89 O2    c    0.075976 *  0.207318 *  0.524193 *   0.87073    1.000000    
     90 O2    c    0.117860 *  0.911648 *  0.192830 *   0.87073    1.000000    
     91 O2    c    0.919502 *  0.855658 *  0.246524 *   0.87073    1.000000    
     92 O2    c    0.134013 *  0.069723 *  0.580870 *   0.87073    1.000000    
     93 O2    c    0.940992 *  0.061603 *  0.914708 *   0.87073    1.000000    
     94 O2    c    0.070940 *  0.144098 *  0.746678 *   0.87073    1.000000    
     95 O2    c    0.853912 *  0.928781 *  0.081662 *   0.87073    1.000000    
     96 O2    c    0.061234 *  0.930469 *  0.413936 *   0.87073    1.000000    
     97 O2    c    0.901611 *  0.203161 *  0.972646 *   0.87073    1.000000    
     98 O2    c    0.789800 *  0.689326 *  0.309338 *   0.87073    1.000000    
     99 O2    c    0.298887 *  0.095524 *  0.643977 *   0.87073    1.000000    
    100 O2    c    0.086581 *  0.791387 *  0.475881 *   0.87073    1.000000    
    101 O2    c    0.202217 *  0.310510 *  0.809896 *   0.87073    1.000000    
    102 O2    c    0.690907 *  0.901844 *  0.144712 *   0.87073    1.000000    
    103 O2    c    0.193272 *  0.890888 *  0.352369 *   0.87073    1.000000    
    104 O2    c    0.695311 *  0.805254 *  0.016256 *   0.87073    1.000000    
    105 O2    c    0.099559 *  0.302673 *  0.682186 *   0.87073    1.000000    
    106 O2    c    0.815148 *  0.115545 *  0.853799 *   0.87073    1.000000    
    107 O2    c    0.293019 *  0.203849 *  0.517033 *   0.87073    1.000000    
    108 O2    c    0.892039 *  0.700246 *  0.180559 *   0.87073    1.000000    
    109 O2    c    0.310549 *  0.638138 *  0.245156 *   0.87073    1.000000    
    110 O2    c    0.348539 *  0.673754 *  0.576014 *   0.87073    1.000000    
    111 O2    c    0.320863 *  0.683905 *  0.912164 *   0.87073    1.000000    
    112 O2    c    0.673407 *  0.349647 *  0.749334 *   0.87073    1.000000    
    113 O3    c    0.610349 *  0.301789 *  0.085314 *   1.33043    1.000000    
    114 O2    c    0.671532 *  0.320552 *  0.415699 *   0.87073    1.000000    
    115 O2    c    0.373423 *  0.338122 *  0.967523 *   0.87073    1.000000    
    116 O2    c    0.661972 *  0.033875 *  0.303962 *   0.87073    1.000000    
    117 O2    c    0.954880 *  0.624951 *  0.634940 *   0.87073    1.000000    
    118 O2    c    0.616496 *  0.667879 *  0.465367 *   0.87073    1.000000    
    119 O3    c    0.314492 *  0.955089 *  0.803743 *   1.33043    1.000000    
    120 O2    c    0.029421 *  0.375686 *  0.130269 *   0.87073    1.000000    
    121 O2    c    0.322480 *  0.365291 *  0.357710 *   0.87073    1.000000    
    122 O2    c    0.030460 *  0.667015 *  0.023840 *   0.87073    1.000000    
    123 O2    c    0.624812 *  0.952884 *  0.695134 *   0.87073    1.000000    
    124 O2    c    0.669237 *  0.632026 *  0.859908 *   0.87073    1.000000    
    125 O2    c    0.944222 *  0.324383 *  0.526693 *   0.87073    1.000000    
    126 O2    c    0.366638 *  0.040512 *  0.196598 *   0.87073    1.000000    
    127 O3    c    0.752306 *  0.282688 *  0.001935 *   1.33043    1.000000    
    128 O2    c    0.691174 *  0.459814 *  0.341492 *   0.87073    1.000000    
    129 O2    c    0.530563 *  0.224789 *  0.677974 *   0.87073    1.000000    
    130 O2    c    0.218465 *  0.692463 *  0.505309 *   0.87073    1.000000    
    131 O2    c    0.302249 *  0.538645 *  0.840327 *   0.87073    1.000000    
    132 O2    c    0.457591 *  0.770522 *  0.174029 *   0.87073    1.000000    
    133 O2    c    0.290360 *  0.757959 *  0.319475 *   0.87073    1.000000    
    134 O2    c    0.462985 *  0.703316 *  0.985575 *   0.87073    1.000000    
    135 O2    c    0.228551 *  0.534142 *  0.650340 *   0.87073    1.000000    
    136 O2    c    0.699902 *  0.233486 *  0.820878 *   0.87073    1.000000    
    137 O2    c    0.523221 *  0.302799 *  0.486841 *   0.87073    1.000000    
    138 O2    c    0.756254 *  0.465589 *  0.150510 *   0.87073    1.000000    
    139 O3    c    0.771059 *  0.546057 *  0.018155 *   1.33043    1.000000    
    140 O2    c    0.459212 *  0.243075 *  0.359126 *   0.87073    1.000000    
    141 O2    c    0.739284 *  0.207856 *  0.697339 *   0.87073    1.000000    
    142 O2    c    0.203058 *  0.460346 *  0.521960 *   0.87073    1.000000    
    143 O2    c    0.533636 *  0.754805 *  0.856494 *   0.87073    1.000000    
    144 O2    c    0.237696 *  0.781149 *  0.192636 *   0.87073    1.000000    
    145 O2    c    0.523553 *  0.774745 *  0.302018 *   0.87073    1.000000    
    146 O2    c    0.245893 *  0.470919 *  0.967907 *   0.87073    1.000000    
    147 O2    c    0.215036 *  0.750996 *  0.632740 *   0.87073    1.000000    
    148 O2    c    0.467330 *  0.209931 *  0.803094 *   0.87073    1.000000    
    149 O2    c    0.741581 *  0.534203 *  0.469656 *   0.87073    1.000000    
    150 O2    c    0.773637 *  0.251380 *  0.133346 *   0.87073    1.000000    
    151 O2    c    0.229009 *  0.328542 *  0.894705 *   0.87073    1.000000    
    152 O2    c    0.668078 *  0.903491 *  0.229569 *   0.87073    1.000000    
    153 O2    c    0.083756 *  0.765217 *  0.560792 *   0.87073    1.000000    
    154 O2    c    0.761187 *  0.671927 *  0.394120 *   0.87073    1.000000    
    155 O2    c    0.322703 *  0.086888 *  0.729682 *   0.87073    1.000000    
    156 O2    c    0.893873 *  0.231545 *  0.059290 *   0.87073    1.000000    
    157 O2    c    0.314102 *  0.227251 *  0.431642 *   0.87073    1.000000    
    158 O2    c    0.888835 *  0.668258 *  0.094724 *   0.87073    1.000000    
    159 O2    c    0.762870 *  0.086800 *  0.768837 *   0.87073    1.000000    
    160 O2    c    0.673793 *  0.775009 *  0.931774 *   0.87073    1.000000    
    161 O2    c    0.086962 *  0.321993 *  0.597710 *   0.87073    1.000000    
    162 O2    c    0.222246 *  0.902273 *  0.267864 *   0.87073    1.000000    
    163 O2    c    0.584713 *  0.566446 *  0.988461 *   0.87073    1.000000    
    164 O2    c    0.432900 *  0.016467 *  0.324585 *   0.87073    1.000000    
    165 O2    c    0.968395 *  0.409592 *  0.654231 *   0.87073    1.000000    
    166 O2    c    0.401398 *  0.439233 *  0.485470 *   0.87073    1.000000    
    167 O3    c    0.572507 *  0.975730 *  0.829943 *   1.33043    1.000000    
    168 O2    c    0.011651 *  0.583511 *  0.147863 *   0.87073    1.000000    
    169 O2    c    0.551372 *  0.579004 *  0.337626 *   0.87073    1.000000    
    170 O2    c    0.009421 *  0.439600 *  0.004482 *   0.87073    1.000000    
    171 O2    c    0.413103 *  0.969935 *  0.674827 *   0.87073    1.000000    
    172 O2    c    0.440165 *  0.415571 *  0.840693 *   0.87073    1.000000    
    173 O2    c    0.959483 *  0.553709 *  0.506536 *   0.87073    1.000000    
    174 O2    c    0.582725 *  0.029385 *  0.176385 *   0.87073    1.000000    
    175 O2    c    0.575253 *  0.158783 *  0.252136 *   0.87073    1.000000    
    176 O2    c    0.826667 *  0.413765 *  0.581778 *   0.87073    1.000000    
    177 O2    c    0.585231 *  0.425994 *  0.915248 *   0.87073    1.000000    
    178 O3    c    0.408709 *  0.813141 *  0.742297 *   1.33043    1.000000    
    179 O2    c    0.147678 *  0.579127 *  0.076762 *   0.87073    1.000000    
    180 O2    c    0.408146 *  0.577393 *  0.410221 *   0.87073    1.000000    
    181 F     c    0.441241 *  0.896497 *  0.248458 *   0.56000    1.000000    
    182 F     c    0.087533 *  0.544295 *  0.579321 *   0.56000    1.000000    
    183 F     c    0.450223 *  0.553614 *  0.913423 *   0.56000    1.000000    
    184 F     c    0.523467 *  0.051841 *  0.757239 *   0.56000    1.000000    
    185 F     c    0.849117 *  0.434053 *  0.069814 *   0.56000    1.000000    
    186 F     c    0.540878 *  0.448622 *  0.412835 *   0.56000    1.000000    
    187 O2    s    0.927627 *  0.009846 *  0.999792 *  -2.87073    1.000000    
    188 O2    s    0.992546 *  0.917598 *  0.329986 *  -2.87073    1.000000    
    189 O2    s    0.071544 *  0.073016 *  0.663978 *  -2.87073    1.000000    
    190 O2    s    0.066523 *  0.995946 *  0.497748 *  -2.87073    1.000000    
    191 O2    s    0.002226 *  0.077675 *  0.829918 *  -2.87073    1.000000    
    192 O2    s    0.920873 *  0.930739 *  0.164643 *  -2.87073    1.000000    
    193 O2    s    0.341764 *  0.575334 *  0.327111 *  -2.87073    1.000000    
    194 O2    s    0.415544 *  0.766483 *  0.657194 *  -2.87073    1.000000    
    195 O2    s    0.224806 *  0.649024 *  0.994134 *  -2.87073    1.000000    
    196 O2    s    0.647165 *  0.416703 *  0.832135 *  -2.87073    1.000000    
    197 O2    s    0.579572 *  0.232882 *  0.170506 *  -2.87073    1.000000    
    198 O2    s    0.754122 *  0.349491 *  0.498892 *  -2.87073    1.000000    
    199 O3    s    0.573459 *  0.351697 *  0.997862 *  -3.33043    1.000000    
    200 O2    s    0.765016 *  0.411676 *  0.665853 *  -2.87073    1.000000    
    201 O2    s    0.641786 *  0.224941 *  0.334607 *  -2.87073    1.000000    
    202 O2    s    0.401484 *  0.644134 *  0.492808 *  -2.87073    1.000000    
    203 O2    s    0.223191 *  0.588261 *  0.161136 *  -2.87073    1.000000    
    204 O3    s    0.350735 *  0.767933 *  0.829969 *  -3.33043    1.000000    
    205 O2    s    0.124695 *  0.222636 *  0.967545 *  -2.87073    1.000000    
    206 O2    s    0.773684 *  0.895485 *  0.301257 *  -2.87073    1.000000    
    207 O2    s    0.091297 *  0.876571 *  0.632952 *  -2.87073    1.000000    
    208 O2    s    0.868238 *  0.781978 *  0.466221 *  -2.87073    1.000000    
    209 O2    s    0.217465 *  0.104941 *  0.800802 *  -2.87073    1.000000    
    210 O2    s    0.895471 *  0.123250 *  0.132455 *  -2.87073    1.000000    
    211 O2    s    0.210696 *  0.114349 *  0.359403 *  -2.87073    1.000000    
    212 O2    s    0.904402 *  0.793782 *  0.025706 *  -2.87073    1.000000    
    213 O2    s    0.876879 *  0.096223 *  0.695209 *  -2.87073    1.000000    
    214 O2    s    0.782833 *  0.883772 *  0.859786 *  -2.87073    1.000000    
    215 O2    s    0.083206 *  0.211208 *  0.526766 *  -2.87073    1.000000    
    216 O2    s    0.114168 *  0.904642 *  0.195273 *  -2.87073    1.000000    
    217 O2    s    0.918764 *  0.853386 *  0.246589 *  -2.87073    1.000000    
    218 O2    s    0.136308 *  0.070537 *  0.580807 *  -2.87073    1.000000    
    219 O2    s    0.938571 *  0.065397 *  0.914562 *  -2.87073    1.000000    
    220 O2    s    0.071757 *  0.146730 *  0.746514 *  -2.87073    1.000000    
    221 O2    s    0.851745 *  0.929025 *  0.081728 *  -2.87073    1.000000    
    222 O2    s    0.062456 *  0.928029 *  0.413880 *  -2.87073    1.000000    
    223 O2    s    0.908148 *  0.204152 *  0.975708 *  -2.87073    1.000000    
    224 O2    s    0.788200 *  0.695746 *  0.312019 *  -2.87073    1.000000    
    225 O2    s    0.292519 *  0.087959 *  0.646581 *  -2.87073    1.000000    
    226 O2    s    0.079373 *  0.790361 *  0.478592 *  -2.87073    1.000000    
    227 O2    s    0.203448 *  0.303524 *  0.812454 *  -2.87073    1.000000    
    228 O2    s    0.696948 *  0.909363 *  0.147304 *  -2.87073    1.000000    
    229 O2    s    0.194884 *  0.898750 *  0.349598 *  -2.87073    1.000000    
    230 O2    s    0.701805 *  0.803689 *  0.013891 *  -2.87073    1.000000    
    231 O2    s    0.091516 *  0.296527 *  0.679738 *  -2.87073    1.000000    
    232 O2    s    0.811301 *  0.105442 *  0.851253 *  -2.87073    1.000000    
    233 O2    s    0.286609 *  0.204675 *  0.514395 *  -2.87073    1.000000    
    234 O2    s    0.899182 *  0.706093 *  0.178210 *  -2.87073    1.000000    
    235 O2    s    0.316499 *  0.650040 *  0.245258 *  -2.87073    1.000000    
    236 O2    s    0.336723 *  0.668050 *  0.576069 *  -2.87073    1.000000    
    237 O2    s    0.326160 *  0.678058 *  0.912445 *  -2.87073    1.000000    
    238 O2    s    0.668578 *  0.339416 *  0.749164 *  -2.87073    1.000000    
    239 O3    s    0.623428 *  0.307974 *  0.086806 *  -3.33043    1.000000    
    240 O2    s    0.665400 *  0.326174 *  0.415586 *  -2.87073    1.000000    
    241 O2    s    0.375936 *  0.347821 *  0.965352 *  -2.87073    1.000000    
    242 O2    s    0.651894 *  0.027316 *  0.301694 *  -2.87073    1.000000    
    243 O2    s    0.961248 *  0.621487 *  0.632573 *  -2.87073    1.000000    
    244 O2    s    0.613191 *  0.657592 *  0.463171 *  -2.87073    1.000000    
    245 O3    s    0.324324 *  0.965933 *  0.801018 *  -3.33043    1.000000    
    246 O2    s    0.023345 *  0.378841 *  0.128301 *  -2.87073    1.000000    
    247 O2    s    0.332496 *  0.368824 *  0.359992 *  -2.87073    1.000000    
    248 O2    s    0.024560 *  0.657537 *  0.025502 *  -2.87073    1.000000    
    249 O2    s    0.622267 *  0.959452 *  0.697176 *  -2.87073    1.000000    
    250 O2    s    0.659002 *  0.628439 *  0.862171 *  -2.87073    1.000000    
    251 O2    s    0.951433 *  0.334682 *  0.528858 *  -2.87073    1.000000    
    252 O2    s    0.369483 *  0.033431 *  0.198867 *  -2.87073    1.000000    
    253 O3    s    0.763177 *  0.289915 *  0.005006 *  -3.33043    1.000000    
    254 O2    s    0.683380 *  0.459269 *  0.344617 *  -2.87073    1.000000    
    255 O2    s    0.531486 *  0.218561 *  0.680670 *  -2.87073    1.000000    
    256 O2    s    0.211601 *  0.684821 *  0.508445 *  -2.87073    1.000000    
    257 O2    s    0.309561 *  0.538794 *  0.843364 *  -2.87073    1.000000    
    258 O2    s    0.456916 *  0.777049 *  0.177270 *  -2.87073    1.000000    
    259 O2    s    0.298312 *  0.765457 *  0.316455 *  -2.87073    1.000000    
    260 O2    s    0.462280 *  0.695612 *  0.982376 *  -2.87073    1.000000    
    261 O2    s    0.221221 *  0.534188 *  0.647229 *  -2.87073    1.000000    
    262 O2    s    0.692277 *  0.227119 *  0.818456 *  -2.87073    1.000000    
    263 O2    s    0.523939 *  0.310279 *  0.483656 *  -2.87073    1.000000    
    264 O2    s    0.762935 *  0.465459 *  0.147796 *  -2.87073    1.000000    
    265 O3    s    0.780757 *  0.548405 *  0.021415 *  -3.33043    1.000000    
    266 O2    s    0.461869 *  0.251142 *  0.361679 *  -2.87073    1.000000    
    267 O2    s    0.733122 *  0.204341 *  0.699338 *  -2.87073    1.000000    
    268 O2    s    0.198316 *  0.463165 *  0.524690 *  -2.87073    1.000000    
    269 O2    s    0.531652 *  0.747656 *  0.859219 *  -2.87073    1.000000    
    270 O2    s    0.246043 *  0.786363 *  0.195173 *  -2.87073    1.000000    
    271 O2    s    0.521089 *  0.780207 *  0.299459 *  -2.87073    1.000000    
    272 O2    s    0.254329 *  0.474025 *  0.965326 *  -2.87073    1.000000    
    273 O2    s    0.209210 *  0.742897 *  0.630242 *  -2.87073    1.000000    
    274 O2    s    0.470471 *  0.206976 *  0.800995 *  -2.87073    1.000000    
    275 O2    s    0.733576 *  0.531118 *  0.466963 *  -2.87073    1.000000    
    276 O2    s    0.778009 *  0.257533 *  0.131074 *  -2.87073    1.000000    
    277 O2    s    0.238960 *  0.338553 *  0.895627 *  -2.87073    1.000000    
    278 O2    s    0.658533 *  0.903268 *  0.230491 *  -2.87073    1.000000    
    279 O2    s    0.084186 *  0.755938 *  0.561682 *  -2.87073    1.000000    
    280 O2    s    0.751569 *  0.662237 *  0.395045 *  -2.87073    1.000000    
    281 O2    s    0.331414 *  0.087247 *  0.730102 *  -2.87073    1.000000    
    282 O2    s    0.893581 *  0.239401 *  0.060379 *  -2.87073    1.000000    
    283 O2    s    0.323874 *  0.236712 *  0.430765 *  -2.87073    1.000000    
    284 O2    s    0.889399 *  0.660129 *  0.094533 *  -2.87073    1.000000    
    285 O2    s    0.755463 *  0.087747 *  0.767640 *  -2.87073    1.000000    
    286 O2    s    0.664169 *  0.765466 *  0.930871 *  -2.87073    1.000000    
    287 O2    s    0.086919 *  0.331448 *  0.596806 *  -2.87073    1.000000    
    288 O2    s    0.231518 *  0.901916 *  0.266890 *  -2.87073    1.000000    
    289 O2    s    0.580491 *  0.566958 *  0.985089 *  -2.87073    1.000000    
    290 O2    s    0.432643 *  0.012126 *  0.321105 *  -2.87073    1.000000    
    291 O2    s    0.973203 *  0.414629 *  0.650838 *  -2.87073    1.000000    
    292 O2    s    0.406248 *  0.438836 *  0.482149 *  -2.87073    1.000000    
    293 O3    s    0.577482 *  0.984798 *  0.826237 *  -3.33043    1.000000    
    294 O2    s    0.008065 *  0.579790 *  0.145119 *  -2.87073    1.000000    
    295 O2    s    0.551413 *  0.574476 *  0.341060 *  -2.87073    1.000000    
    296 O2    s    0.006670 *  0.440035 *  0.007292 *  -2.87073    1.000000    
    297 O2    s    0.416213 *  0.974317 *  0.677677 *  -2.87073    1.000000    
    298 O2    s    0.440293 *  0.420908 *  0.844011 *  -2.87073    1.000000    
    299 O2    s    0.964792 *  0.554254 *  0.509889 *  -2.87073    1.000000    
    300 O2    s    0.577674 *  0.023819 *  0.179669 *  -2.87073    1.000000    
    301 O2    s    0.569728 *  0.147636 *  0.252035 *  -2.87073    1.000000    
    302 O2    s    0.838003 *  0.419414 *  0.581739 *  -2.87073    1.000000    
    303 O2    s    0.579589 *  0.431010 *  0.914955 *  -2.87073    1.000000    
    304 O3    s    0.416187 *  0.825829 *  0.740576 *  -3.33043    1.000000    
    305 O2    s    0.138228 *  0.574419 *  0.077040 *  -2.87073    1.000000    
    306 O2    s    0.413603 *  0.571869 *  0.410338 *  -2.87073    1.000000    
    307 F     s    0.440856 *  0.895928 *  0.248442 *  -1.56000    1.000000    
    308 F     s    0.087655 *  0.544349 *  0.579341 *  -1.56000    1.000000    
    309 F     s    0.449962 *  0.553648 *  0.913435 *  -1.56000    1.000000    
    310 F     s    0.517328 *  0.041831 *  0.759652 *  -1.56000    1.000000    
    311 F     s    0.838635 *  0.429935 *  0.067495 *  -1.56000    1.000000    
    312 F     s    0.541172 *  0.448526 *  0.412823 *  -1.56000    1.000000    
--------------------------------------------------------------------------------



********************************************************************************
*  General input information                                                   *
********************************************************************************

  Species output for all configurations : 

--------------------------------------------------------------------------------
  Species    Type    Atomic    Atomic    Charge       Radii (Angs)     Library
                     Number     Mass       (e)     Cova   Ionic  VDW   Symbol
--------------------------------------------------------------------------------
    Si       Core       14      28.09   4.000000   1.200  0.000  2.100          
    O1       Core        8      16.00   1.733957   0.730  0.000  1.360          
    O1       Shell       8       0.00  -3.733957   0.730  0.000  1.360          
    O2       Core        8      16.00   0.870733   0.730  0.000  1.360          
    O2       Shell       8       0.00  -2.870733   0.730  0.000  1.360          
    O3       Core        8      16.00   1.330431   0.730  0.000  1.360          
    O3       Shell       8       0.00  -3.330431   0.730  0.000  1.360          
    F        Core        9      19.00   0.560000   0.710  0.000  1.300          
    F        Shell       9       0.00  -1.560000   0.710  0.000  1.300          
    Ge       Core       32      72.61   4.000000   1.170  0.000  1.750          
--------------------------------------------------------------------------------


  Lattice summation method               =    Ewald          (3-D)
                                         =    Parry          (2-D)
                                         =    Saunders et al (1-D)
  Accuracy factor for lattice sums       =   12.000


  Time limit = Infinity

  Maximum range for interatomic potentials =        16.000000 Angstroms

  Taper potentials to zero over   1.0000 Angstroms using polynomial

  General interatomic potentials :

--------------------------------------------------------------------------------
Atom  Types   Potential         A         B         C         D     Cutoffs(Ang)
  1     2                                                            Min    Max 
--------------------------------------------------------------------------------
Si   c O1   s Buckingham    0.132E+04 0.318      10.1      0.00     0.000 16.000
Si   c O2   s Buckingham    0.132E+04 0.318      10.1      0.00     0.000 16.000
Si   c O3   s Buckingham    0.132E+04 0.318      10.1      0.00     0.000 16.000
Ge   c O1   s Buckingham    0.150E+04 0.326      16.8      0.00     0.000 16.000
Ge   c O2   s Buckingham    0.150E+04 0.326      16.8      0.00     0.000 16.000
Ge   c O3   s Buckingham    0.150E+04 0.326      16.8      0.00     0.000 16.000
O1   s O1   s Buckingham    0.228E+05 0.149      10.9      0.00     0.000 16.000
O1   s O2   s Buckingham    0.228E+05 0.149      10.9      0.00     0.000 16.000
O1   s O3   s Buckingham    0.228E+05 0.149      10.9      0.00     0.000 16.000
O2   s O2   s Buckingham    0.228E+05 0.149      10.9      0.00     0.000 16.000
O2   s O3   s Buckingham    0.228E+05 0.149      10.9      0.00     0.000 16.000
O3   s O3   s Buckingham    0.228E+05 0.149      10.9      0.00     0.000 16.000
Si   c F    s Buckingham     977.     0.282      0.00      0.00     0.000 16.000
Ge   c F    s Buckingham     681.     0.320      0.00      0.00     0.000 16.000
F    s F    s Buckingham     540.     0.262      0.00      0.00     0.000 16.000
O1   s F    s Buckingham    0.168E+04 0.268      0.00      0.00     0.000 16.000
O2   s F    s Buckingham    0.168E+04 0.268      0.00      0.00     0.000 16.000
O3   s F    s Buckingham    0.168E+04 0.268      0.00      0.00     0.000 16.000
O2   c O2   s Spring (c-s)   76.0      0.00      0.00      0.00     0.000  0.800
O3   c O3   s Spring (c-s)   128.      0.00      0.00      0.00     0.000  0.800
O1   c O1   s Spring (c-s)   180.      0.00      0.00      0.00     0.000  0.800
F    c F    s Spring (c-s)   33.5      0.00      0.00      0.00     0.000  0.800
--------------------------------------------------------------------------------

  General Three-body potentials :

  Harmonic form:

--------------------------------------------------------------------------------
Atom    Atom    Atom           Force Constants            Theta     Cutoffs  
  1       2       3     (eVrad**-2/eVrad**-3/eVrad**-4)   (deg)  1-2  1-3  2-3
--------------------------------------------------------------------------------
Si    c O1    s O1    s  1.261        0.0000    0.0000   109.470 0.00 0.00 0.00
                                                                 1.90 1.90 3.50
Si    c O1    s O2    s  1.261        0.0000    0.0000   109.470 0.00 0.00 0.00
                                                                 1.90 1.90 3.50
Si    c O2    s O2    s  1.261        0.0000    0.0000   109.470 0.00 0.00 0.00
                                                                 1.90 1.90 3.50
--------------------------------------------------------------------------------

********************************************************************************
*  Output for configuration   1                                                *
********************************************************************************


  Components of energy : 

--------------------------------------------------------------------------------
  Interatomic potentials     =        2066.33393259 eV
  Three-body potentials      =           0.48028514 eV
  Monopole - monopole (real) =       -6642.77450434 eV
  Monopole - monopole (recip)=       -3151.26899947 eV
  Monopole - monopole (total)=       -9794.04350381 eV
  Neutralising energy        =          -6.46664790 eV
--------------------------------------------------------------------------------
  Total lattice energy       =       -7733.69593399 eV
--------------------------------------------------------------------------------
  Total lattice energy       =         -746183.4373 kJ/(mole unit cells)
--------------------------------------------------------------------------------


  Number of variables =      939

  Maximum number of calculations  =          5000
  Maximum Hessian update interval =            10
  Maximum step size               =   0.100000000
  Maximum parameter tolerance     =   0.000010000
  Maximum function  tolerance     =   0.000010000
  Maximum gradient  tolerance     =   0.001000000
  Maximum gradient  component     =   0.010000000

  Symmetry not applied to optimisation

  Cell parameters to be optimised using strains

  Newton-Raphson optimiser to be used

  BFGS hessian update to be used

  Dumpfile to be written after every cycle

  Start of bulk optimisation :

  Cycle:      0 Energy:     -7733.695934  Gnorm:      0.000578  CPU:    2.056
  ** Hessian calculated **
  Cycle:      1 Energy:     -7733.711395  Gnorm:      0.000514  CPU:    6.639
  Cycle:      2 Energy:     -7733.730098  Gnorm:      0.000517  CPU:   10.845
  Cycle:      3 Energy:     -7733.751259  Gnorm:      0.000820  CPU:   15.052
  Cycle:      4 Energy:     -7733.766574  Gnorm:      0.001233  CPU:   19.260
  Cycle:      5 Energy:     -7733.770358  Gnorm:      0.000941  CPU:   23.468
  Cycle:      6 Energy:     -7733.771310  Gnorm:      0.000562  CPU:   27.676
  Cycle:      7 Energy:     -7733.771552  Gnorm:      0.000310  CPU:   31.884
  Cycle:      8 Energy:     -7733.771613  Gnorm:      0.000163  CPU:   36.093
  Cycle:      9 Energy:     -7733.771623  Gnorm:      0.000115  CPU:   38.935
  Cycle:     10 Energy:     -7733.771629  Gnorm:      0.000081  CPU:   41.777
  ** Hessian calculated **
  Cycle:     11 Energy:     -7733.771629  Gnorm:      0.000043  CPU:   46.343
  Cycle:     12 Energy:     -7733.771629  Gnorm:      0.000032  CPU:   49.185


  **** Optimisation achieved ****


  Final energy =   -7733.77162871 eV
  Final Gnorm  =       0.00002326

  Components of energy : 

--------------------------------------------------------------------------------
  Interatomic potentials     =        2066.53149946 eV
  Three-body potentials      =           0.47375911 eV
  Monopole - monopole (real) =       -6644.60365708 eV
  Monopole - monopole (recip)=       -3149.70978017 eV
  Monopole - monopole (total)=       -9794.31343725 eV
  Neutralising energy        =          -6.46345003 eV
--------------------------------------------------------------------------------
  Total lattice energy       =       -7733.77162871 eV
--------------------------------------------------------------------------------
  Total lattice energy       =         -746190.7406 kJ/(mole unit cells)
--------------------------------------------------------------------------------

  Final fractional coordinates of atoms :

--------------------------------------------------------------------------------
   No.  Atomic        x           y          z          Radius
        Label       (Frac)      (Frac)     (Frac)       (Angs) 
--------------------------------------------------------------------------------
     1  Ge    c     0.699600    0.375700    0.033890    0.000000
     2  Si    c     0.591148    0.300837    0.365336    0.000000
     3  Si    c     0.652529    0.277722    0.698659    0.000000
     4  Si    c     0.263574    0.597886    0.527363    0.000000
     5  Si    c     0.361130    0.671674    0.862388    0.000000
     6  Si    c     0.295560    0.687708    0.197379    0.000000
     7  Si    c     0.346860    0.679061    0.297672    0.000000
     8  Si    c     0.310002    0.613281    0.963772    0.000000
     9  Si    c     0.271624    0.656939    0.627940    0.000000
    10  Si    c     0.602605    0.284625    0.800958    0.000000
    11  Si    c     0.643659    0.358370    0.465921    0.000000
    12  Si    c     0.665718    0.303793    0.132118    0.000000
    13  Si    c     0.521975    0.410486    0.966446    0.000000
    14  Si    c     0.554029    0.088835    0.302080    0.000000
    15  Si    c     0.861033    0.448739    0.631993    0.000000
    16  Si    c     0.435995    0.560151    0.462940    0.000000
    17  Ge    c     0.410544    0.888944    0.795412    0.000000
    18  Si    c     0.087475    0.518081    0.130269    0.000000
    19  Si    c     0.385055    0.505140    0.361327    0.000000
    20  Si    c     0.094517    0.574730    0.027176    0.000000
    21  Si    c     0.442369    0.857061    0.696108    0.000000
    22  Si    c     0.567171    0.463001    0.864008    0.000000
    23  Si    c     0.853816    0.393901    0.530611    0.000000
    24  Si    c     0.504442    0.095943    0.200536    0.000000
    25  Si    c     0.287023    0.392854    0.849299    0.000000
    26  Si    c     0.575920    0.888642    0.183928    0.000000
    27  Si    c     0.062150    0.674772    0.514940    0.000000
    28  Si    c     0.666753    0.577351    0.348692    0.000000
    29  Si    c     0.369956    0.071170    0.683704    0.000000
    30  Si    c     0.881251    0.286241    0.010984    0.000000
    31  Si    c     0.364332    0.280572    0.478900    0.000000
    32  Si    c     0.873453    0.589051    0.143351    0.000000
    33  Si    c     0.684492    0.083844    0.818904    0.000000
    34  Si    c     0.588263    0.690899    0.978394    0.000000
    35  Si    c     0.070264    0.378225    0.644612    0.000000
    36  Si    c     0.271022    0.879191    0.314579    0.000000
    37  Si    c     0.242719    0.334712    0.949679    0.000000
    38  Si    c     0.630256    0.888434    0.284861    0.000000
    39  Si    c     0.061249    0.728217    0.615741    0.000000
    40  Si    c     0.715565    0.638318    0.449362    0.000000
    41  Si    c     0.313302    0.070063    0.786052    0.000000
    42  Si    c     0.882183    0.236243    0.114257    0.000000
    43  Si    c     0.308973    0.227685    0.378118    0.000000
    44  Si    c     0.893525    0.658308    0.041006    0.000000
    45  Si    c     0.723676    0.064401    0.715584    0.000000
    46  Si    c     0.642714    0.740862    0.877482    0.000000
    47  Si    c     0.054955    0.316357    0.543991    0.000000
    48  Si    c     0.223177    0.894246    0.213906    0.000000
    49  Si    c     0.965136    0.114481    0.964729    0.000000
    50  Si    c     0.847405    0.825292    0.298399    0.000000
    51  Si    c     0.122842    0.007866    0.632189    0.000000
    52  Si    c     0.995886    0.856610    0.465143    0.000000
    53  Si    c     0.105267    0.146463    0.798459    0.000000
    54  Si    c     0.824450    0.959140    0.132504    0.000000
    55  Si    c     0.090947    0.946993    0.364123    0.000000
    56  Si    c     0.835646    0.875503    0.030961    0.000000
    57  Si    c     0.005943    0.133526    0.697348    0.000000
    58  Si    c     0.867851    0.020077    0.865153    0.000000
    59  Si    c     0.117790    0.099573    0.530902    0.000000
    60  Si    c     0.944130    0.835409    0.197060    0.000000
    61  O2    c     0.919224    0.003000    0.001861    0.000000
    62  O2    c     0.969485    0.903715    0.331179    0.000000
    63  O2    c     0.044046    0.048900    0.665526    0.000000
    64  O2    c     0.037795    0.975519    0.499141    0.000000
    65  O2    c     0.985068    0.062100    0.830792    0.000000
    66  O2    c     0.906289    0.921392    0.166056    0.000000
    67  O2    c     0.307838    0.552745    0.328710    0.000000
    68  O2    c     0.400021    0.744179    0.658039    0.000000
    69  O2    c     0.223256    0.649846    0.996630    0.000000
    70  O2    c     0.641446    0.410656    0.831376    0.000000
    71  O2    c     0.555963    0.224754    0.170221    0.000000
    72  O2    c     0.725675    0.318133    0.499099    0.000000
    73  O3    c     0.565454    0.334131    0.998171    0.000000
    74  O2    c     0.736831    0.398626    0.665409    0.000000
    75  O2    c     0.630878    0.214006    0.334707    0.000000
    76  O2    c     0.385564    0.637015    0.494129    0.000000
    77  O2    c     0.210743    0.566473    0.163576    0.000000
    78  O3    c     0.323001    0.752544    0.830917    0.000000
    79  O2    c     0.118806    0.205657    0.970368    0.000000
    80  O2    c     0.756098    0.887327    0.304792    0.000000
    81  O2    c     0.059740    0.853167    0.636109    0.000000
    82  O2    c     0.840879    0.766342    0.469593    0.000000
    83  O2    c     0.195859    0.085317    0.804459    0.000000
    84  O2    c     0.884725    0.113480    0.136097    0.000000
    85  O2    c     0.183310    0.100801    0.357567    0.000000
    86  O2    c     0.909952    0.795702    0.025724    0.000000
    87  O2    c     0.850837    0.069810    0.694009    0.000000
    88  O2    c     0.769988    0.867827    0.857346    0.000000
    89  O2    c     0.052500    0.188203    0.524814    0.000000
    90  O2    c     0.098992    0.898050    0.193679    0.000000
    91  O2    c     0.899360    0.840173    0.247674    0.000000
    92  O2    c     0.110044    0.051008    0.581983    0.000000
    93  O2    c     0.924426    0.049082    0.915674    0.000000
    94  O2    c     0.051944    0.129818    0.747615    0.000000
    95  O2    c     0.836947    0.916976    0.082665    0.000000
    96  O2    c     0.038407    0.912477    0.414972    0.000000
    97  O2    c     0.896527    0.198275    0.972987    0.000000
    98  O2    c     0.765350    0.673119    0.310037    0.000000
    99  O2    c     0.274671    0.074429    0.644927    0.000000
   100  O2    c     0.062834    0.772317    0.476585    0.000000
   101  O2    c     0.186692    0.297807    0.810369    0.000000
   102  O2    c     0.672850    0.888566    0.145574    0.000000
   103  O2    c     0.172100    0.876129    0.353019    0.000000
   104  O2    c     0.686040    0.791467    0.016503    0.000000
   105  O2    c     0.075216    0.283168    0.682586    0.000000
   106  O2    c     0.795765    0.100823    0.854822    0.000000
   107  O2    c     0.268763    0.183448    0.517776    0.000000
   108  O2    c     0.874812    0.685895    0.182065    0.000000
   109  O2    c     0.291896    0.624838    0.246840    0.000000
   110  O2    c     0.324056    0.654689    0.577225    0.000000
   111  O2    c     0.308117    0.669679    0.913975    0.000000
   112  O2    c     0.651270    0.330640    0.748991    0.000000
   113  O3    c     0.602973    0.297304    0.084256    0.000000
   114  O2    c     0.646536    0.302020    0.415945    0.000000
   115  O2    c     0.363893    0.324871    0.967918    0.000000
   116  O2    c     0.641061    0.019974    0.304315    0.000000
   117  O2    c     0.930138    0.604929    0.635242    0.000000
   118  O2    c     0.592613    0.648400    0.466690    0.000000
   119  O3    c     0.294397    0.939278    0.805207    0.000000
   120  O2    c     0.013667    0.362164    0.131908    0.000000
   121  O2    c     0.298209    0.348491    0.358784    0.000000
   122  O2    c     0.026966    0.662522    0.026089    0.000000
   123  O2    c     0.601515    0.932990    0.696317    0.000000
   124  O2    c     0.654709    0.619218    0.859357    0.000000
   125  O2    c     0.920718    0.305226    0.526886    0.000000
   126  O2    c     0.347807    0.026692    0.196467    0.000000
   127  O3    c     0.748677    0.279912    0.002002    0.000000
   128  O2    c     0.666591    0.443256    0.342084    0.000000
   129  O2    c     0.507261    0.203968    0.678083    0.000000
   130  O2    c     0.194862    0.673425    0.506176    0.000000
   131  O2    c     0.286934    0.525323    0.841503    0.000000
   132  O2    c     0.439266    0.756785    0.175114    0.000000
   133  O2    c     0.270148    0.744443    0.320640    0.000000
   134  O2    c     0.453454    0.689586    0.986593    0.000000
   135  O2    c     0.203507    0.514447    0.651157    0.000000
   136  O2    c     0.680541    0.217714    0.821084    0.000000
   137  O2    c     0.499126    0.283153    0.487483    0.000000
   138  O2    c     0.741441    0.453338    0.151016    0.000000
   139  O3    c     0.769516    0.544458    0.018459    0.000000
   140  O2    c     0.434791    0.226163    0.359539    0.000000
   141  O2    c     0.716114    0.187429    0.697661    0.000000
   142  O2    c     0.179407    0.441487    0.522844    0.000000
   143  O2    c     0.518492    0.741277    0.857208    0.000000
   144  O2    c     0.219446    0.767515    0.193399    0.000000
   145  O2    c     0.503273    0.761185    0.303559    0.000000
   146  O2    c     0.236146    0.457190    0.969387    0.000000
   147  O2    c     0.190185    0.731242    0.633607    0.000000
   148  O2    c     0.447808    0.193662    0.803814    0.000000
   149  O2    c     0.717192    0.514686    0.470184    0.000000
   150  O2    c     0.757901    0.239147    0.133078    0.000000
   151  O2    c     0.217153    0.315626    0.895462    0.000000
   152  O2    c     0.648193    0.889203    0.230507    0.000000
   153  O2    c     0.059546    0.745658    0.561384    0.000000
   154  O2    c     0.736605    0.653958    0.395017    0.000000
   155  O2    c     0.301451    0.069192    0.730758    0.000000
   156  O2    c     0.883372    0.222154    0.059981    0.000000
   157  O2    c     0.290026    0.208944    0.432489    0.000000
   158  O2    c     0.879525    0.659465    0.096312    0.000000
   159  O2    c     0.740367    0.067889    0.769800    0.000000
   160  O2    c     0.661687    0.761624    0.931844    0.000000
   161  O2    c     0.062577    0.302554    0.598226    0.000000
   162  O2    c     0.202801    0.888460    0.268279    0.000000
   163  O2    c     0.575456    0.553569    0.988394    0.000000
   164  O2    c     0.411946    0.002601    0.324707    0.000000
   165  O2    c     0.943618    0.389509    0.654498    0.000000
   166  O2    c     0.377525    0.419663    0.486836    0.000000
   167  O3    c     0.552305    0.960829    0.831496    0.000000
   168  O2    c     0.996258    0.569730    0.149875    0.000000
   169  O2    c     0.527197    0.562275    0.338784    0.000000
   170  O2    c     0.002914    0.433080    0.006053    0.000000
   171  O2    c     0.389094    0.949508    0.676161    0.000000
   172  O2    c     0.425433    0.403353    0.840394    0.000000
   173  O2    c     0.936019    0.534603    0.506758    0.000000
   174  O2    c     0.563942    0.015430    0.176625    0.000000
   175  O2    c     0.555066    0.144793    0.251817    0.000000
   176  O2    c     0.802656    0.394212    0.581740    0.000000
   177  O2    c     0.572468    0.412999    0.914524    0.000000
   178  O3    c     0.386814    0.795142    0.744055    0.000000
   179  O2    c     0.136462    0.568084    0.079308    0.000000
   180  O2    c     0.384092    0.559013    0.411846    0.000000
   181  F     c     0.421702    0.882387    0.248990    0.000000
   182  F     c     0.062799    0.524794    0.579824    0.000000
   183  F     c     0.438122    0.540129    0.913856    0.000000
   184  F     c     0.502112    0.034008    0.758132    0.000000
   185  F     c     0.843644    0.428865    0.070867    0.000000
   186  F     c     0.515595    0.429822    0.413761    0.000000
   187  O2    s     0.914770    0.000969    0.000991    0.000000
   188  O2    s     0.969431    0.899760    0.331202    0.000000
   189  O2    s     0.048621    0.053554    0.665290    0.000000
   190  O2    s     0.042061    0.976122    0.498899    0.000000
   191  O2    s     0.985442    0.067003    0.831008    0.000000
   192  O2    s     0.901536    0.916015    0.165822    0.000000
   193  O2    s     0.319780    0.560819    0.328867    0.000000
   194  O2    s     0.390856    0.746406    0.658698    0.000000
   195  O2    s     0.218085    0.638221    0.996644    0.000000
   196  O2    s     0.630016    0.402340    0.831312    0.000000
   197  O2    s     0.561813    0.219242    0.169499    0.000000
   198  O2    s     0.730472    0.330150    0.498924    0.000000
   199  O3    s     0.570369    0.345376    0.997312    0.000000
   200  O2    s     0.740540    0.390903    0.665540    0.000000
   201  O2    s     0.618841    0.209998    0.334494    0.000000
   202  O2    s     0.378122    0.624995    0.494356    0.000000
   203  O2    s     0.206327    0.573708    0.163505    0.000000
   204  O3    s     0.333323    0.753295    0.831856    0.000000
   205  O2    s     0.114507    0.208761    0.967667    0.000000
   206  O2    s     0.752717    0.880873    0.302073    0.000000
   207  O2    s     0.066572    0.856653    0.633619    0.000000
   208  O2    s     0.844436    0.762714    0.467047    0.000000
   209  O2    s     0.198663    0.090566    0.801761    0.000000
   210  O2    s     0.878085    0.109900    0.133475    0.000000
   211  O2    s     0.186528    0.097585    0.360378    0.000000
   212  O2    s     0.900348    0.790028    0.027852    0.000000
   213  O2    s     0.854144    0.076030    0.696578    0.000000
   214  O2    s     0.767500    0.871208    0.860203    0.000000
   215  O2    s     0.059614    0.192023    0.527399    0.000000
   216  O2    s     0.095353    0.890980    0.196114    0.000000
   217  O2    s     0.898528    0.837959    0.247720    0.000000
   218  O2    s     0.112325    0.051598    0.581883    0.000000
   219  O2    s     0.922645    0.053160    0.915504    0.000000
   220  O2    s     0.052545    0.132105    0.747451    0.000000
   221  O2    s     0.835350    0.917307    0.082735    0.000000
   222  O2    s     0.039521    0.910058    0.414904    0.000000
   223  O2    s     0.902360    0.198566    0.976131    0.000000
   224  O2    s     0.763996    0.679489    0.312747    0.000000
   225  O2    s     0.268403    0.067105    0.647524    0.000000
   226  O2    s     0.055615    0.771272    0.479313    0.000000
   227  O2    s     0.187803    0.290791    0.812930    0.000000
   228  O2    s     0.678851    0.896031    0.148165    0.000000
   229  O2    s     0.173594    0.883873    0.350288    0.000000
   230  O2    s     0.692476    0.790482    0.014234    0.000000
   231  O2    s     0.067282    0.277061    0.680190    0.000000
   232  O2    s     0.792113    0.090799    0.852291    0.000000
   233  O2    s     0.262395    0.184454    0.515179    0.000000
   234  O2    s     0.882096    0.691919    0.179677    0.000000
   235  O2    s     0.297880    0.636824    0.246959    0.000000
   236  O2    s     0.312328    0.648997    0.577290    0.000000
   237  O2    s     0.313502    0.663913    0.914196    0.000000
   238  O2    s     0.646527    0.320443    0.748889    0.000000
   239  O3    s     0.615672    0.302892    0.086183    0.000000
   240  O2    s     0.640516    0.307730    0.415863    0.000000
   241  O2    s     0.366318    0.334533    0.965740    0.000000
   242  O2    s     0.630983    0.013333    0.302049    0.000000
   243  O2    s     0.936609    0.601559    0.632867    0.000000
   244  O2    s     0.589340    0.638220    0.464473    0.000000
   245  O3    s     0.304194    0.950092    0.802444    0.000000
   246  O2    s     0.007737    0.365463    0.129894    0.000000
   247  O2    s     0.308287    0.351998    0.361077    0.000000
   248  O2    s     0.020647    0.652972    0.027708    0.000000
   249  O2    s     0.599045    0.939540    0.698346    0.000000
   250  O2    s     0.644507    0.615606    0.861687    0.000000
   251  O2    s     0.927850    0.315459    0.529059    0.000000
   252  O2    s     0.350739    0.019793    0.198740    0.000000
   253  O3    s     0.759748    0.286918    0.005144    0.000000
   254  O2    s     0.658853    0.442709    0.345199    0.000000
   255  O2    s     0.508144    0.197829    0.680836    0.000000
   256  O2    s     0.187953    0.665757    0.509322    0.000000
   257  O2    s     0.294346    0.525369    0.844479    0.000000
   258  O2    s     0.438731    0.763474    0.178375    0.000000
   259  O2    s     0.278072    0.751857    0.317625    0.000000
   260  O2    s     0.452658    0.681913    0.983390    0.000000
   261  O2    s     0.196337    0.514619    0.648046    0.000000
   262  O2    s     0.672806    0.211248    0.818729    0.000000
   263  O2    s     0.499829    0.290680    0.484308    0.000000
   264  O2    s     0.748288    0.453468    0.148343    0.000000
   265  O3    s     0.778808    0.546102    0.021886    0.000000
   266  O2    s     0.437484    0.234207    0.362122    0.000000
   267  O2    s     0.709975    0.183955    0.699681    0.000000
   268  O2    s     0.174587    0.444196    0.525565    0.000000
   269  O2    s     0.516589    0.734104    0.859933    0.000000
   270  O2    s     0.227788    0.772855    0.195983    0.000000
   271  O2    s     0.500743    0.766512    0.300955    0.000000
   272  O2    s     0.244515    0.460398    0.966760    0.000000
   273  O2    s     0.184496    0.723204    0.631120    0.000000
   274  O2    s     0.450875    0.190725    0.801685    0.000000
   275  O2    s     0.709242    0.511714    0.467519    0.000000
   276  O2    s     0.762494    0.245324    0.130911    0.000000
   277  O2    s     0.227051    0.325627    0.896311    0.000000
   278  O2    s     0.638677    0.889059    0.231392    0.000000
   279  O2    s     0.059986    0.736397    0.562297    0.000000
   280  O2    s     0.727092    0.644308    0.395922    0.000000
   281  O2    s     0.310080    0.069469    0.731141    0.000000
   282  O2    s     0.883028    0.229917    0.061067    0.000000
   283  O2    s     0.299814    0.218433    0.431618    0.000000
   284  O2    s     0.880188    0.651571    0.096028    0.000000
   285  O2    s     0.733141    0.068988    0.768607    0.000000
   286  O2    s     0.652007    0.752043    0.931007    0.000000
   287  O2    s     0.062570    0.312018    0.597302    0.000000
   288  O2    s     0.212078    0.888108    0.267364    0.000000
   289  O2    s     0.571223    0.554338    0.985062    0.000000
   290  O2    s     0.411606    0.998137    0.321254    0.000000
   291  O2    s     0.948556    0.394623    0.651089    0.000000
   292  O2    s     0.382365    0.419324    0.483488    0.000000
   293  O3    s     0.557469    0.969819    0.827750    0.000000
   294  O2    s     0.992740    0.566177    0.147077    0.000000
   295  O2    s     0.527336    0.557748    0.342210    0.000000
   296  O2    s     0.000223    0.433437    0.008862    0.000000
   297  O2    s     0.392332    0.954001    0.678964    0.000000
   298  O2    s     0.425487    0.408504    0.843756    0.000000
   299  O2    s     0.941238    0.535056    0.510135    0.000000
   300  O2    s     0.558902    0.010015    0.179894    0.000000
   301  O2    s     0.549603    0.133744    0.251700    0.000000
   302  O2    s     0.814030    0.399862    0.581693    0.000000
   303  O2    s     0.566932    0.418097    0.914269    0.000000
   304  O3    s     0.394273    0.807739    0.742203    0.000000
   305  O2    s     0.126963    0.563424    0.079451    0.000000
   306  O2    s     0.389624    0.553521    0.411923    0.000000
   307  F     s     0.421315    0.881761    0.248949    0.000000
   308  F     s     0.062850    0.524833    0.579835    0.000000
   309  F     s     0.437889    0.540145    0.913859    0.000000
   310  F     s     0.495847    0.023829    0.760652    0.000000
   311  F     s     0.832953    0.425006    0.068261    0.000000
   312  F     s     0.515781    0.429669    0.413753    0.000000
--------------------------------------------------------------------------------

  Final Cartesian lattice vectors (Angstroms) :

       11.975290    0.003672   -0.001132
       -6.073800   10.351224    0.014696
       -0.067545   -0.047620   29.448004


  Final cell parameters and derivatives :

--------------------------------------------------------------------------------
       a           11.975291 Angstrom     dE/de1(xx)     0.001514 eV/strain
       b           12.001629 Angstrom     dE/de2(yy)     0.001071 eV/strain
       c           29.448120 Angstrom     dE/de3(zz)     0.002029 eV/strain
       alpha       89.943245 Degrees      dE/de4(yz)    -0.000237 eV/strain
       beta        90.136862 Degrees      dE/de5(xz)     0.000016 eV/strain
       gamma      120.385593 Degrees      dE/de6(xy)     0.000391 eV/strain
--------------------------------------------------------------------------------

  Primitive cell volume =          3651.006850 Angs**3

  Density of cell =      1.732170 g/cm**3

  Non-primitive cell volume =          3651.006850 Angs**3


  Final internal derivatives :

--------------------------------------------------------------------------------
   No.  Atomic          a             b             c           Radius
        Label          (eV)          (eV)          (eV)        (eV/Angs)
--------------------------------------------------------------------------------
      1 Ge    c       0.000000      0.000000      0.000000      0.000000
      2 Si    c      -0.000015      0.000318      0.000496      0.000000
      3 Si    c       0.000179     -0.000085     -0.000636      0.000000
      4 Si    c       0.000101      0.000165      0.000182      0.000000
      5 Si    c      -0.000168      0.000228     -0.000139      0.000000
      6 Si    c       0.000166      0.000139      0.000409      0.000000
      7 Si    c       0.000315      0.000262     -0.000439      0.000000
      8 Si    c       0.000112      0.000255     -0.000206      0.000000
      9 Si    c       0.000052      0.000273     -0.000229      0.000000
     10 Si    c      -0.000047     -0.000581     -0.000296      0.000000
     11 Si    c       0.000066      0.000107      0.000099      0.000000
     12 Si    c       0.001238     -0.000317      0.007440      0.000000
     13 Si    c      -0.001028      0.001232     -0.003798      0.000000
     14 Si    c      -0.000051      0.000023     -0.000312      0.000000
     15 Si    c       0.000105     -0.000187     -0.000025      0.000000
     16 Si    c       0.000280      0.000102     -0.000067      0.000000
     17 Ge    c       0.000196      0.000338      0.000080      0.000000
     18 Si    c      -0.000174      0.000610      0.001118      0.000000
     19 Si    c       0.000422      0.000145      0.000327      0.000000
     20 Si    c      -0.000904      0.000055     -0.000166      0.000000
     21 Si    c       0.000153      0.000160      0.000005      0.000000
     22 Si    c       0.000230     -0.000134     -0.001454      0.000000
     23 Si    c       0.000113      0.000064      0.000201      0.000000
     24 Si    c      -0.000057     -0.000310      0.000862      0.000000
     25 Si    c      -0.000158     -0.000141     -0.000907      0.000000
     26 Si    c       0.000059      0.000028      0.000057      0.000000
     27 Si    c       0.000235      0.000117      0.000165      0.000000
     28 Si    c       0.000237      0.000310     -0.000033      0.000000
     29 Si    c       0.000172     -0.000098     -0.000237      0.000000
     30 Si    c      -0.000079      0.000931     -0.000551      0.000000
     31 Si    c       0.000157     -0.000062      0.000011      0.000000
     32 Si    c       0.000915      0.000029      0.001045      0.000000
     33 Si    c      -0.000152     -0.000145      0.000228      0.000000
     34 Si    c      -0.000099      0.000320     -0.000083      0.000000
     35 Si    c      -0.000118      0.000177     -0.000292      0.000000
     36 Si    c       0.000198      0.000219     -0.000305      0.000000
     37 Si    c      -0.000467     -0.000110     -0.000132      0.000000
     38 Si    c       0.000070      0.000059     -0.000388      0.000000
     39 Si    c       0.000270     -0.000168     -0.000357      0.000000
     40 Si    c       0.000196      0.000204     -0.000209      0.000000
     41 Si    c       0.000260     -0.000181      0.000329      0.000000
     42 Si    c       0.000295      0.000398      0.000897      0.000000
     43 Si    c       0.000238     -0.000014      0.000285      0.000000
     44 Si    c       0.000252     -0.001118     -0.004010      0.000000
     45 Si    c      -0.000091      0.000032      0.000006      0.000000
     46 Si    c       0.000110      0.000345     -0.000432      0.000000
     47 Si    c       0.000000      0.000214      0.000278      0.000000
     48 Si    c       0.000126     -0.000004     -0.000097      0.000000
     49 Si    c       0.000071      0.000081      0.000202      0.000000
     50 Si    c       0.000214      0.000140     -0.000167      0.000000
     51 Si    c       0.000268      0.000056     -0.000442      0.000000
     52 Si    c       0.000126      0.000035     -0.000284      0.000000
     53 Si    c      -0.000053      0.000161      0.000735      0.000000
     54 Si    c      -0.000004     -0.000033      0.001921      0.000000
     55 Si    c       0.000132      0.000099      0.000375      0.000000
     56 Si    c       0.000321      0.000498      0.000194      0.000000
     57 Si    c      -0.000210      0.000223     -0.001295      0.000000
     58 Si    c       0.000165      0.000339     -0.001000      0.000000
     59 Si    c       0.000329      0.000057      0.000113      0.000000
     60 Si    c       0.000229      0.000189     -0.000317      0.000000
     61 O2    c       0.000866     -0.000498      0.000515      0.000000
     62 O2    c       0.000275      0.000203     -0.000005      0.000000
     63 O2    c       0.000159     -0.000073     -0.000561      0.000000
     64 O2    c       0.000267      0.000069      0.000054      0.000000
     65 O2    c      -0.000054     -0.000380     -0.000068      0.000000
     66 O2    c       0.000239     -0.000041     -0.000004      0.000000
     67 O2    c       0.000228      0.000198     -0.000350      0.000000
     68 O2    c      -0.000162      0.000118     -0.000074      0.000000
     69 O2    c      -0.000309      0.000774     -0.000253      0.000000
     70 O2    c       0.000175      0.000342      0.000773      0.000000
     71 O2    c      -0.000367     -0.000587      0.002181      0.000000
     72 O2    c       0.000323      0.000218      0.000245      0.000000
     73 O3    c      -0.000943     -0.002500      0.002299      0.000000
     74 O2    c       0.000369     -0.000112      0.000029      0.000000
     75 O2    c       0.000152     -0.000014     -0.000240      0.000000
     76 O2    c       0.000103     -0.000037     -0.000010      0.000000
     77 O2    c       0.000123      0.000015     -0.000412      0.000000
     78 O3    c      -0.000248      0.000374     -0.000956      0.000000
     79 O2    c       0.001645     -0.000034      0.000662      0.000000
     80 O2    c       0.000002      0.000198     -0.000276      0.000000
     81 O2    c       0.000225     -0.000142     -0.000227      0.000000
     82 O2    c       0.000407     -0.000025     -0.000252      0.000000
     83 O2    c       0.000259     -0.000183     -0.000062      0.000000
     84 O2    c       0.000215     -0.000449      0.000776      0.000000
     85 O2    c       0.000294      0.000209      0.000196      0.000000
     86 O2    c       0.003087     -0.002468     -0.002641      0.000000
     87 O2    c      -0.000229      0.000089     -0.000173      0.000000
     88 O2    c      -0.000050     -0.000062      0.000045      0.000000
     89 O2    c       0.000259      0.000124      0.000252      0.000000
     90 O2    c       0.000062     -0.000032      0.000157      0.000000
     91 O2    c       0.000166      0.000096     -0.000652      0.000000
     92 O2    c       0.000134      0.000061     -0.000077      0.000000
     93 O2    c       0.000174     -0.000677     -0.004930      0.000000
     94 O2    c       0.000184     -0.000138      0.002013      0.000000
     95 O2    c       0.000202      0.000589      0.005538      0.000000
     96 O2    c       0.000222     -0.000027      0.000152      0.000000
     97 O2    c      -0.002211      0.001439     -0.000333      0.000000
     98 O2    c       0.000061     -0.000073      0.000607      0.000000
     99 O2    c       0.000003     -0.000075     -0.000077      0.000000
    100 O2    c       0.000030      0.000114      0.000403      0.000000
    101 O2    c      -0.000105      0.000256     -0.000061      0.000000
    102 O2    c       0.000186      0.000189      0.000389      0.000000
    103 O2    c       0.000412      0.000024     -0.000405      0.000000
    104 O2    c      -0.002969      0.000657     -0.000786      0.000000
    105 O2    c      -0.000037      0.000474     -0.000576      0.000000
    106 O2    c      -0.000148      0.000241      0.000018      0.000000
    107 O2    c       0.000052      0.000139     -0.000402      0.000000
    108 O2    c       0.000113      0.000362      0.001090      0.000000
    109 O2    c       0.000102      0.000240      0.000198      0.000000
    110 O2    c      -0.000190      0.000096      0.000122      0.000000
    111 O2    c      -0.000186      0.000197     -0.000276      0.000000
    112 O2    c       0.000309     -0.000058     -0.000795      0.000000
    113 O3    c      -0.002965     -0.000747     -0.002671      0.000000
    114 O2    c       0.000043      0.000242      0.000008      0.000000
    115 O2    c      -0.000645     -0.000257      0.000312      0.000000
    116 O2    c       0.000077      0.000185     -0.000168      0.000000
    117 O2    c       0.000361     -0.000054     -0.000251      0.000000
    118 O2    c       0.000092     -0.000041     -0.000177      0.000000
    119 O3    c       0.000206      0.000050     -0.000311      0.000000
    120 O2    c       0.000076      0.000628      0.000653      0.000000
    121 O2    c       0.000335      0.000023      0.000170      0.000000
    122 O2    c       0.000466      0.000557     -0.000531      0.000000
    123 O2    c      -0.000133      0.000232      0.000110      0.000000
    124 O2    c       0.000209     -0.000345     -0.000232      0.000000
    125 O2    c       0.000267      0.000237      0.000324      0.000000
    126 O2    c       0.000229     -0.000138      0.000126      0.000000
    127 O3    c      -0.000278     -0.000455     -0.000510      0.000000
    128 O2    c       0.000040      0.000250      0.000219      0.000000
    129 O2    c       0.000295     -0.000097      0.000197      0.000000
    130 O2    c       0.000042     -0.000030      0.000493      0.000000
    131 O2    c      -0.000124      0.000266     -0.000280      0.000000
    132 O2    c       0.000104      0.000295      0.000357      0.000000
    133 O2    c       0.000206      0.000269     -0.000367      0.000000
    134 O2    c       0.000014      0.000156      0.000304      0.000000
    135 O2    c      -0.000110      0.000123     -0.000272      0.000000
    136 O2    c      -0.000020      0.000197     -0.000051      0.000000
    137 O2    c       0.000284      0.000241     -0.000451      0.000000
    138 O2    c       0.000345      0.000084      0.001415      0.000000
    139 O3    c      -0.001467     -0.001699     -0.002459      0.000000
    140 O2    c       0.000335      0.000215      0.000191      0.000000
    141 O2    c      -0.000004      0.000083      0.000181      0.000000
    142 O2    c      -0.000022      0.000119      0.000295      0.000000
    143 O2    c      -0.000087      0.000059     -0.000249      0.000000
    144 O2    c       0.000131      0.000290      0.000146      0.000000
    145 O2    c       0.000088      0.000186     -0.000233      0.000000
    146 O2    c      -0.000153      0.000323      0.000160      0.000000
    147 O2    c       0.000030     -0.000109     -0.000301      0.000000
    148 O2    c       0.000216     -0.000245     -0.000070      0.000000
    149 O2    c       0.000106      0.000055     -0.000192      0.000000
    150 O2    c      -0.000130      0.000008      0.001086      0.000000
    151 O2    c      -0.000101      0.000127      0.000109      0.000000
    152 O2    c       0.000021      0.000156      0.000184      0.000000
    153 O2    c       0.000225     -0.000194      0.000261      0.000000
    154 O2    c       0.000053     -0.000044      0.000071      0.000000
    155 O2    c       0.000172     -0.000126      0.000429      0.000000
    156 O2    c      -0.000143      0.000007     -0.001313      0.000000
    157 O2    c       0.000322      0.000216     -0.000250      0.000000
    158 O2    c       0.000383      0.000566      0.002224      0.000000
    159 O2    c       0.000098      0.000052     -0.000965      0.000000
    160 O2    c       0.000079     -0.000098      0.000297      0.000000
    161 O2    c       0.000002      0.000267     -0.000264      0.000000
    162 O2    c       0.000319      0.000003     -0.000262      0.000000
    163 O2    c       0.000192      0.000243      0.000251      0.000000
    164 O2    c       0.000248      0.000077     -0.000359      0.000000
    165 O2    c       0.000255      0.000076     -0.000457      0.000000
    166 O2    c       0.000234      0.000250     -0.000354      0.000000
    167 O3    c       0.000029     -0.000012     -0.000202      0.000000
    168 O2    c       0.000534     -0.000189      0.000041      0.000000
    169 O2    c       0.000227     -0.000004      0.000464      0.000000
    170 O2    c      -0.000009      0.000064     -0.000337      0.000000
    171 O2    c       0.000200     -0.000094      0.000091      0.000000
    172 O2    c       0.000335     -0.000169     -0.000160      0.000000
    173 O2    c       0.000221      0.000019      0.000416      0.000000
    174 O2    c       0.000164     -0.000003      0.000088      0.000000
    175 O2    c       0.000180     -0.000004     -0.000062      0.000000
    176 O2    c       0.000404      0.000022     -0.000013      0.000000
    177 O2    c       0.000550     -0.000184     -0.002478      0.000000
    178 O3    c       0.000011      0.000105     -0.000410      0.000000
    179 O2    c       0.000120      0.000445      0.000443      0.000000
    180 O2    c       0.000316     -0.000016      0.000288      0.000000
    181 F     c       0.000147      0.000098     -0.000047      0.000000
    182 F     c       0.000114      0.000059      0.000033      0.000000
    183 F     c       0.000038     -0.000011      0.000251      0.000000
    184 F     c       0.000030     -0.000052      0.000243      0.000000
    185 F     c       0.000541     -0.000122     -0.000770      0.000000
    186 F     c       0.000220      0.000134     -0.000011      0.000000
    187 O2    s       0.000586      0.000197      0.000260      0.000000
    188 O2    s       0.000332      0.000266      0.000145      0.000000
    189 O2    s       0.000200     -0.000020     -0.000772      0.000000
    190 O2    s       0.000376      0.000100     -0.000031      0.000000
    191 O2    s       0.000408     -0.000642      0.000161      0.000000
    192 O2    s      -0.000035      0.000278      0.000763      0.000000
    193 O2    s       0.000536      0.000231     -0.000216      0.000000
    194 O2    s       0.000074      0.000057     -0.000149      0.000000
    195 O2    s       0.000463     -0.000318     -0.000921      0.000000
    196 O2    s      -0.000087      0.000323      0.000335      0.000000
    197 O2    s      -0.000272     -0.000051      0.003364      0.000000
    198 O2    s       0.000180      0.000293      0.000089      0.000000
    199 O3    s       0.000017      0.002039      0.000494      0.000000
    200 O2    s       0.000215     -0.000141     -0.000244      0.000000
    201 O2    s      -0.000041      0.000143      0.000010      0.000000
    202 O2    s       0.000244      0.000009      0.000006      0.000000
    203 O2    s       0.000554     -0.000239      0.000107      0.000000
    204 O3    s       0.000138      0.000179     -0.000340      0.000000
    205 O2    s       0.001779      0.000462      0.000089      0.000000
    206 O2    s      -0.000002      0.000224     -0.000631      0.000000
    207 O2    s       0.000247     -0.000007     -0.000637      0.000000
    208 O2    s       0.000331      0.000067     -0.000604      0.000000
    209 O2    s       0.000171      0.000115     -0.000213      0.000000
    210 O2    s       0.000291     -0.000217      0.000797      0.000000
    211 O2    s       0.000346      0.000171      0.000573      0.000000
    212 O2    s       0.001820     -0.001124     -0.003723      0.000000
    213 O2    s      -0.000166     -0.000133     -0.000470      0.000000
    214 O2    s       0.000142     -0.000272      0.000216      0.000000
    215 O2    s       0.000359      0.000076      0.000642      0.000000
    216 O2    s       0.000142      0.000160      0.001257      0.000000
    217 O2    s       0.000417      0.000178     -0.000091      0.000000
    218 O2    s       0.000278      0.000184      0.000001      0.000000
    219 O2    s       0.000238     -0.001085     -0.002803      0.000000
    220 O2    s       0.000421     -0.000194      0.000760      0.000000
    221 O2    s      -0.000282      0.001623      0.003562      0.000000
    222 O2    s       0.000214      0.000038      0.000190      0.000000
    223 O2    s      -0.001382      0.001066      0.000112      0.000000
    224 O2    s       0.000107      0.000038      0.000867      0.000000
    225 O2    s       0.000012      0.000046      0.000044      0.000000
    226 O2    s       0.000135      0.000098      0.000466      0.000000
    227 O2    s       0.000322     -0.000030      0.000304      0.000000
    228 O2    s       0.000133      0.000161      0.000839      0.000000
    229 O2    s       0.000297      0.000131     -0.000407      0.000000
    230 O2    s      -0.003061      0.000633     -0.001624      0.000000
    231 O2    s       0.000096      0.000204     -0.001332      0.000000
    232 O2    s      -0.000127      0.000239     -0.000354      0.000000
    233 O2    s       0.000080      0.000228     -0.000273      0.000000
    234 O2    s       0.000306      0.000322      0.001575      0.000000
    235 O2    s       0.000391      0.000253     -0.000210      0.000000
    236 O2    s       0.000062      0.000017      0.000152      0.000000
    237 O2    s       0.000693     -0.000501     -0.000369      0.000000
    238 O2    s       0.000082      0.000059     -0.000898      0.000000
    239 O3    s       0.001038      0.000814     -0.000701      0.000000
    240 O2    s       0.000008      0.000395      0.000113      0.000000
    241 O2    s      -0.001029      0.001184     -0.001553      0.000000
    242 O2    s       0.000061      0.000113     -0.000314      0.000000
    243 O2    s       0.000259     -0.000090     -0.000631      0.000000
    244 O2    s       0.000206      0.000107     -0.000319      0.000000
    245 O3    s       0.000158      0.000223     -0.000569      0.000000
    246 O2    s       0.001152     -0.000556      0.001040      0.000000
    247 O2    s       0.000544     -0.000022      0.000490      0.000000
    248 O2    s       0.000092      0.000121     -0.001811      0.000000
    249 O2    s       0.000052      0.000040      0.000234      0.000000
    250 O2    s      -0.000277      0.000001      0.000704      0.000000
    251 O2    s       0.000188      0.000166      0.000381      0.000000
    252 O2    s       0.000330      0.000107      0.001195      0.000000
    253 O3    s       0.000397      0.000005     -0.000749      0.000000
    254 O2    s       0.000056      0.000305      0.000551      0.000000
    255 O2    s       0.000154      0.000156     -0.000003      0.000000
    256 O2    s       0.000118      0.000071      0.000447      0.000000
    257 O2    s       0.000373     -0.000265      0.000174      0.000000
    258 O2    s       0.000375      0.000085      0.001011      0.000000
    259 O2    s       0.000387      0.000203     -0.000586      0.000000
    260 O2    s       0.000643     -0.000651     -0.000613      0.000000
    261 O2    s       0.000075      0.000027     -0.000763      0.000000
    262 O2    s       0.000006     -0.000139      0.000080      0.000000
    263 O2    s       0.000101      0.000232     -0.000388      0.000000
    264 O2    s      -0.000534      0.000317      0.000496      0.000000
    265 O3    s      -0.000071     -0.000760      0.001403      0.000000
    266 O2    s       0.000167      0.000336      0.000612      0.000000
    267 O2    s       0.000003      0.000030     -0.000003      0.000000
    268 O2    s       0.000156      0.000117      0.000626      0.000000
    269 O2    s       0.000400     -0.000458      0.000386      0.000000
    270 O2    s       0.000360      0.000255      0.001070      0.000000
    271 O2    s       0.000005      0.000189     -0.000627      0.000000
    272 O2    s       0.000614     -0.000134     -0.000865      0.000000
    273 O2    s       0.000047     -0.000042     -0.000842      0.000000
    274 O2    s      -0.000089     -0.000160     -0.000392      0.000000
    275 O2    s       0.000126      0.000142     -0.000352      0.000000
    276 O2    s       0.000024     -0.000524      0.001907      0.000000
    277 O2    s       0.000360     -0.000157      0.000584      0.000000
    278 O2    s       0.000013      0.000143     -0.000039      0.000000
    279 O2    s       0.000319     -0.000118      0.000123      0.000000
    280 O2    s       0.000106      0.000082      0.000044      0.000000
    281 O2    s       0.000137      0.000059      0.000157      0.000000
    282 O2    s       0.000713     -0.000739      0.000127      0.000000
    283 O2    s       0.000442      0.000257     -0.000169      0.000000
    284 O2    s      -0.000463      0.000521      0.002041      0.000000
    285 O2    s       0.000138     -0.000073     -0.000623      0.000000
    286 O2    s      -0.000125     -0.000330      0.000046      0.000000
    287 O2    s       0.000125      0.000201     -0.000136      0.000000
    288 O2    s       0.000528      0.000211     -0.000083      0.000000
    289 O2    s      -0.000799      0.000103     -0.001899      0.000000
    290 O2    s       0.000220      0.000154     -0.000773      0.000000
    291 O2    s       0.000145      0.000032     -0.000934      0.000000
    292 O2    s       0.000314      0.000162     -0.000525      0.000000
    293 O3    s       0.000104      0.000002     -0.000267      0.000000
    294 O2    s       0.000449     -0.000043      0.001299      0.000000
    295 O2    s       0.000356      0.000079      0.000787      0.000000
    296 O2    s       0.000539     -0.000553     -0.000539      0.000000
    297 O2    s       0.000198     -0.000044      0.000088      0.000000
    298 O2    s      -0.000005      0.000074      0.000513      0.000000
    299 O2    s       0.000300      0.000002      0.000592      0.000000
    300 O2    s       0.000302     -0.000083      0.000902      0.000000
    301 O2    s       0.000124     -0.000054      0.000139      0.000000
    302 O2    s       0.000362      0.000062      0.000002      0.000000
    303 O2    s      -0.000787      0.001303     -0.001416      0.000000
    304 O3    s       0.000386      0.000274     -0.000484      0.000000
    305 O2    s       0.000957     -0.000761      0.000693      0.000000
    306 O2    s       0.000584      0.000011      0.000206      0.000000
    307 F     s       0.000233      0.000121      0.000065      0.000000
    308 F     s       0.000118      0.000028     -0.000032      0.000000
    309 F     s       0.000345     -0.000303      0.000628      0.000000
    310 F     s      -0.000049     -0.000160      0.000193      0.000000
    311 F     s      -0.000669      0.000228     -0.001084      0.000000
    312 F     s       0.000238      0.000137      0.000032      0.000000
--------------------------------------------------------------------------------
  Maximum abs         0.003087      0.002500      0.007440      0.000000
--------------------------------------------------------------------------------


  Time to end of optimisation =      52.0311 seconds


  Peak dynamic memory used =      19.13 MB 


  Timing analysis for GULP :

--------------------------------------------------------------------------------
  Task / Subroutine                                          Time (Seconds)
--------------------------------------------------------------------------------
  Calculation of reciprocal space energy and derivatives          1.3762
  Calculation of real space energy and derivatives               44.9828
  Calculation of three-body energy and derivatives                4.8390
  Calculation of matrix inversion                                 0.7437
--------------------------------------------------------------------------------
  Total CPU time                                                 52.0312
--------------------------------------------------------------------------------


  Dump file written as out.res                                                 
  CIF file written as out.cif                                                 


  Job Finished at 16:31.13 21st October    2016                               

