********************************************************************************
*                       GENERAL UTILITY LATTICE PROGRAM                        *
*                                 Julian Gale                                  *
*                      Nanochemistry Research Institute                        *
*                           Department of Chemistry                            *
*                    Curtin University, Western Australia                      *
********************************************************************************
* Version = 4.2.0 * Last modified =  20th January 2014                         *
********************************************************************************
*  optimise     - perform optimisation run                                     *
*  conp         - constant pressure calculation                                *
*  qok          - running with non charge neutral cell is OK                   *
********************************************************************************

  Job Started  at 06:17.34 22nd October    2016                               

  Number of CPUs =     1


  Total number of configurations input =   1

********************************************************************************
*  Input for Configuration =   1                                               *
********************************************************************************

  Formula = Ge2Si58O120F6                                               

  Number of irreducible atoms/shells =     312


  Total number atoms/shells =     312

  Dimensionality = 3               :  Bulk   


  Charge on solid   =  -6.000000 =>neutralising background added


  Cartesian lattice vectors (Angstroms) :

       11.933489    0.000000    0.000000
       -6.037527   10.385737    0.000000
       -0.160601   -0.160125   29.457544

  Cell parameters (Angstroms/Degrees):

  a =      11.9335    alpha =  90.1123
  b =      12.0131    beta  =  90.3124
  c =      29.4584    gamma = 120.1707

  Initial cell volume =        3650.911545 Angs**3

  Temperature of configuration =  0.000     K 

  Pressure of configuration =         0.000 GPa 

  Fractional coordinates of asymmetric unit :

--------------------------------------------------------------------------------
   No.  Atomic       x           y          z         Charge      Occupancy
        Label      (Frac)      (Frac)     (Frac)        (e)         (Frac)  
--------------------------------------------------------------------------------
      1 Ge    c    0.699600    0.375700    0.033890     4.00000    1.000000    
      2 Si    c    0.624038 *  0.324380 *  0.365193 *   4.00000    1.000000    
      3 Si    c    0.677736 *  0.299185 *  0.698679 *   4.00000    1.000000    
      4 Si    c    0.297531 *  0.620061 *  0.531806 *   4.00000    1.000000    
      5 Si    c    0.377480 *  0.675582 *  0.862967 *   4.00000    1.000000    
      6 Si    c    0.319544 *  0.703866 *  0.196844 *   4.00000    1.000000    
      7 Si    c    0.376263 *  0.699558 *  0.297332 *   4.00000    1.000000    
      8 Si    c    0.320225 *  0.621236 *  0.962955 *   4.00000    1.000000    
      9 Si    c    0.296901 *  0.677603 *  0.631943 *   4.00000    1.000000    
     10 Si    c    0.623175 *  0.298341 *  0.799429 *   4.00000    1.000000    
     11 Si    c    0.674001 *  0.375997 *  0.466259 *   4.00000    1.000000    
     12 Si    c    0.685863 *  0.317529 *  0.132652 *   4.00000    1.000000    
     13 Si    c    0.529335 *  0.417654 *  0.966145 *   4.00000    1.000000    
     14 Si    c    0.584175 *  0.110749 *  0.302027 *   4.00000    1.000000    
     15 Si    c    0.886196 *  0.471738 *  0.633269 *   4.00000    1.000000    
     16 Si    c    0.463176 *  0.579110 *  0.464690 *   4.00000    1.000000    
     17 Si    c    0.416732 *  0.886860 *  0.798948 *   4.00000    1.000000    
     18 Si    c    0.108513 *  0.532296 *  0.129333 *   4.00000    1.000000    
     19 Si    c    0.417079 *  0.529419 *  0.362580 *   4.00000    1.000000    
     20 Si    c    0.104311 *  0.581218 *  0.025995 *   4.00000    1.000000    
     21 Si    c    0.469200 *  0.888231 *  0.697355 *   4.00000    1.000000    
     22 Si    c    0.583053 *  0.469930 *  0.864059 *   4.00000    1.000000    
     23 Si    c    0.884677 *  0.416230 *  0.531778 *   4.00000    1.000000    
     24 Si    c    0.528234 *  0.111839 *  0.200780 *   4.00000    1.000000    
     25 Si    c    0.301126 *  0.398973 *  0.848487 *   4.00000    1.000000    
     26 Si    c    0.600024 *  0.905450 *  0.183411 *   4.00000    1.000000    
     27 Si    c    0.095104 *  0.694832 *  0.515901 *   4.00000    1.000000    
     28 Si    c    0.700415 *  0.601514 *  0.350614 *   4.00000    1.000000    
     29 Si    c    0.398467 *  0.096822 *  0.683893 *   4.00000    1.000000    
     30 Si    c    0.890027 *  0.293959 *  0.011378 *   4.00000    1.000000    
     31 Si    c    0.394189 *  0.299641 *  0.478451 *   4.00000    1.000000    
     32 Si    c    0.892524 *  0.602083 *  0.142301 *   4.00000    1.000000    
     33 Si    c    0.699057 *  0.096738 *  0.813546 *   4.00000    1.000000    
     34 Si    c    0.598930 *  0.698623 *  0.978800 *   4.00000    1.000000    
     35 Si    c    0.095709 *  0.399910 *  0.648167 *   4.00000    1.000000    
     36 Si    c    0.301562 *  0.900868 *  0.314391 *   4.00000    1.000000    
     37 Si    c    0.249719 *  0.341998 *  0.948737 *   4.00000    1.000000    
     38 Si    c    0.659084 *  0.909324 *  0.284071 *   4.00000    1.000000    
     39 Si    c    0.087233 *  0.750033 *  0.616150 *   4.00000    1.000000    
     40 Si    c    0.742681 *  0.654518 *  0.451765 *   4.00000    1.000000    
     41 Si    c    0.340522 *  0.088570 *  0.784330 *   4.00000    1.000000    
     42 Si    c    0.902920 *  0.250370 *  0.114328 *   4.00000    1.000000    
     43 Si    c    0.341493 *  0.251570 *  0.377233 *   4.00000    1.000000    
     44 Si    c    0.899030 *  0.660032 *  0.039803 *   4.00000    1.000000    
     45 Si    c    0.748899 *  0.090250 *  0.712872 *   4.00000    1.000000    
     46 Si    c    0.659167 *  0.748122 *  0.878248 *   4.00000    1.000000    
     47 Si    c    0.087306 *  0.341314 *  0.547547 *   4.00000    1.000000    
     48 Si    c    0.247675 *  0.910998 *  0.213981 *   4.00000    1.000000    
     49 Si    c    0.972244 *  0.121498 *  0.963668 *   4.00000    1.000000    
     50 Si    c    0.876786 *  0.846338 *  0.297512 *   4.00000    1.000000    
     51 Si    c    0.150483 *  0.030092 *  0.632187 *   4.00000    1.000000    
     52 Ge    c    0.026371 *  0.876888 *  0.465080 *   4.00000    1.000000    
     53 Si    c    0.122042 *  0.149710 *  0.798145 *   4.00000    1.000000    
     54 Si    c    0.846854 *  0.973929 *  0.131243 *   4.00000    1.000000    
     55 Si    c    0.122715 *  0.972784 *  0.362102 *   4.00000    1.000000    
     56 Si    c    0.847948 *  0.882701 *  0.029818 *   4.00000    1.000000    
     57 Si    c    0.028777 *  0.151179 *  0.697260 *   4.00000    1.000000    
     58 Si    c    0.878765 *  0.026295 *  0.863134 *   4.00000    1.000000    
     59 Si    c    0.149184 *  0.124711 *  0.531532 *   4.00000    1.000000    
     60 Si    c    0.967031 *  0.850321 *  0.195801 *   4.00000    1.000000    
     61 O2    c    0.928657 *  0.006058 *  0.998761 *   0.87073    1.000000    
     62 O2    c    0.005185 *  0.931111 *  0.326827 *   0.87073    1.000000    
     63 O2    c    0.068865 *  0.071786 *  0.663826 *   0.87073    1.000000    
     64 O3    c    0.064223 *  0.005500 *  0.499599 *   1.33043    1.000000    
     65 O2    c    0.999316 *  0.068955 *  0.830031 *   0.87073    1.000000    
     66 O2    c    0.930586 *  0.936137 *  0.164023 *   0.87073    1.000000    
     67 O2    c    0.339923 *  0.576148 *  0.329199 *   0.87073    1.000000    
     68 O2    c    0.420409 *  0.763044 *  0.664777 *   0.87073    1.000000    
     69 O2    c    0.231998 *  0.657506 *  0.994984 *   0.87073    1.000000    
     70 O2    c    0.660803 *  0.420936 *  0.832232 *   0.87073    1.000000    
     71 O2    c    0.578039 *  0.240559 *  0.171041 *   0.87073    1.000000    
     72 O2    c    0.757486 *  0.337412 *  0.499556 *   0.87073    1.000000    
     73 O3    c    0.566740 *  0.336716 *  0.998530 *   1.33043    1.000000    
     74 O2    c    0.761435 *  0.422503 *  0.666069 *   0.87073    1.000000    
     75 O2    c    0.662804 *  0.237039 *  0.334075 *   0.87073    1.000000    
     76 O2    c    0.417594 *  0.656534 *  0.497821 *   0.87073    1.000000    
     77 O2    c    0.233622 *  0.583515 *  0.162441 *   0.87073    1.000000    
     78 O2    c    0.339237 *  0.760753 *  0.830507 *   0.87073    1.000000    
     79 O2    c    0.126251 *  0.214302 *  0.969336 *   0.87073    1.000000    
     80 O2    c    0.785217 *  0.908344 *  0.304208 *   0.87073    1.000000    
     81 O2    c    0.086400 *  0.875671 *  0.636119 *   0.87073    1.000000    
     82 O3    c    0.863036 *  0.778770 *  0.473739 *   1.33043    1.000000    
     83 O2    c    0.213950 *  0.087879 *  0.804443 *   0.87073    1.000000    
     84 O2    c    0.907429 *  0.128067 *  0.135438 *   0.87073    1.000000    
     85 O2    c    0.216760 *  0.126144 *  0.355555 *   0.87073    1.000000    
     86 O2    c    0.916707 *  0.797742 *  0.024014 *   0.87073    1.000000    
     87 O2    c    0.874010 *  0.088987 *  0.692175 *   0.87073    1.000000    
     88 O2    c    0.786162 *  0.872575 *  0.857626 *   0.87073    1.000000    
     89 O2    c    0.086970 *  0.216177 *  0.527407 *   0.87073    1.000000    
     90 O2    c    0.122251 *  0.913227 *  0.193631 *   0.87073    1.000000    
     91 O2    c    0.918327 *  0.852835 *  0.245795 *   0.87073    1.000000    
     92 O2    c    0.142075 *  0.072747 *  0.581790 *   0.87073    1.000000    
     93 O2    c    0.933984 *  0.062241 *  0.913722 *   0.87073    1.000000    
     94 O2    c    0.069854 *  0.134965 *  0.747247 *   0.87073    1.000000    
     95 O2    c    0.857452 *  0.931917 *  0.081003 *   0.87073    1.000000    
     96 O3    c    0.063127 *  0.937769 *  0.411251 *   1.33043    1.000000    
     97 O2    c    0.901759 *  0.202772 *  0.973563 *   0.87073    1.000000    
     98 O2    c    0.799079 *  0.697105 *  0.312277 *   0.87073    1.000000    
     99 O2    c    0.301854 *  0.099119 *  0.645399 *   0.87073    1.000000    
    100 O3    c    0.102310 *  0.790673 *  0.476385 *   1.33043    1.000000    
    101 O2    c    0.203399 *  0.301416 *  0.809737 *   0.87073    1.000000    
    102 O2    c    0.695580 *  0.904016 *  0.144678 *   0.87073    1.000000    
    103 O2    c    0.204476 *  0.900505 *  0.352981 *   0.87073    1.000000    
    104 O2    c    0.695758 *  0.798513 *  0.017333 *   0.87073    1.000000    
    105 O2    c    0.098104 *  0.303372 *  0.686241 *   0.87073    1.000000    
    106 O2    c    0.797313 *  0.097159 *  0.852041 *   0.87073    1.000000    
    107 O2    c    0.299734 *  0.202854 *  0.517046 *   0.87073    1.000000    
    108 O2    c    0.897694 *  0.701243 *  0.180681 *   0.87073    1.000000    
    109 O2    c    0.318792 *  0.643630 *  0.246562 *   0.87073    1.000000    
    110 O2    c    0.356177 *  0.677208 *  0.582099 *   0.87073    1.000000    
    111 O2    c    0.318243 *  0.676978 *  0.912715 *   0.87073    1.000000    
    112 O2    c    0.679469 *  0.355861 *  0.749194 *   0.87073    1.000000    
    113 O3    c    0.613702 *  0.303578 *  0.085552 *   1.33043    1.000000    
    114 O2    c    0.678624 *  0.322590 *  0.415789 *   0.87073    1.000000    
    115 O2    c    0.371665 *  0.332226 *  0.966544 *   0.87073    1.000000    
    116 O2    c    0.670833 *  0.040979 *  0.303776 *   0.87073    1.000000    
    117 O2    c    0.955340 *  0.627915 *  0.635197 *   0.87073    1.000000    
    118 O2    c    0.619248 *  0.665308 *  0.467941 *   0.87073    1.000000    
    119 O2    c    0.329757 *  0.956042 *  0.802176 *   0.87073    1.000000    
    120 O2    c    0.035844 *  0.376653 *  0.131152 *   0.87073    1.000000    
    121 O2    c    0.331349 *  0.373392 *  0.358870 *   0.87073    1.000000    
    122 O2    c    0.032990 *  0.665318 *  0.024285 *   0.87073    1.000000    
    123 O2    c    0.626045 *  0.957774 *  0.694250 *   0.87073    1.000000    
    124 O2    c    0.668945 *  0.625833 *  0.860190 *   0.87073    1.000000    
    125 O2    c    0.953730 *  0.329498 *  0.528847 *   0.87073    1.000000    
    126 O2    c    0.371385 *  0.042875 *  0.196413 *   0.87073    1.000000    
    127 O3    c    0.754925 *  0.284052 *  0.002459 *   1.33043    1.000000    
    128 O2    c    0.699537 *  0.467190 *  0.342794 *   0.87073    1.000000    
    129 O2    c    0.533292 *  0.230403 *  0.676327 *   0.87073    1.000000    
    130 O2    c    0.229510 *  0.694709 *  0.509560 *   0.87073    1.000000    
    131 O2    c    0.302890 *  0.533073 *  0.839697 *   0.87073    1.000000    
    132 O2    c    0.463422 *  0.773169 *  0.174787 *   0.87073    1.000000    
    133 O2    c    0.300588 *  0.766247 *  0.320355 *   0.87073    1.000000    
    134 O2    c    0.464055 *  0.698976 *  0.985802 *   0.87073    1.000000    
    135 O2    c    0.229232 *  0.535609 *  0.654927 *   0.87073    1.000000    
    136 O2    c    0.698983 *  0.230268 *  0.821415 *   0.87073    1.000000    
    137 O2    c    0.528643 *  0.300361 *  0.486845 *   0.87073    1.000000    
    138 O2    c    0.760728 *  0.467235 *  0.150771 *   0.87073    1.000000    
    139 O3    c    0.772414 *  0.546086 *  0.018643 *   1.33043    1.000000    
    140 O2    c    0.467741 *  0.250356 *  0.358642 *   0.87073    1.000000    
    141 O2    c    0.751564 *  0.217262 *  0.693582 *   0.87073    1.000000    
    142 O2    c    0.214899 *  0.464498 *  0.527737 *   0.87073    1.000000    
    143 O2    c    0.534398 *  0.751011 *  0.858378 *   0.87073    1.000000    
    144 O2    c    0.243386 *  0.783825 *  0.193518 *   0.87073    1.000000    
    145 O2    c    0.532841 *  0.782097 *  0.302443 *   0.87073    1.000000    
    146 O2    c    0.245713 *  0.465754 *  0.968508 *   0.87073    1.000000    
    147 O2    c    0.215231 *  0.752248 *  0.635321 *   0.87073    1.000000    
    148 O2    c    0.466622 *  0.214994 *  0.804044 *   0.87073    1.000000    
    149 O2    c    0.745540 *  0.530989 *  0.471730 *   0.87073    1.000000    
    150 O2    c    0.779729 *  0.254499 *  0.133994 *   0.87073    1.000000    
    151 O2    c    0.227389 *  0.325135 *  0.894364 *   0.87073    1.000000    
    152 O2    c    0.675520 *  0.908900 *  0.229660 *   0.87073    1.000000    
    153 O2    c    0.087180 *  0.767400 *  0.561528 *   0.87073    1.000000    
    154 O2    c    0.770925 *  0.674668 *  0.397493 *   0.87073    1.000000    
    155 O2    c    0.322807 *  0.091322 *  0.729992 *   0.87073    1.000000    
    156 O2    c    0.898580 *  0.233223 *  0.060107 *   0.87073    1.000000    
    157 O2    c    0.321105 *  0.229253 *  0.431472 *   0.87073    1.000000    
    158 O2    c    0.893609 *  0.668806 *  0.095141 *   0.87073    1.000000    
    159 O2    c    0.769465 *  0.092584 *  0.767194 *   0.87073    1.000000    
    160 O2    c    0.675887 *  0.767779 *  0.932688 *   0.87073    1.000000    
    161 O2    c    0.089634 *  0.324694 *  0.601813 *   0.87073    1.000000    
    162 O2    c    0.230263 *  0.907918 *  0.268359 *   0.87073    1.000000    
    163 O2    c    0.581817 *  0.559551 *  0.988603 *   0.87073    1.000000    
    164 O2    c    0.442581 *  0.024054 *  0.324620 *   0.87073    1.000000    
    165 O2    c    0.971026 *  0.415622 *  0.656600 *   0.87073    1.000000    
    166 O2    c    0.405275 *  0.437384 *  0.486727 *   0.87073    1.000000    
    167 O2    c    0.559009 *  0.971576 *  0.822081 *   0.87073    1.000000    
    168 O2    c    0.016243 *  0.583244 *  0.148616 *   0.87073    1.000000    
    169 O2    c    0.561129 *  0.589352 *  0.341295 *   0.87073    1.000000    
    170 O2    c    0.013262 *  0.438756 *  0.005388 *   0.87073    1.000000    
    171 O2    c    0.410872 *  0.971214 *  0.674350 *   0.87073    1.000000    
    172 O2    c    0.440601 *  0.411096 *  0.840854 *   0.87073    1.000000    
    173 O2    c    0.967817 *  0.555556 *  0.507517 *   0.87073    1.000000    
    174 O2    c    0.587536 *  0.031831 *  0.175958 *   0.87073    1.000000    
    175 O2    c    0.581969 *  0.163467 *  0.251625 *   0.87073    1.000000    
    176 O2    c    0.831760 *  0.417269 *  0.582450 *   0.87073    1.000000    
    177 O2    c    0.584496 *  0.421441 *  0.915174 *   0.87073    1.000000    
    178 O2    c    0.416176 *  0.834580 *  0.747922 *   0.87073    1.000000    
    179 O2    c    0.152253 *  0.579042 *  0.077786 *   0.87073    1.000000    
    180 O2    c    0.411628 *  0.580006 *  0.413411 *   0.87073    1.000000    
    181 F     c    0.449196 *  0.902543 *  0.248332 *   0.56000    1.000000    
    182 F     c    0.094131 *  0.548656 *  0.581399 *   0.56000    1.000000    
    183 F     c    0.447347 *  0.551252 *  0.913065 *   0.56000    1.000000    
    184 F     c    0.548407 *  0.096150 *  0.748135 *   0.56000    1.000000    
    185 F     c    0.851955 *  0.434986 *  0.070006 *   0.56000    1.000000    
    186 F     c    0.547369 *  0.451163 *  0.413965 *   0.56000    1.000000    
    187 O2    s    0.924364 *  0.005066 *  0.998330 *  -2.87073    1.000000    
    188 O2    s    0.003552 *  0.926054 *  0.327386 *  -2.87073    1.000000    
    189 O2    s    0.073498 *  0.075963 *  0.664019 *  -2.87073    1.000000    
    190 O3    s    0.070180 *  0.007199 *  0.500049 *  -3.33043    1.000000    
    191 O2    s    0.999553 *  0.073230 *  0.830165 *  -2.87073    1.000000    
    192 O2    s    0.925435 *  0.930839 *  0.163937 *  -2.87073    1.000000    
    193 O2    s    0.351525 *  0.584102 *  0.329305 *  -2.87073    1.000000    
    194 O2    s    0.412601 *  0.767088 *  0.664712 *  -2.87073    1.000000    
    195 O2    s    0.227389 *  0.645821 *  0.995029 *  -2.87073    1.000000    
    196 O2    s    0.648998 *  0.413265 *  0.832080 *  -2.87073    1.000000    
    197 O2    s    0.584025 *  0.234924 *  0.170178 *  -2.87073    1.000000    
    198 O2    s    0.761829 *  0.349465 *  0.499387 *  -2.87073    1.000000    
    199 O3    s    0.572878 *  0.348189 *  0.997807 *  -3.33043    1.000000    
    200 O2    s    0.765774 *  0.415041 *  0.666024 *  -2.87073    1.000000    
    201 O2    s    0.650741 *  0.232861 *  0.333935 *  -2.87073    1.000000    
    202 O2    s    0.409949 *  0.644734 *  0.497886 *  -2.87073    1.000000    
    203 O2    s    0.229105 *  0.590191 *  0.162431 *  -2.87073    1.000000    
    204 O2    s    0.351206 *  0.765153 *  0.830552 *  -2.87073    1.000000    
    205 O2    s    0.122261 *  0.217414 *  0.966612 *  -2.87073    1.000000    
    206 O2    s    0.781765 *  0.901851 *  0.301426 *  -2.87073    1.000000    
    207 O2    s    0.093235 *  0.878977 *  0.633664 *  -2.87073    1.000000    
    208 O3    s    0.864406 *  0.774318 *  0.470822 *  -3.33043    1.000000    
    209 O2    s    0.217329 *  0.094522 *  0.801711 *  -2.87073    1.000000    
    210 O2    s    0.900603 *  0.124575 *  0.132840 *  -2.87073    1.000000    
    211 O2    s    0.219870 *  0.123083 *  0.358479 *  -2.87073    1.000000    
    212 O2    s    0.907491 *  0.792943 *  0.026217 *  -2.87073    1.000000    
    213 O2    s    0.877618 *  0.095789 *  0.694833 *  -2.87073    1.000000    
    214 O2    s    0.782940 *  0.876136 *  0.860313 *  -2.87073    1.000000    
    215 O2    s    0.093694 *  0.219692 *  0.529972 *  -2.87073    1.000000    
    216 O2    s    0.118643 *  0.906247 *  0.195958 *  -2.87073    1.000000    
    217 O2    s    0.919185 *  0.851810 *  0.245945 *  -2.87073    1.000000    
    218 O2    s    0.143832 *  0.073743 *  0.581871 *  -2.87073    1.000000    
    219 O2    s    0.932068 *  0.064884 *  0.913653 *  -2.87073    1.000000    
    220 O2    s    0.071063 *  0.138484 *  0.747297 *  -2.87073    1.000000    
    221 O2    s    0.855174 *  0.931322 *  0.081121 *  -2.87073    1.000000    
    222 O3    s    0.066420 *  0.936288 *  0.410562 *  -3.33043    1.000000    
    223 O2    s    0.908266 *  0.203449 *  0.976448 *  -2.87073    1.000000    
    224 O2    s    0.797275 *  0.703232 *  0.314623 *  -2.87073    1.000000    
    225 O2    s    0.295478 *  0.091440 *  0.647942 *  -2.87073    1.000000    
    226 O3    s    0.095333 *  0.788675 *  0.479226 *  -3.33043    1.000000    
    227 O2    s    0.204664 *  0.295144 *  0.812449 *  -2.87073    1.000000    
    228 O2    s    0.701778 *  0.911562 *  0.147241 *  -2.87073    1.000000    
    229 O2    s    0.205923 *  0.907938 *  0.350014 *  -2.87073    1.000000    
    230 O2    s    0.702133 *  0.797370 *  0.014762 *  -2.87073    1.000000    
    231 O2    s    0.090619 *  0.297323 *  0.683506 *  -2.87073    1.000000    
    232 O2    s    0.795897 *  0.089623 *  0.849282 *  -2.87073    1.000000    
    233 O2    s    0.293648 *  0.204674 *  0.514536 *  -2.87073    1.000000    
    234 O2    s    0.904584 *  0.706877 *  0.178288 *  -2.87073    1.000000    
    235 O2    s    0.324592 *  0.655311 *  0.246593 *  -2.87073    1.000000    
    236 O2    s    0.344213 *  0.671398 *  0.581979 *  -2.87073    1.000000    
    237 O2    s    0.324421 *  0.671102 *  0.912827 *  -2.87073    1.000000    
    238 O2    s    0.673595 *  0.344249 *  0.749128 *  -2.87073    1.000000    
    239 O3    s    0.626774 *  0.309788 *  0.086911 *  -3.33043    1.000000    
    240 O2    s    0.672535 *  0.328256 *  0.415739 *  -2.87073    1.000000    
    241 O2    s    0.374179 *  0.342059 *  0.964495 *  -2.87073    1.000000    
    242 O2    s    0.660694 *  0.034399 *  0.301535 *  -2.87073    1.000000    
    243 O2    s    0.961950 *  0.624574 *  0.633009 *  -2.87073    1.000000    
    244 O2    s    0.615697 *  0.654939 *  0.465843 *  -2.87073    1.000000    
    245 O2    s    0.339837 *  0.962847 *  0.799959 *  -2.87073    1.000000    
    246 O2    s    0.029691 *  0.379835 *  0.129228 *  -2.87073    1.000000    
    247 O2    s    0.341259 *  0.376733 *  0.361191 *  -2.87073    1.000000    
    248 O2    s    0.027153 *  0.655867 *  0.026015 *  -2.87073    1.000000    
    249 O2    s    0.622740 *  0.964522 *  0.696539 *  -2.87073    1.000000    
    250 O2    s    0.659071 *  0.622635 *  0.862492 *  -2.87073    1.000000    
    251 O2    s    0.960567 *  0.339749 *  0.531118 *  -2.87073    1.000000    
    252 O2    s    0.374400 *  0.035954 *  0.198738 *  -2.87073    1.000000    
    253 O3    s    0.765637 *  0.291159 *  0.005558 *  -3.33043    1.000000    
    254 O2    s    0.691881 *  0.466460 *  0.345933 *  -2.87073    1.000000    
    255 O2    s    0.534006 *  0.223439 *  0.679463 *  -2.87073    1.000000    
    256 O2    s    0.222377 *  0.686852 *  0.512614 *  -2.87073    1.000000    
    257 O2    s    0.310343 *  0.533622 *  0.843033 *  -2.87073    1.000000    
    258 O2    s    0.462734 *  0.779744 *  0.177996 *  -2.87073    1.000000    
    259 O2    s    0.308406 *  0.773502 *  0.317340 *  -2.87073    1.000000    
    260 O2    s    0.463164 *  0.690971 *  0.982701 *  -2.87073    1.000000    
    261 O2    s    0.222061 *  0.535838 *  0.651826 *  -2.87073    1.000000    
    262 O2    s    0.691215 *  0.223257 *  0.818300 *  -2.87073    1.000000    
    263 O2    s    0.529548 *  0.308149 *  0.483766 *  -2.87073    1.000000    
    264 O2    s    0.767447 *  0.466989 *  0.148059 *  -2.87073    1.000000    
    265 O3    s    0.782036 *  0.548219 *  0.021854 *  -3.33043    1.000000    
    266 O2    s    0.470443 *  0.258320 *  0.361307 *  -2.87073    1.000000    
    267 O2    s    0.743491 *  0.212043 *  0.696166 *  -2.87073    1.000000    
    268 O2    s    0.209671 *  0.467569 *  0.530293 *  -2.87073    1.000000    
    269 O2    s    0.531562 *  0.742757 *  0.860981 *  -2.87073    1.000000    
    270 O2    s    0.251836 *  0.789041 *  0.196028 *  -2.87073    1.000000    
    271 O2    s    0.530105 *  0.787362 *  0.299926 *  -2.87073    1.000000    
    272 O2    s    0.253915 *  0.468793 *  0.965864 *  -2.87073    1.000000    
    273 O2    s    0.209764 *  0.744136 *  0.632907 *  -2.87073    1.000000    
    274 O2    s    0.469330 *  0.209891 *  0.801444 *  -2.87073    1.000000    
    275 O2    s    0.737539 *  0.527860 *  0.469014 *  -2.87073    1.000000    
    276 O2    s    0.783958 *  0.260423 *  0.131694 *  -2.87073    1.000000    
    277 O2    s    0.237413 *  0.334639 *  0.895278 *  -2.87073    1.000000    
    278 O2    s    0.665815 *  0.908579 *  0.230556 *  -2.87073    1.000000    
    279 O2    s    0.087913 *  0.758298 *  0.562531 *  -2.87073    1.000000    
    280 O2    s    0.760816 *  0.665037 *  0.398107 *  -2.87073    1.000000    
    281 O2    s    0.332641 *  0.091607 *  0.730895 *  -2.87073    1.000000    
    282 O2    s    0.898167 *  0.241044 *  0.061181 *  -2.87073    1.000000    
    283 O2    s    0.330775 *  0.238821 *  0.430679 *  -2.87073    1.000000    
    284 O2    s    0.893924 *  0.660485 *  0.094885 *  -2.87073    1.000000    
    285 O2    s    0.759961 *  0.092775 *  0.766262 *  -2.87073    1.000000    
    286 O2    s    0.666134 *  0.758536 *  0.931734 *  -2.87073    1.000000    
    287 O2    s    0.090016 *  0.334401 *  0.600910 *  -2.87073    1.000000    
    288 O2    s    0.239515 *  0.907515 *  0.267350 *  -2.87073    1.000000    
    289 O2    s    0.578079 *  0.560391 *  0.985221 *  -2.87073    1.000000    
    290 O2    s    0.442276 *  0.019718 *  0.321156 *  -2.87073    1.000000    
    291 O2    s    0.975826 *  0.419970 *  0.653254 *  -2.87073    1.000000    
    292 O2    s    0.410316 *  0.437354 *  0.483483 *  -2.87073    1.000000    
    293 O2    s    0.559248 *  0.976416 *  0.818729 *  -2.87073    1.000000    
    294 O2    s    0.012824 *  0.579662 *  0.145864 *  -2.87073    1.000000    
    295 O2    s    0.560984 *  0.584232 *  0.344524 *  -2.87073    1.000000    
    296 O2    s    0.010278 *  0.439308 *  0.008228 *  -2.87073    1.000000    
    297 O2    s    0.415809 *  0.976250 *  0.677788 *  -2.87073    1.000000    
    298 O2    s    0.440456 *  0.416085 *  0.844097 *  -2.87073    1.000000    
    299 O2    s    0.972951 *  0.556013 *  0.510919 *  -2.87073    1.000000    
    300 O2    s    0.582601 *  0.026352 *  0.179312 *  -2.87073    1.000000    
    301 O2    s    0.576481 *  0.152385 *  0.251580 *  -2.87073    1.000000    
    302 O2    s    0.842865 *  0.422795 *  0.582444 *  -2.87073    1.000000    
    303 O2    s    0.578839 *  0.426234 *  0.914897 *  -2.87073    1.000000    
    304 O2    s    0.421773 *  0.845608 *  0.747928 *  -2.87073    1.000000    
    305 O2    s    0.142778 *  0.574290 *  0.078033 *  -2.87073    1.000000    
    306 O2    s    0.417425 *  0.574710 *  0.413440 *  -2.87073    1.000000    
    307 F     s    0.448888 *  0.902117 *  0.248255 *  -1.56000    1.000000    
    308 F     s    0.094476 *  0.548875 *  0.581314 *  -1.56000    1.000000    
    309 F     s    0.446737 *  0.551790 *  0.912981 *  -1.56000    1.000000    
    310 F     s    0.548589 *  0.096497 *  0.748074 *  -1.56000    1.000000    
    311 F     s    0.842000 *  0.431112 *  0.067824 *  -1.56000    1.000000    
    312 F     s    0.547669 *  0.451043 *  0.413909 *  -1.56000    1.000000    
--------------------------------------------------------------------------------



********************************************************************************
*  General input information                                                   *
********************************************************************************

  Species output for all configurations : 

--------------------------------------------------------------------------------
  Species    Type    Atomic    Atomic    Charge       Radii (Angs)     Library
                     Number     Mass       (e)     Cova   Ionic  VDW   Symbol
--------------------------------------------------------------------------------
    Si       Core       14      28.09   4.000000   1.200  0.000  2.100          
    O1       Core        8      16.00   1.733957   0.730  0.000  1.360          
    O1       Shell       8       0.00  -3.733957   0.730  0.000  1.360          
    O2       Core        8      16.00   0.870733   0.730  0.000  1.360          
    O2       Shell       8       0.00  -2.870733   0.730  0.000  1.360          
    O3       Core        8      16.00   1.330431   0.730  0.000  1.360          
    O3       Shell       8       0.00  -3.330431   0.730  0.000  1.360          
    F        Core        9      19.00   0.560000   0.710  0.000  1.300          
    F        Shell       9       0.00  -1.560000   0.710  0.000  1.300          
    Ge       Core       32      72.61   4.000000   1.170  0.000  1.750          
--------------------------------------------------------------------------------


  Lattice summation method               =    Ewald          (3-D)
                                         =    Parry          (2-D)
                                         =    Saunders et al (1-D)
  Accuracy factor for lattice sums       =   12.000


  Time limit = Infinity

  Maximum range for interatomic potentials =        16.000000 Angstroms

  Taper potentials to zero over   1.0000 Angstroms using polynomial

  General interatomic potentials :

--------------------------------------------------------------------------------
Atom  Types   Potential         A         B         C         D     Cutoffs(Ang)
  1     2                                                            Min    Max 
--------------------------------------------------------------------------------
Si   c O1   s Buckingham    0.132E+04 0.318      10.1      0.00     0.000 16.000
Si   c O2   s Buckingham    0.132E+04 0.318      10.1      0.00     0.000 16.000
Si   c O3   s Buckingham    0.132E+04 0.318      10.1      0.00     0.000 16.000
Ge   c O1   s Buckingham    0.150E+04 0.326      16.8      0.00     0.000 16.000
Ge   c O2   s Buckingham    0.150E+04 0.326      16.8      0.00     0.000 16.000
Ge   c O3   s Buckingham    0.150E+04 0.326      16.8      0.00     0.000 16.000
O1   s O1   s Buckingham    0.228E+05 0.149      10.9      0.00     0.000 16.000
O1   s O2   s Buckingham    0.228E+05 0.149      10.9      0.00     0.000 16.000
O1   s O3   s Buckingham    0.228E+05 0.149      10.9      0.00     0.000 16.000
O2   s O2   s Buckingham    0.228E+05 0.149      10.9      0.00     0.000 16.000
O2   s O3   s Buckingham    0.228E+05 0.149      10.9      0.00     0.000 16.000
O3   s O3   s Buckingham    0.228E+05 0.149      10.9      0.00     0.000 16.000
Si   c F    s Buckingham     977.     0.282      0.00      0.00     0.000 16.000
Ge   c F    s Buckingham     681.     0.320      0.00      0.00     0.000 16.000
F    s F    s Buckingham     540.     0.262      0.00      0.00     0.000 16.000
O1   s F    s Buckingham    0.168E+04 0.268      0.00      0.00     0.000 16.000
O2   s F    s Buckingham    0.168E+04 0.268      0.00      0.00     0.000 16.000
O3   s F    s Buckingham    0.168E+04 0.268      0.00      0.00     0.000 16.000
O2   c O2   s Spring (c-s)   76.0      0.00      0.00      0.00     0.000  0.800
O3   c O3   s Spring (c-s)   128.      0.00      0.00      0.00     0.000  0.800
O1   c O1   s Spring (c-s)   180.      0.00      0.00      0.00     0.000  0.800
F    c F    s Spring (c-s)   33.5      0.00      0.00      0.00     0.000  0.800
--------------------------------------------------------------------------------

  General Three-body potentials :

  Harmonic form:

--------------------------------------------------------------------------------
Atom    Atom    Atom           Force Constants            Theta     Cutoffs  
  1       2       3     (eVrad**-2/eVrad**-3/eVrad**-4)   (deg)  1-2  1-3  2-3
--------------------------------------------------------------------------------
Si    c O1    s O1    s  1.261        0.0000    0.0000   109.470 0.00 0.00 0.00
                                                                 1.90 1.90 3.50
Si    c O1    s O2    s  1.261        0.0000    0.0000   109.470 0.00 0.00 0.00
                                                                 1.90 1.90 3.50
Si    c O2    s O2    s  1.261        0.0000    0.0000   109.470 0.00 0.00 0.00
                                                                 1.90 1.90 3.50
--------------------------------------------------------------------------------

********************************************************************************
*  Output for configuration   1                                                *
********************************************************************************


  Components of energy : 

--------------------------------------------------------------------------------
  Interatomic potentials     =        2062.91376318 eV
  Three-body potentials      =           0.46799408 eV
  Monopole - monopole (real) =       -6640.06971334 eV
  Monopole - monopole (recip)=       -3149.74346256 eV
  Monopole - monopole (total)=       -9789.81317591 eV
  Neutralising energy        =          -6.46350627 eV
--------------------------------------------------------------------------------
  Total lattice energy       =       -7732.89492493 eV
--------------------------------------------------------------------------------
  Total lattice energy       =         -746106.1521 kJ/(mole unit cells)
--------------------------------------------------------------------------------


  Number of variables =      939

  Maximum number of calculations  =          5000
  Maximum Hessian update interval =            10
  Maximum step size               =   0.100000000
  Maximum parameter tolerance     =   0.000010000
  Maximum function  tolerance     =   0.000010000
  Maximum gradient  tolerance     =   0.001000000
  Maximum gradient  component     =   0.010000000

  Symmetry not applied to optimisation

  Cell parameters to be optimised using strains

  Newton-Raphson optimiser to be used

  BFGS hessian update to be used

  Dumpfile to be written after every cycle

  Start of bulk optimisation :

  Cycle:      0 Energy:     -7732.894925  Gnorm:      0.007403  CPU:    2.025
  ** Hessian calculated **
  Cycle:      1 Energy:     -7732.916496  Gnorm:      0.006594  CPU:    6.620
  Cycle:      2 Energy:     -7732.942402  Gnorm:      0.005470  CPU:   10.840
  Cycle:      3 Energy:     -7732.971184  Gnorm:      0.003899  CPU:   15.060
  Cycle:      4 Energy:     -7732.990179  Gnorm:      0.002376  CPU:   19.280
  Cycle:      5 Energy:     -7732.994762  Gnorm:      0.001414  CPU:   23.501
  Cycle:      6 Energy:     -7732.995900  Gnorm:      0.000779  CPU:   27.721
  Cycle:      7 Energy:     -7732.996186  Gnorm:      0.000413  CPU:   31.941
  Cycle:      8 Energy:     -7732.996258  Gnorm:      0.000214  CPU:   36.162
  Cycle:      9 Energy:     -7732.996270  Gnorm:      0.000151  CPU:   39.013
  Cycle:     10 Energy:     -7732.996276  Gnorm:      0.000106  CPU:   41.862
  ** Hessian calculated **
  Cycle:     11 Energy:     -7732.996276  Gnorm:      0.000051  CPU:   46.413
  Cycle:     12 Energy:     -7732.996276  Gnorm:      0.000037  CPU:   49.262
  Cycle:     13 Energy:     -7732.996276  Gnorm:      0.000028  CPU:   52.110


  **** Optimisation achieved ****


  Final energy =   -7732.99627648 eV
  Final Gnorm  =       0.00002255

  Components of energy : 

--------------------------------------------------------------------------------
  Interatomic potentials     =        2063.20581730 eV
  Three-body potentials      =           0.47048528 eV
  Monopole - monopole (real) =       -6641.46338807 eV
  Monopole - monopole (recip)=       -3148.74772451 eV
  Monopole - monopole (total)=       -9790.21111258 eV
  Neutralising energy        =          -6.46146647 eV
--------------------------------------------------------------------------------
  Total lattice energy       =       -7732.99627648 eV
--------------------------------------------------------------------------------
  Total lattice energy       =         -746115.9310 kJ/(mole unit cells)
--------------------------------------------------------------------------------

  Final fractional coordinates of atoms :

--------------------------------------------------------------------------------
   No.  Atomic        x           y          z          Radius
        Label       (Frac)      (Frac)     (Frac)       (Angs) 
--------------------------------------------------------------------------------
     1  Ge    c     0.699600    0.375700    0.033890    0.000000
     2  Si    c     0.598663    0.307415    0.364871    0.000000
     3  Si    c     0.658199    0.285780    0.698303    0.000000
     4  Si    c     0.273079    0.604490    0.531210    0.000000
     5  Si    c     0.361552    0.663108    0.862743    0.000000
     6  Si    c     0.298809    0.690939    0.196962    0.000000
     7  Si    c     0.352609    0.684306    0.297463    0.000000
     8  Si    c     0.307078    0.609510    0.962963    0.000000
     9  Si    c     0.277000    0.664993    0.631360    0.000000
    10  Si    c     0.605266    0.285421    0.799168    0.000000
    11  Si    c     0.648722    0.359376    0.465999    0.000000
    12  Si    c     0.667366    0.305123    0.132072    0.000000
    13  Si    c     0.520171    0.408407    0.966384    0.000000
    14  Si    c     0.559930    0.095006    0.301544    0.000000
    15  Si    c     0.865985    0.458867    0.633068    0.000000
    16  Si    c     0.437093    0.561278    0.464155    0.000000
    17  Si    c     0.399505    0.873933    0.798531    0.000000
    18  Si    c     0.090077    0.518855    0.129815    0.000000
    19  Si    c     0.391138    0.511487    0.362070    0.000000
    20  Si    c     0.093221    0.572741    0.026603    0.000000
    21  Si    c     0.450900    0.875663    0.696683    0.000000
    22  Si    c     0.568673    0.459290    0.863656    0.000000
    23  Si    c     0.860589    0.401186    0.531569    0.000000
    24  Si    c     0.506151    0.098026    0.199976    0.000000
    25  Si    c     0.286539    0.387246    0.848278    0.000000
    26  Si    c     0.578456    0.891783    0.183074    0.000000
    27  Si    c     0.070775    0.679259    0.515626    0.000000
    28  Si    c     0.674347    0.583998    0.349961    0.000000
    29  Si    c     0.379426    0.083821    0.683280    0.000000
    30  Si    c     0.880811    0.285411    0.010793    0.000000
    31  Si    c     0.368611    0.282265    0.477754    0.000000
    32  Si    c     0.874601    0.589272    0.142675    0.000000
    33  Si    c     0.681509    0.083912    0.813255    0.000000
    34  Si    c     0.586323    0.688532    0.978161    0.000000
    35  Si    c     0.075886    0.387457    0.647787    0.000000
    36  Si    c     0.277586    0.885349    0.314178    0.000000
    37  Si    c     0.239525    0.331551    0.948850    0.000000
    38  Si    c     0.635051    0.893741    0.283985    0.000000
    39  Si    c     0.066401    0.736676    0.615829    0.000000
    40  Si    c     0.716967    0.637629    0.451160    0.000000
    41  Si    c     0.323128    0.075607    0.783931    0.000000
    42  Si    c     0.885117    0.237954    0.114178    0.000000
    43  Si    c     0.316014    0.234223    0.376525    0.000000
    44  Si    c     0.892111    0.657260    0.040364    0.000000
    45  Si    c     0.730295    0.077685    0.712411    0.000000
    46  Si    c     0.643713    0.736827    0.877420    0.000000
    47  Si    c     0.063563    0.326134    0.547195    0.000000
    48  Si    c     0.225879    0.896980    0.213536    0.000000
    49  Si    c     0.961384    0.112257    0.962995    0.000000
    50  Si    c     0.851673    0.829257    0.297387    0.000000
    51  Si    c     0.130395    0.016626    0.632032    0.000000
    52  Ge    c     0.000442    0.860769    0.465071    0.000000
    53  Si    c     0.105947    0.138410    0.797890    0.000000
    54  Si    c     0.826178    0.961146    0.131304    0.000000
    55  Si    c     0.097913    0.955934    0.362015    0.000000
    56  Si    c     0.834564    0.874951    0.029770    0.000000
    57  Si    c     0.010650    0.139476    0.697099    0.000000
    58  Si    c     0.862778    0.015003    0.862857    0.000000
    59  Si    c     0.123782    0.108264    0.531216    0.000000
    60  Si    c     0.944979    0.835685    0.195950    0.000000
    61  O2    c     0.915543    0.998346    0.998883    0.000000
    62  O2    c     0.979160    0.912221    0.327195    0.000000
    63  O2    c     0.050364    0.059302    0.663997    0.000000
    64  O3    c     0.036464    0.988033    0.500042    0.000000
    65  O2    c     0.983187    0.058323    0.829745    0.000000
    66  O2    c     0.907983    0.920976    0.164075    0.000000
    67  O2    c     0.314817    0.559860    0.328919    0.000000
    68  O2    c     0.401189    0.750789    0.663894    0.000000
    69  O2    c     0.220804    0.646973    0.995570    0.000000
    70  O2    c     0.644550    0.408523    0.831703    0.000000
    71  O2    c     0.557413    0.226501    0.169787    0.000000
    72  O2    c     0.732831    0.322019    0.499621    0.000000
    73  O3    c     0.563753    0.332971    0.998435    0.000000
    74  O2    c     0.741613    0.409697    0.665954    0.000000
    75  O2    c     0.638010    0.220656    0.333761    0.000000
    76  O2    c     0.392280    0.639604    0.497008    0.000000
    77  O2    c     0.214138    0.569357    0.163174    0.000000
    78  O2    c     0.322560    0.747895    0.830197    0.000000
    79  O2    c     0.115549    0.202552    0.968774    0.000000
    80  O2    c     0.760756    0.891921    0.304169    0.000000
    81  O2    c     0.066415    0.862373    0.636000    0.000000
    82  O3    c     0.836888    0.762230    0.472966    0.000000
    83  O2    c     0.196619    0.075121    0.803999    0.000000
    84  O2    c     0.887461    0.115047    0.135774    0.000000
    85  O2    c     0.191510    0.108957    0.354818    0.000000
    86  O2    c     0.908684    0.794471    0.025194    0.000000
    87  O2    c     0.855958    0.077117    0.691949    0.000000
    88  O2    c     0.770635    0.861651    0.856997    0.000000
    89  O2    c     0.062329    0.200492    0.527250    0.000000
    90  O2    c     0.100155    0.899392    0.193507    0.000000
    91  O2    c     0.895067    0.837524    0.245802    0.000000
    92  O2    c     0.119473    0.058242    0.581666    0.000000
    93  O2    c     0.919404    0.051232    0.913397    0.000000
    94  O2    c     0.053083    0.124776    0.747103    0.000000
    95  O2    c     0.838571    0.921990    0.080859    0.000000
    96  O3    c     0.039720    0.923133    0.411420    0.000000
    97  O2    c     0.893948    0.196468    0.972714    0.000000
    98  O2    c     0.772723    0.679652    0.311547    0.000000
    99  O2    c     0.282062    0.085427    0.644822    0.000000
   100  O3    c     0.076480    0.774588    0.476116    0.000000
   101  O2    c     0.188232    0.289604    0.809742    0.000000
   102  O2    c     0.674718    0.891461    0.144388    0.000000
   103  O2    c     0.180085    0.884214    0.352744    0.000000
   104  O2    c     0.683787    0.788916    0.016364    0.000000
   105  O2    c     0.079595    0.291373    0.685831    0.000000
   106  O2    c     0.780221    0.084861    0.851815    0.000000
   107  O2    c     0.273596    0.184733    0.516062    0.000000
   108  O2    c     0.877167    0.686745    0.181119    0.000000
   109  O2    c     0.296761    0.629686    0.246570    0.000000
   110  O2    c     0.333839    0.662957    0.581204    0.000000
   111  O2    c     0.302734    0.664342    0.912648    0.000000
   112  O2    c     0.660354    0.342402    0.748780    0.000000
   113  O3    c     0.603993    0.298332    0.084118    0.000000
   114  O2    c     0.653352    0.305815    0.415560    0.000000
   115  O2    c     0.362020    0.322950    0.966912    0.000000
   116  O2    c     0.646796    0.025464    0.303373    0.000000
   117  O2    c     0.934868    0.614800    0.635044    0.000000
   118  O2    c     0.593043    0.647422    0.467267    0.000000
   119  O2    c     0.312445    0.943065    0.801735    0.000000
   120  O2    c     0.017093    0.363494    0.131696    0.000000
   121  O2    c     0.305413    0.355756    0.358032    0.000000
   122  O2    c     0.025521    0.660592    0.025494    0.000000
   123  O2    c     0.607765    0.945406    0.693572    0.000000
   124  O2    c     0.653967    0.615012    0.859274    0.000000
   125  O2    c     0.929810    0.314591    0.528737    0.000000
   126  O2    c     0.349272    0.028814    0.195654    0.000000
   127  O3    c     0.747721    0.279217    0.002014    0.000000
   128  O2    c     0.673905    0.450000    0.342352    0.000000
   129  O2    c     0.514025    0.217305    0.675712    0.000000
   130  O2    c     0.204972    0.679024    0.508798    0.000000
   131  O2    c     0.286997    0.520739    0.839580    0.000000
   132  O2    c     0.442098    0.759906    0.174462    0.000000
   133  O2    c     0.276639    0.750864    0.320248    0.000000
   134  O2    c     0.451238    0.688235    0.985415    0.000000
   135  O2    c     0.209433    0.522995    0.654291    0.000000
   136  O2    c     0.681011    0.217042    0.821064    0.000000
   137  O2    c     0.503248    0.283375    0.486441    0.000000
   138  O2    c     0.743038    0.454420    0.150699    0.000000
   139  O3    c     0.767984    0.543406    0.017861    0.000000
   140  O2    c     0.442460    0.233111    0.358108    0.000000
   141  O2    c     0.732672    0.204488    0.693020    0.000000
   142  O2    c     0.190606    0.449095    0.527160    0.000000
   143  O2    c     0.518398    0.739127    0.857698    0.000000
   144  O2    c     0.221672    0.770060    0.193023    0.000000
   145  O2    c     0.509023    0.767113    0.302711    0.000000
   146  O2    c     0.233541    0.454145    0.968751    0.000000
   147  O2    c     0.194899    0.739103    0.634675    0.000000
   148  O2    c     0.448828    0.201747    0.803831    0.000000
   149  O2    c     0.719761    0.514142    0.471193    0.000000
   150  O2    c     0.761050    0.241684    0.132989    0.000000
   151  O2    c     0.215458    0.313879    0.894538    0.000000
   152  O2    c     0.652362    0.893700    0.229577    0.000000
   153  O2    c     0.064393    0.753033    0.561149    0.000000
   154  O2    c     0.744551    0.657176    0.396828    0.000000
   155  O2    c     0.304713    0.078534    0.729584    0.000000
   156  O2    c     0.885435    0.223338    0.059850    0.000000
   157  O2    c     0.295573    0.211976    0.430793    0.000000
   158  O2    c     0.878473    0.658529    0.095604    0.000000
   159  O2    c     0.751217    0.079745    0.766753    0.000000
   160  O2    c     0.661683    0.757320    0.931801    0.000000
   161  O2    c     0.067941    0.311300    0.601519    0.000000
   162  O2    c     0.207534    0.893270    0.267914    0.000000
   163  O2    c     0.570830    0.550641    0.988220    0.000000
   164  O2    c     0.418584    0.008210    0.324223    0.000000
   165  O2    c     0.951557    0.403478    0.656439    0.000000
   166  O2    c     0.379285    0.419625    0.486250    0.000000
   167  O2    c     0.541653    0.958743    0.821678    0.000000
   168  O2    c     0.998090    0.570219    0.148993    0.000000
   169  O2    c     0.534882    0.571302    0.340601    0.000000
   170  O2    c     0.001950    0.431486    0.005463    0.000000
   171  O2    c     0.392281    0.958579    0.673770    0.000000
   172  O2    c     0.426248    0.400407    0.840423    0.000000
   173  O2    c     0.943204    0.540406    0.507264    0.000000
   174  O2    c     0.565828    0.018035    0.175615    0.000000
   175  O2    c     0.558178    0.148389    0.251081    0.000000
   176  O2    c     0.809816    0.403539    0.582461    0.000000
   177  O2    c     0.572095    0.412325    0.914776    0.000000
   178  O2    c     0.398780    0.822089    0.747394    0.000000
   179  O2    c     0.137372    0.566890    0.078590    0.000000
   180  O2    c     0.385105    0.561457    0.412873    0.000000
   181  F     c     0.425810    0.887307    0.247850    0.000000
   182  F     c     0.072033    0.535285    0.580785    0.000000
   183  F     c     0.433221    0.540933    0.912707    0.000000
   184  F     c     0.530309    0.083413    0.747517    0.000000
   185  F     c     0.844766    0.429703    0.070472    0.000000
   186  F     c     0.520826    0.433008    0.413336    0.000000
   187  O2    s     0.911417    0.997105    0.998355    0.000000
   188  O2    s     0.977779    0.907587    0.327650    0.000000
   189  O2    s     0.054881    0.063446    0.664111    0.000000
   190  O3    s     0.042796    0.989966    0.500368    0.000000
   191  O2    s     0.983429    0.062467    0.829893    0.000000
   192  O2    s     0.903056    0.915996    0.163986    0.000000
   193  O2    s     0.326520    0.567795    0.329039    0.000000
   194  O2    s     0.393420    0.754700    0.663872    0.000000
   195  O2    s     0.215892    0.635354    0.995598    0.000000
   196  O2    s     0.632767    0.400953    0.831577    0.000000
   197  O2    s     0.563428    0.221127    0.169043    0.000000
   198  O2    s     0.737160    0.333946    0.499395    0.000000
   199  O3    s     0.568671    0.344294    0.997464    0.000000
   200  O2    s     0.745969    0.402155    0.665863    0.000000
   201  O2    s     0.625951    0.216479    0.333596    0.000000
   202  O2    s     0.384654    0.627827    0.497122    0.000000
   203  O2    s     0.209522    0.576268    0.163056    0.000000
   204  O2    s     0.334517    0.752356    0.830227    0.000000
   205  O2    s     0.111429    0.205888    0.966139    0.000000
   206  O2    s     0.757287    0.885462    0.301371    0.000000
   207  O2    s     0.073142    0.865647    0.633524    0.000000
   208  O3    s     0.838311    0.757774    0.470115    0.000000
   209  O2    s     0.200098    0.081900    0.801295    0.000000
   210  O2    s     0.880786    0.111632    0.133090    0.000000
   211  O2    s     0.194646    0.105933    0.357801    0.000000
   212  O2    s     0.899092    0.788909    0.027235    0.000000
   213  O2    s     0.859499    0.083853    0.694587    0.000000
   214  O2    s     0.767411    0.865180    0.859697    0.000000
   215  O2    s     0.069058    0.203979    0.529776    0.000000
   216  O2    s     0.096582    0.892319    0.195825    0.000000
   217  O2    s     0.895877    0.836393    0.245950    0.000000
   218  O2    s     0.121213    0.059147    0.581725    0.000000
   219  O2    s     0.917808    0.054074    0.913342    0.000000
   220  O2    s     0.054216    0.128003    0.747136    0.000000
   221  O2    s     0.836696    0.921275    0.080987    0.000000
   222  O3    s     0.042647    0.921291    0.410687    0.000000
   223  O2    s     0.899953    0.196779    0.975717    0.000000
   224  O2    s     0.771084    0.685803    0.313962    0.000000
   225  O2    s     0.275756    0.077869    0.647394    0.000000
   226  O3    s     0.069625    0.772659    0.478964    0.000000
   227  O2    s     0.189460    0.283389    0.812403    0.000000
   228  O2    s     0.680874    0.898862    0.146973    0.000000
   229  O2    s     0.181527    0.891677    0.349799    0.000000
   230  O2    s     0.690176    0.788027    0.013939    0.000000
   231  O2    s     0.072011    0.285320    0.683117    0.000000
   232  O2    s     0.778908    0.077388    0.849064    0.000000
   233  O2    s     0.267619    0.186801    0.513649    0.000000
   234  O2    s     0.884188    0.692536    0.178680    0.000000
   235  O2    s     0.302622    0.641487    0.246645    0.000000
   236  O2    s     0.321931    0.657207    0.581166    0.000000
   237  O2    s     0.309091    0.658612    0.912748    0.000000
   238  O2    s     0.654523    0.330783    0.748731    0.000000
   239  O3    s     0.616761    0.303955    0.086011    0.000000
   240  O2    s     0.647273    0.311458    0.415502    0.000000
   241  O2    s     0.364228    0.332452    0.964840    0.000000
   242  O2    s     0.636649    0.018855    0.301153    0.000000
   243  O2    s     0.941486    0.611476    0.632827    0.000000
   244  O2    s     0.589603    0.637165    0.465191    0.000000
   245  O2    s     0.322502    0.949875    0.799528    0.000000
   246  O2    s     0.011058    0.366733    0.129682    0.000000
   247  O2    s     0.315368    0.359122    0.360390    0.000000
   248  O2    s     0.019271    0.651105    0.027107    0.000000
   249  O2    s     0.604390    0.952032    0.695869    0.000000
   250  O2    s     0.644154    0.611825    0.861626    0.000000
   251  O2    s     0.936640    0.324782    0.530972    0.000000
   252  O2    s     0.352405    0.022043    0.197985    0.000000
   253  O3    s     0.758919    0.286286    0.005142    0.000000
   254  O2    s     0.666237    0.449283    0.345479    0.000000
   255  O2    s     0.514679    0.210287    0.678863    0.000000
   256  O2    s     0.197881    0.671211    0.511925    0.000000
   257  O2    s     0.294579    0.521359    0.842889    0.000000
   258  O2    s     0.441562    0.766573    0.177713    0.000000
   259  O2    s     0.284501    0.758132    0.317246    0.000000
   260  O2    s     0.450348    0.680194    0.982331    0.000000
   261  O2    s     0.202285    0.523276    0.651223    0.000000
   262  O2    s     0.673294    0.210067    0.817964    0.000000
   263  O2    s     0.504179    0.291152    0.483359    0.000000
   264  O2    s     0.749819    0.454452    0.148014    0.000000
   265  O3    s     0.777366    0.545205    0.021289    0.000000
   266  O2    s     0.445118    0.241083    0.360769    0.000000
   267  O2    s     0.724577    0.199195    0.695628    0.000000
   268  O2    s     0.185377    0.452104    0.529748    0.000000
   269  O2    s     0.515699    0.730917    0.860324    0.000000
   270  O2    s     0.230179    0.775397    0.195591    0.000000
   271  O2    s     0.506275    0.772278    0.300145    0.000000
   272  O2    s     0.241805    0.457291    0.966092    0.000000
   273  O2    s     0.189470    0.731008    0.632304    0.000000
   274  O2    s     0.451579    0.196727    0.801209    0.000000
   275  O2    s     0.711830    0.511043    0.468499    0.000000
   276  O2    s     0.765496    0.247659    0.130824    0.000000
   277  O2    s     0.225423    0.323458    0.895381    0.000000
   278  O2    s     0.642731    0.893505    0.230431    0.000000
   279  O2    s     0.065176    0.743942    0.562190    0.000000
   280  O2    s     0.734539    0.647606    0.397459    0.000000
   281  O2    s     0.314528    0.078777    0.730454    0.000000
   282  O2    s     0.884944    0.230997    0.060887    0.000000
   283  O2    s     0.305265    0.221546    0.429990    0.000000
   284  O2    s     0.879343    0.650768    0.095271    0.000000
   285  O2    s     0.741729    0.079960    0.765850    0.000000
   286  O2    s     0.651926    0.747991    0.930889    0.000000
   287  O2    s     0.068294    0.320909    0.600584    0.000000
   288  O2    s     0.216786    0.892848    0.266950    0.000000
   289  O2    s     0.567176    0.551625    0.984884    0.000000
   290  O2    s     0.418239    0.003910    0.320767    0.000000
   291  O2    s     0.956269    0.407702    0.653062    0.000000
   292  O2    s     0.384362    0.419636    0.482990    0.000000
   293  O2    s     0.541905    0.963586    0.818340    0.000000
   294  O2    s     0.994597    0.566636    0.146244    0.000000
   295  O2    s     0.534820    0.566263    0.343849    0.000000
   296  O2    s     0.999291    0.431888    0.008310    0.000000
   297  O2    s     0.397198    0.963552    0.677195    0.000000
   298  O2    s     0.425997    0.405274    0.843684    0.000000
   299  O2    s     0.948376    0.540769    0.510674    0.000000
   300  O2    s     0.560857    0.012624    0.178933    0.000000
   301  O2    s     0.552843    0.137434    0.250988    0.000000
   302  O2    s     0.820888    0.409003    0.582379    0.000000
   303  O2    s     0.566564    0.416995    0.914456    0.000000
   304  O2    s     0.404284    0.833022    0.747385    0.000000
   305  O2    s     0.127869    0.562394    0.078732    0.000000
   306  O2    s     0.391042    0.556280    0.412903    0.000000
   307  F     s     0.425440    0.886785    0.247746    0.000000
   308  F     s     0.072385    0.535575    0.580666    0.000000
   309  F     s     0.432542    0.541546    0.912614    0.000000
   310  F     s     0.530495    0.083772    0.747437    0.000000
   311  F     s     0.833881    0.425777    0.067838    0.000000
   312  F     s     0.521039    0.432808    0.413268    0.000000
--------------------------------------------------------------------------------

  Final Cartesian lattice vectors (Angstroms) :

       11.934514    0.003826   -0.006693
       -6.034715   10.399006    0.013310
       -0.177188   -0.132263   29.439796


  Final cell parameters and derivatives :

--------------------------------------------------------------------------------
       a           11.934516 Angstrom     dE/de1(xx)     0.000775 eV/strain
       b           12.023198 Angstrom     dE/de2(yy)     0.000186 eV/strain
       c           29.440626 Angstrom     dE/de3(zz)     0.000942 eV/strain
       alpha       89.986123 Degrees      dE/de4(yz)    -0.000040 eV/strain
       beta        90.377050 Degrees      dE/de5(xz)    -0.000000 eV/strain
       gamma      120.108947 Degrees      dE/de6(xy)     0.000395 eV/strain
--------------------------------------------------------------------------------

  Primitive cell volume =          3654.370269 Angs**3

  Density of cell =      1.730576 g/cm**3

  Non-primitive cell volume =          3654.370269 Angs**3


  Final internal derivatives :

--------------------------------------------------------------------------------
   No.  Atomic          a             b             c           Radius
        Label          (eV)          (eV)          (eV)        (eV/Angs)
--------------------------------------------------------------------------------
      1 Ge    c       0.000000      0.000000      0.000000      0.000000
      2 Si    c       0.000030      0.000077      0.000280      0.000000
      3 Si    c      -0.000028     -0.000120     -0.000010      0.000000
      4 Si    c       0.000080      0.000149      0.000056      0.000000
      5 Si    c       0.000366      0.000021      0.000355      0.000000
      6 Si    c       0.000445      0.000017      0.000309      0.000000
      7 Si    c       0.000348      0.000313     -0.000083      0.000000
      8 Si    c       0.000647     -0.000168      0.000019      0.000000
      9 Si    c      -0.000154      0.000046      0.000156      0.000000
     10 Si    c      -0.000136     -0.000057     -0.000307      0.000000
     11 Si    c       0.000154     -0.000138     -0.000066      0.000000
     12 Si    c       0.001739      0.000633      0.007529      0.000000
     13 Si    c      -0.000714     -0.000741      0.000004      0.000000
     14 Si    c      -0.000021      0.000141      0.000151      0.000000
     15 Si    c       0.000109     -0.000320      0.000089      0.000000
     16 Si    c       0.000321      0.000182     -0.000054      0.000000
     17 Si    c       0.000178     -0.000082      0.000009      0.000000
     18 Si    c       0.000747      0.000194      0.000777      0.000000
     19 Si    c       0.000313      0.000298      0.000444      0.000000
     20 Si    c       0.000637     -0.000302     -0.000225      0.000000
     21 Si    c       0.000006     -0.000168      0.000474      0.000000
     22 Si    c      -0.000266      0.000102      0.000078      0.000000
     23 Si    c       0.000378     -0.000082      0.000221      0.000000
     24 Si    c      -0.000119     -0.000590      0.001383      0.000000
     25 Si    c       0.000213      0.000053      0.000247      0.000000
     26 Si    c       0.000274      0.000024     -0.000143      0.000000
     27 Si    c       0.000418     -0.000200      0.000459      0.000000
     28 Si    c       0.000215      0.000315      0.000223      0.000000
     29 Si    c      -0.000039     -0.000069      0.000302      0.000000
     30 Si    c       0.001604      0.000557     -0.000912      0.000000
     31 Si    c       0.000158     -0.000071     -0.000033      0.000000
     32 Si    c       0.000730      0.000303     -0.000359      0.000000
     33 Si    c       0.000057     -0.000214      0.000072      0.000000
     34 Si    c      -0.000025      0.000000     -0.000505      0.000000
     35 Si    c      -0.000283      0.000067     -0.000357      0.000000
     36 Si    c       0.000116      0.000289     -0.000074      0.000000
     37 Si    c       0.000080      0.000023     -0.000120      0.000000
     38 Si    c       0.000100      0.000124     -0.000126      0.000000
     39 Si    c       0.000180     -0.000430     -0.000098      0.000000
     40 Si    c       0.000245      0.000205     -0.000246      0.000000
     41 Si    c      -0.000044      0.000159     -0.000064      0.000000
     42 Si    c       0.001005      0.000108      0.000019      0.000000
     43 Si    c       0.000198      0.000032      0.000374      0.000000
     44 Si    c       0.000602     -0.000420     -0.003250      0.000000
     45 Si    c      -0.000060     -0.000272      0.000238      0.000000
     46 Si    c      -0.000057      0.000198      0.000303      0.000000
     47 Si    c      -0.000034      0.000409      0.000252      0.000000
     48 Si    c       0.000238      0.000120      0.000221      0.000000
     49 Si    c      -0.000018      0.000328      0.000131      0.000000
     50 Si    c       0.000392      0.000164     -0.000240      0.000000
     51 Si    c       0.000104      0.000038      0.000465      0.000000
     52 Ge    c       0.000142      0.000107     -0.000239      0.000000
     53 Si    c       0.000015      0.000080      0.000133      0.000000
     54 Si    c      -0.000131      0.000114      0.000626      0.000000
     55 Si    c       0.000178      0.000096      0.000068      0.000000
     56 Si    c      -0.000259      0.000365     -0.000518      0.000000
     57 Si    c      -0.000175     -0.000098      0.000262      0.000000
     58 Si    c      -0.000001      0.000262     -0.000330      0.000000
     59 Si    c       0.000278      0.000245      0.000022      0.000000
     60 Si    c       0.000482     -0.000033      0.000354      0.000000
     61 O2    c      -0.000150     -0.000003     -0.000074      0.000000
     62 O2    c       0.000225      0.000252     -0.000204      0.000000
     63 O2    c       0.000020     -0.000029      0.000212      0.000000
     64 O3    c      -0.000052     -0.000065      0.000008      0.000000
     65 O2    c       0.000105      0.000199      0.000019      0.000000
     66 O2    c       0.000281      0.000027      0.000725      0.000000
     67 O2    c       0.000289      0.000217      0.000179      0.000000
     68 O2    c      -0.000238     -0.000104      0.000224      0.000000
     69 O2    c       0.000861      0.000115      0.000234      0.000000
     70 O2    c       0.000014      0.000110     -0.000271      0.000000
     71 O2    c      -0.000396     -0.000420      0.002423      0.000000
     72 O2    c       0.000385      0.000000     -0.000040      0.000000
     73 O3    c       0.000548     -0.001367      0.003072      0.000000
     74 O2    c       0.000073     -0.000327     -0.000105      0.000000
     75 O2    c      -0.000090      0.000265     -0.000030      0.000000
     76 O2    c       0.000309      0.000063      0.000117      0.000000
     77 O2    c       0.000418     -0.000179     -0.000246      0.000000
     78 O2    c       0.000271      0.000100      0.000061      0.000000
     79 O2    c       0.000311     -0.000051      0.000049      0.000000
     80 O2    c       0.000159      0.000310     -0.000167      0.000000
     81 O2    c      -0.000008     -0.000076     -0.000011      0.000000
     82 O3    c       0.000273      0.000042     -0.000875      0.000000
     83 O2    c       0.000133      0.000103     -0.000246      0.000000
     84 O2    c       0.000176     -0.000034      0.000481      0.000000
     85 O2    c       0.000278      0.000195      0.000303      0.000000
     86 O2    c       0.001663     -0.000142     -0.001925      0.000000
     87 O2    c      -0.000099     -0.000161      0.000340      0.000000
     88 O2    c      -0.000050      0.000164      0.000454      0.000000
     89 O2    c       0.000245      0.000165      0.000125      0.000000
     90 O2    c       0.000521      0.000063      0.000579      0.000000
     91 O2    c       0.000528      0.000149     -0.000183      0.000000
     92 O2    c       0.000074      0.000241      0.000542      0.000000
     93 O2    c      -0.000250      0.000038     -0.001237      0.000000
     94 O2    c       0.000006      0.000059      0.000452      0.000000
     95 O2    c      -0.000108      0.000523      0.002520      0.000000
     96 O3    c       0.000124     -0.000028      0.000232      0.000000
     97 O2    c       0.000118      0.000184     -0.000181      0.000000
     98 O2    c       0.000100      0.000034      0.000544      0.000000
     99 O2    c       0.000009     -0.000193      0.000362      0.000000
    100 O3    c       0.000532     -0.000140     -0.000569      0.000000
    101 O2    c       0.000128      0.000184      0.000124      0.000000
    102 O2    c       0.000229      0.000173      0.000249      0.000000
    103 O2    c       0.000182      0.000151     -0.000336      0.000000
    104 O2    c      -0.000870     -0.000030     -0.000244      0.000000
    105 O2    c      -0.000224     -0.000149     -0.000090      0.000000
    106 O2    c      -0.000006     -0.000028     -0.000191      0.000000
    107 O2    c       0.000336      0.000103     -0.000163      0.000000
    108 O2    c       0.000493     -0.000118      0.000458      0.000000
    109 O2    c       0.000200      0.000175      0.000251      0.000000
    110 O2    c      -0.000125      0.000176      0.000332      0.000000
    111 O2    c       0.000632     -0.000119     -0.000225      0.000000
    112 O2    c       0.000014     -0.000178     -0.000111      0.000000
    113 O3    c      -0.001783     -0.001622      0.002348      0.000000
    114 O2    c      -0.000031      0.000026     -0.000043      0.000000
    115 O2    c      -0.000404     -0.000043     -0.000033      0.000000
    116 O2    c       0.000068      0.000215     -0.000104      0.000000
    117 O2    c       0.000203     -0.000197     -0.000221      0.000000
    118 O2    c       0.000307      0.000002     -0.000072      0.000000
    119 O2    c       0.000047      0.000033     -0.000069      0.000000
    120 O2    c       0.000808      0.000170      0.000606      0.000000
    121 O2    c       0.000222      0.000204      0.000245      0.000000
    122 O2    c       0.001348      0.000960     -0.001284      0.000000
    123 O2    c      -0.000179     -0.000151      0.000317      0.000000
    124 O2    c       0.000040      0.000058      0.000135      0.000000
    125 O2    c       0.000234      0.000221      0.000320      0.000000
    126 O2    c       0.000450      0.000056      0.000303      0.000000
    127 O3    c       0.001442     -0.000479     -0.001526      0.000000
    128 O2    c       0.000055      0.000142      0.000267      0.000000
    129 O2    c       0.000007     -0.000254      0.000365      0.000000
    130 O2    c       0.000247      0.000022      0.000588      0.000000
    131 O2    c       0.000223      0.000248      0.000308      0.000000
    132 O2    c       0.000400      0.000101      0.000523      0.000000
    133 O2    c       0.000284      0.000297     -0.000192      0.000000
    134 O2    c       0.000664     -0.000353      0.000016      0.000000
    135 O2    c      -0.000322     -0.000079     -0.000248      0.000000
    136 O2    c       0.000045     -0.000089     -0.000192      0.000000
    137 O2    c       0.000357      0.000046     -0.000236      0.000000
    138 O2    c       0.000469      0.000845      0.000730      0.000000
    139 O3    c      -0.001436     -0.001013     -0.001944      0.000000
    140 O2    c       0.000229      0.000128      0.000218      0.000000
    141 O2    c      -0.000141     -0.000333      0.000236      0.000000
    142 O2    c       0.000002      0.000194      0.000363      0.000000
    143 O2    c       0.000278     -0.000068      0.000387      0.000000
    144 O2    c       0.000551      0.000132      0.000410      0.000000
    145 O2    c       0.000187      0.000200     -0.000075      0.000000
    146 O2    c       0.000293     -0.000102      0.000008      0.000000
    147 O2    c      -0.000047     -0.000152     -0.000173      0.000000
    148 O2    c       0.000051      0.000006     -0.000281      0.000000
    149 O2    c       0.000148     -0.000002     -0.000201      0.000000
    150 O2    c       0.000443     -0.000685      0.001091      0.000000
    151 O2    c       0.000098     -0.000028      0.000407      0.000000
    152 O2    c       0.000120      0.000227      0.000289      0.000000
    153 O2    c       0.000366     -0.000124      0.000341      0.000000
    154 O2    c       0.000048      0.000058      0.000285      0.000000
    155 O2    c       0.000028     -0.000077      0.000298      0.000000
    156 O2    c       0.000327     -0.000276     -0.001945      0.000000
    157 O2    c       0.000256      0.000132      0.000021      0.000000
    158 O2    c       0.000883      0.001233      0.006412      0.000000
    159 O2    c      -0.000136     -0.000076      0.000003      0.000000
    160 O2    c       0.000109     -0.000065     -0.000102      0.000000
    161 O2    c      -0.000211      0.000067     -0.000051      0.000000
    162 O2    c       0.000324      0.000053     -0.000213      0.000000
    163 O2    c       0.000295     -0.000370     -0.000162      0.000000
    164 O2    c       0.000089      0.000223     -0.000374      0.000000
    165 O2    c      -0.000179     -0.000140     -0.000390      0.000000
    166 O2    c       0.000188      0.000166     -0.000128      0.000000
    167 O2    c       0.000091     -0.000020     -0.000222      0.000000
    168 O2    c       0.000664     -0.000075      0.000099      0.000000
    169 O2    c       0.000243      0.000124      0.000404      0.000000
    170 O2    c       0.001428     -0.000311     -0.000900      0.000000
    171 O2    c      -0.000006     -0.000285      0.000290      0.000000
    172 O2    c       0.000136      0.000146      0.000201      0.000000
    173 O2    c       0.000394     -0.000003      0.000290      0.000000
    174 O2    c       0.000404      0.000022      0.000089      0.000000
    175 O2    c       0.000289      0.000154      0.000216      0.000000
    176 O2    c       0.000276     -0.000205      0.000041      0.000000
    177 O2    c      -0.000033     -0.000071     -0.001370      0.000000
    178 O2    c       0.000004     -0.000084      0.000287      0.000000
    179 O2    c       0.000955      0.000249      0.000943      0.000000
    180 O2    c       0.000346      0.000159      0.000289      0.000000
    181 F     c       0.000234      0.000132      0.000126      0.000000
    182 F     c      -0.000010      0.000020      0.000078      0.000000
    183 F     c       0.000293     -0.000109      0.000074      0.000000
    184 F     c      -0.000084     -0.000209      0.000070      0.000000
    185 F     c      -0.000577      0.000494     -0.002720      0.000000
    186 F     c       0.000113      0.000045      0.000097      0.000000
    187 O2    s       0.000651     -0.000560     -0.000744      0.000000
    188 O2    s       0.000091      0.000619     -0.000155      0.000000
    189 O2    s       0.000032     -0.000052      0.000377      0.000000
    190 O3    s       0.000281     -0.000248      0.000215      0.000000
    191 O2    s       0.000109      0.000233      0.000103      0.000000
    192 O2    s       0.000464     -0.000218      0.001066      0.000000
    193 O2    s       0.000494      0.000344      0.000089      0.000000
    194 O2    s      -0.000274     -0.000237      0.000489      0.000000
    195 O2    s       0.000673      0.000201     -0.000242      0.000000
    196 O2    s       0.000024      0.000012     -0.000187      0.000000
    197 O2    s       0.000723     -0.000195      0.004741      0.000000
    198 O2    s       0.000030      0.000301     -0.000097      0.000000
    199 O3    s       0.001537     -0.000351      0.001279      0.000000
    200 O2    s      -0.000090     -0.000253     -0.000075      0.000000
    201 O2    s      -0.000062      0.000171      0.000037      0.000000
    202 O2    s       0.000541     -0.000002      0.000161      0.000000
    203 O2    s       0.000494     -0.000115      0.000335      0.000000
    204 O2    s       0.000254      0.000227      0.000187      0.000000
    205 O2    s       0.000638     -0.000390     -0.000366      0.000000
    206 O2    s       0.000182      0.000287     -0.000440      0.000000
    207 O2    s       0.000054     -0.000120     -0.000226      0.000000
    208 O3    s       0.000368     -0.000220      0.000876      0.000000
    209 O2    s       0.000143      0.000006     -0.000166      0.000000
    210 O2    s       0.000720      0.000030      0.001771      0.000000
    211 O2    s       0.000299      0.000251      0.000832      0.000000
    212 O2    s       0.001595     -0.000162     -0.003831      0.000000
    213 O2    s      -0.000095     -0.000324      0.000724      0.000000
    214 O2    s       0.000373     -0.000012      0.000567      0.000000
    215 O2    s       0.000387      0.000235      0.000114      0.000000
    216 O2    s       0.000446      0.000239      0.000763      0.000000
    217 O2    s       0.000542      0.000493      0.000016      0.000000
    218 O2    s       0.000441      0.000188      0.000263      0.000000
    219 O2    s       0.000115     -0.000350     -0.000998      0.000000
    220 O2    s      -0.000134      0.000142      0.000302      0.000000
    221 O2    s       0.000634     -0.000179      0.002222      0.000000
    222 O3    s       0.000353     -0.000039     -0.000028      0.000000
    223 O2    s       0.000191      0.000862     -0.000586      0.000000
    224 O2    s       0.000112      0.000120      0.000777      0.000000
    225 O2    s       0.000085     -0.000305      0.000496      0.000000
    226 O3    s       0.000246      0.000255      0.001529      0.000000
    227 O2    s       0.000035      0.000216      0.000150      0.000000
    228 O2    s       0.000278     -0.000167      0.001427      0.000000
    229 O2    s       0.000233      0.000144     -0.000252      0.000000
    230 O2    s      -0.000341     -0.000800     -0.001031      0.000000
    231 O2    s      -0.000325     -0.000141     -0.000013      0.000000
    232 O2    s      -0.000022      0.000092     -0.000585      0.000000
    233 O2    s       0.000557      0.000062     -0.000267      0.000000
    234 O2    s       0.000816      0.000014      0.000788      0.000000
    235 O2    s       0.000483      0.000262     -0.000120      0.000000
    236 O2    s       0.000227     -0.000102      0.000286      0.000000
    237 O2    s       0.000596      0.000253     -0.000336      0.000000
    238 O2    s       0.000084     -0.000382     -0.000188      0.000000
    239 O3    s      -0.000131      0.001228      0.000658      0.000000
    240 O2    s      -0.000213      0.000173      0.000142      0.000000
    241 O2    s      -0.000188     -0.000451     -0.000325      0.000000
    242 O2    s       0.000030      0.000240     -0.000056      0.000000
    243 O2    s      -0.000187      0.000017     -0.000119      0.000000
    244 O2    s       0.000400     -0.000103     -0.000182      0.000000
    245 O2    s       0.000159     -0.000008     -0.000181      0.000000
    246 O2    s       0.000824      0.000221      0.001474      0.000000
    247 O2    s       0.000554      0.000063      0.000837      0.000000
    248 O2    s       0.000830      0.000614     -0.003202      0.000000
    249 O2    s      -0.000223     -0.000230      0.000721      0.000000
    250 O2    s       0.000301     -0.000012      0.000358      0.000000
    251 O2    s       0.000310      0.000074     -0.000134      0.000000
    252 O2    s       0.000567      0.000122      0.000952      0.000000
    253 O3    s       0.001533      0.000019     -0.001708      0.000000
    254 O2    s      -0.000027      0.000236      0.000861      0.000000
    255 O2    s       0.000064     -0.000361      0.000667      0.000000
    256 O2    s       0.000283      0.000073      0.000298      0.000000
    257 O2    s       0.000212      0.000238      0.000208      0.000000
    258 O2    s       0.000466      0.000029      0.001225      0.000000
    259 O2    s       0.000413      0.000314     -0.000329      0.000000
    260 O2    s       0.000430     -0.000301     -0.000070      0.000000
    261 O2    s      -0.000160     -0.000170      0.000007      0.000000
    262 O2    s      -0.000123     -0.000050     -0.000564      0.000000
    263 O2    s       0.000128      0.000155     -0.000495      0.000000
    264 O2    s       0.000717     -0.000240      0.001915      0.000000
    265 O3    s      -0.001120      0.000097     -0.003319      0.000000
    266 O2    s       0.000032      0.000354      0.000837      0.000000
    267 O2    s      -0.000230     -0.000286      0.000696      0.000000
    268 O2    s       0.000543      0.000028      0.000317      0.000000
    269 O2    s       0.000236      0.000097      0.000360      0.000000
    270 O2    s       0.000588      0.000183      0.000738      0.000000
    271 O2    s       0.000200      0.000289     -0.000174      0.000000
    272 O2    s       0.000389      0.000025     -0.000354      0.000000
    273 O2    s      -0.000122     -0.000054      0.000296      0.000000
    274 O2    s       0.000250     -0.000237     -0.000465      0.000000
    275 O2    s       0.000167      0.000055     -0.000283      0.000000
    276 O2    s       0.000308      0.000020      0.004363      0.000000
    277 O2    s       0.000195     -0.000141      0.000244      0.000000
    278 O2    s       0.000329      0.000095      0.000201      0.000000
    279 O2    s       0.000093      0.000144     -0.000134      0.000000
    280 O2    s       0.000143      0.000102      0.000139      0.000000
    281 O2    s       0.000262     -0.000288      0.000225      0.000000
    282 O2    s       0.000753      0.000274     -0.000898      0.000000
    283 O2    s       0.000456      0.000090      0.000113      0.000000
    284 O2    s       0.001073      0.001520      0.004909      0.000000
    285 O2    s      -0.000326     -0.000059     -0.000125      0.000000
    286 O2    s       0.000835     -0.000562     -0.000129      0.000000
    287 O2    s       0.000115     -0.000184      0.000115      0.000000
    288 O2    s       0.000626      0.000136     -0.000177      0.000000
    289 O2    s       0.000733     -0.000273     -0.000078      0.000000
    290 O2    s       0.000232      0.000249     -0.000426      0.000000
    291 O2    s      -0.000121     -0.000246      0.000235      0.000000
    292 O2    s       0.000569      0.000013     -0.000429      0.000000
    293 O2    s      -0.000135      0.000221     -0.000491      0.000000
    294 O2    s       0.000663     -0.000343      0.000442      0.000000
    295 O2    s       0.000335      0.000199      0.001065      0.000000
    296 O2    s       0.001495     -0.000535     -0.001409      0.000000
    297 O2    s      -0.000090     -0.000163      0.000813      0.000000
    298 O2    s       0.000147      0.000020      0.000008      0.000000
    299 O2    s       0.000160      0.000273      0.000174      0.000000
    300 O2    s       0.000331      0.000119      0.001060      0.000000
    301 O2    s       0.000427      0.000050      0.000153      0.000000
    302 O2    s      -0.000163      0.000171     -0.000080      0.000000
    303 O2    s       0.000270     -0.000500     -0.001092      0.000000
    304 O2    s      -0.000168      0.000018      0.000170      0.000000
    305 O2    s       0.000977      0.000403      0.001005      0.000000
    306 O2    s       0.000808      0.000129      0.000154      0.000000
    307 F     s       0.000355      0.000186      0.000271      0.000000
    308 F     s      -0.000030     -0.000006      0.000178      0.000000
    309 F     s       0.000411     -0.000127     -0.000014      0.000000
    310 F     s      -0.000148     -0.000227      0.000176      0.000000
    311 F     s      -0.000917     -0.000083     -0.003743      0.000000
    312 F     s       0.000128      0.000030      0.000126      0.000000
--------------------------------------------------------------------------------
  Maximum abs         0.001783      0.001622      0.007529      0.000000
--------------------------------------------------------------------------------


  Time to end of optimisation =      54.9628 seconds


  Peak dynamic memory used =      19.13 MB 


  Timing analysis for GULP :

--------------------------------------------------------------------------------
  Task / Subroutine                                          Time (Seconds)
--------------------------------------------------------------------------------
  Calculation of reciprocal space energy and derivatives          1.4370
  Calculation of real space energy and derivatives               47.5838
  Calculation of three-body energy and derivatives                5.1061
  Calculation of matrix inversion                                 0.7440
--------------------------------------------------------------------------------
  Total CPU time                                                 54.9629
--------------------------------------------------------------------------------


  Dump file written as out.res                                                 
  CIF file written as out.cif                                                 


  Job Finished at 06:18.29 22nd October    2016                               

