********************************************************************************
*                       GENERAL UTILITY LATTICE PROGRAM                        *
*                                 Julian Gale                                  *
*                      Nanochemistry Research Institute                        *
*                           Department of Chemistry                            *
*                    Curtin University, Western Australia                      *
********************************************************************************
* Version = 4.2.0 * Last modified =  20th January 2014                         *
********************************************************************************
*  optimise     - perform optimisation run                                     *
*  conp         - constant pressure calculation                                *
*  qok          - running with non charge neutral cell is OK                   *
********************************************************************************

  Job Started  at 10:44.28 22nd October    2016                               

  Number of CPUs =     1


  Total number of configurations input =   1

********************************************************************************
*  Input for Configuration =   1                                               *
********************************************************************************

  Formula = Si58Ge2O120F6                                               

  Number of irreducible atoms/shells =     312


  Total number atoms/shells =     312

  Dimensionality = 3               :  Bulk   


  Charge on solid   =  -6.000000 =>neutralising background added


  Cartesian lattice vectors (Angstroms) :

       11.927617    0.000000    0.000000
       -5.879319   10.377119    0.000000
       -0.215352    0.115860   29.500370

  Cell parameters (Angstroms/Degrees):

  a =      11.9276    alpha =  89.5980
  b =      11.9269    beta  =  90.4182
  c =      29.5014    gamma = 119.5344

  Initial cell volume =        3651.387826 Angs**3

  Temperature of configuration =  0.000     K 

  Pressure of configuration =         0.000 GPa 

  Fractional coordinates of asymmetric unit :

--------------------------------------------------------------------------------
   No.  Atomic       x           y          z         Charge      Occupancy
        Label      (Frac)      (Frac)     (Frac)        (e)         (Frac)  
--------------------------------------------------------------------------------
      1 Si    c    0.699600    0.375700    0.033890     4.00000    1.000000    
      2 Si    c    0.623947 *  0.320054 *  0.365369 *   4.00000    1.000000    
      3 Si    c    0.674368 *  0.288904 *  0.698327 *   4.00000    1.000000    
      4 Si    c    0.298174 *  0.618728 *  0.537087 *   4.00000    1.000000    
      5 Si    c    0.383463 *  0.672068 *  0.868659 *   4.00000    1.000000    
      6 Si    c    0.332929 *  0.702032 *  0.200171 *   4.00000    1.000000    
      7 Si    c    0.384099 *  0.692910 *  0.301783 *   4.00000    1.000000    
      8 Si    c    0.326761 *  0.618831 *  0.970645 *   4.00000    1.000000    
      9 Si    c    0.293452 *  0.670120 *  0.637546 *   4.00000    1.000000    
     10 Si    c    0.623574 *  0.293713 *  0.798797 *   4.00000    1.000000    
     11 Si    c    0.676369 *  0.377794 *  0.467322 *   4.00000    1.000000    
     12 Si    c    0.708254 *  0.325728 *  0.135655 *   4.00000    1.000000    
     13 Ge    c    0.533873 *  0.429396 *  0.965935 *   4.00000    1.000000    
     14 Si    c    0.586452 *  0.106666 *  0.301941 *   4.00000    1.000000    
     15 Si    c    0.883137 *  0.465052 *  0.634501 *   4.00000    1.000000    
     16 Si    c    0.468150 *  0.590756 *  0.468973 *   4.00000    1.000000    
     17 Si    c    0.421084 *  0.882416 *  0.802604 *   4.00000    1.000000    
     18 Si    c    0.120688 *  0.532521 *  0.135254 *   4.00000    1.000000    
     19 Ge    c    0.434163 *  0.525999 *  0.370037 *   4.00000    1.000000    
     20 Si    c    0.113547 *  0.581004 *  0.034080 *   4.00000    1.000000    
     21 Si    c    0.469445 *  0.878852 *  0.701481 *   4.00000    1.000000    
     22 Si    c    0.596760 *  0.464257 *  0.866846 *   4.00000    1.000000    
     23 Si    c    0.886823 *  0.416302 *  0.533428 *   4.00000    1.000000    
     24 Si    c    0.538391 *  0.114093 *  0.200725 *   4.00000    1.000000    
     25 Si    c    0.308539 *  0.390842 *  0.853945 *   4.00000    1.000000    
     26 Si    c    0.610470 *  0.904587 *  0.186186 *   4.00000    1.000000    
     27 Si    c    0.095669 *  0.695738 *  0.520745 *   4.00000    1.000000    
     28 Si    c    0.706922 *  0.604262 *  0.347457 *   4.00000    1.000000    
     29 Si    c    0.396154 *  0.087177 *  0.685550 *   4.00000    1.000000    
     30 Si    c    0.905848 *  0.301822 *  0.020442 *   4.00000    1.000000    
     31 Si    c    0.394989 *  0.302518 *  0.481904 *   4.00000    1.000000    
     32 Si    c    0.910435 *  0.603660 *  0.149503 *   4.00000    1.000000    
     33 Si    c    0.700662 *  0.091314 *  0.815333 *   4.00000    1.000000    
     34 Si    c    0.611150 *  0.702135 *  0.988250 *   4.00000    1.000000    
     35 Si    c    0.091625 *  0.391972 *  0.650351 *   4.00000    1.000000    
     36 Si    c    0.307735 *  0.897748 *  0.315552 *   4.00000    1.000000    
     37 Si    c    0.253783 *  0.331154 *  0.955965 *   4.00000    1.000000    
     38 Si    c    0.664617 *  0.905648 *  0.287038 *   4.00000    1.000000    
     39 Si    c    0.084177 *  0.743390 *  0.621094 *   4.00000    1.000000    
     40 Si    c    0.748406 *  0.664100 *  0.450376 *   4.00000    1.000000    
     41 Si    c    0.342304 *  0.083667 *  0.786145 *   4.00000    1.000000    
     42 Si    c    0.919391 *  0.255185 *  0.120826 *   4.00000    1.000000    
     43 Si    c    0.335881 *  0.246190 *  0.379886 *   4.00000    1.000000    
     44 Si    c    0.911299 *  0.657575 *  0.048660 *   4.00000    1.000000    
     45 Si    c    0.747852 *  0.079840 *  0.714907 *   4.00000    1.000000    
     46 Si    c    0.669895 *  0.744301 *  0.885346 *   4.00000    1.000000    
     47 Si    c    0.088049 *  0.337422 *  0.549804 *   4.00000    1.000000    
     48 Si    c    0.261160 *  0.912257 *  0.215181 *   4.00000    1.000000    
     49 Si    c    0.969921 *  0.121152 *  0.969064 *   4.00000    1.000000    
     50 Si    c    0.889499 *  0.849301 *  0.300229 *   4.00000    1.000000    
     51 Si    c    0.149053 *  0.024061 *  0.634665 *   4.00000    1.000000    
     52 Si    c    0.030308 *  0.876621 *  0.467863 *   4.00000    1.000000    
     53 Si    c    0.124520 *  0.145983 *  0.802469 *   4.00000    1.000000    
     54 Si    c    0.859468 *  0.976328 *  0.135918 *   4.00000    1.000000    
     55 Si    c    0.126833 *  0.961979 *  0.366724 *   4.00000    1.000000    
     56 Si    c    0.856375 *  0.883743 *  0.035485 *   4.00000    1.000000    
     57 Si    c    0.028635 *  0.144960 *  0.701178 *   4.00000    1.000000    
     58 Si    c    0.882112 *  0.026139 *  0.867920 *   4.00000    1.000000    
     59 Si    c    0.149830 *  0.119169 *  0.533285 *   4.00000    1.000000    
     60 Si    c    0.982290 *  0.852562 *  0.199838 *   4.00000    1.000000    
     61 O2    c    0.935666 *  0.000608 *  0.001206 *   0.87073    1.000000    
     62 O2    c    0.006660 *  0.927762 *  0.334422 *   0.87073    1.000000    
     63 O2    c    0.073486 *  0.069382 *  0.667818 *   0.87073    1.000000    
     64 O2    c    0.070840 *  0.999554 *  0.499913 *   0.87073    1.000000    
     65 O2    c    0.004485 *  0.067171 *  0.835603 *   0.87073    1.000000    
     66 O2    c    0.941785 *  0.935250 *  0.167849 *   0.87073    1.000000    
     67 O3    c    0.346555 *  0.574076 *  0.333594 *   1.33043    1.000000    
     68 O2    c    0.416935 *  0.751309 *  0.670239 *   0.87073    1.000000    
     69 O2    c    0.239059 *  0.656622 *  0.001177 *   0.87073    1.000000    
     70 O2    c    0.666344 *  0.421312 *  0.828825 *   0.87073    1.000000    
     71 O2    c    0.586952 *  0.241047 *  0.168834 *   0.87073    1.000000    
     72 O2    c    0.761881 *  0.341279 *  0.500472 *   0.87073    1.000000    
     73 O3    c    0.581321 *  0.340183 *  0.001968 *   1.33043    1.000000    
     74 O2    c    0.755515 *  0.412436 *  0.665667 *   0.87073    1.000000    
     75 O2    c    0.661679 *  0.232057 *  0.334958 *   0.87073    1.000000    
     76 O2    c    0.425421 *  0.660787 *  0.506920 *   0.87073    1.000000    
     77 O2    c    0.247723 *  0.580746 *  0.167052 *   0.87073    1.000000    
     78 O2    c    0.346509 *  0.757566 *  0.835642 *   0.87073    1.000000    
     79 O2    c    0.122048 *  0.212584 *  0.974409 *   0.87073    1.000000    
     80 O2    c    0.791772 *  0.904801 *  0.306904 *   0.87073    1.000000    
     81 O2    c    0.082602 *  0.869599 *  0.640578 *   0.87073    1.000000    
     82 O2    c    0.875759 *  0.786041 *  0.471631 *   0.87073    1.000000    
     83 O2    c    0.215723 *  0.081778 *  0.806821 *   0.87073    1.000000    
     84 O2    c    0.920232 *  0.129553 *  0.141836 *   0.87073    1.000000    
     85 O2    c    0.218402 *  0.114042 *  0.361291 *   0.87073    1.000000    
     86 O2    c    0.910475 *  0.784844 *  0.028841 *   0.87073    1.000000    
     87 O2    c    0.874109 *  0.078346 *  0.695459 *   0.87073    1.000000    
     88 O2    c    0.791471 *  0.871643 *  0.863980 *   0.87073    1.000000    
     89 O2    c    0.086034 *  0.210786 *  0.529102 *   0.87073    1.000000    
     90 O2    c    0.135537 *  0.913087 *  0.194155 *   0.87073    1.000000    
     91 O2    c    0.945085 *  0.869303 *  0.250216 *   0.87073    1.000000    
     92 O2    c    0.138065 *  0.064904 *  0.583778 *   0.87073    1.000000    
     93 O2    c    0.932120 *  0.069236 *  0.918241 *   0.87073    1.000000    
     94 O2    c    0.070517 *  0.134351 *  0.751928 *   0.87073    1.000000    
     95 O2    c    0.876535 *  0.939682 *  0.085463 *   0.87073    1.000000    
     96 O2    c    0.074174 *  0.925354 *  0.417475 *   0.87073    1.000000    
     97 O2    c    0.899054 *  0.201651 *  0.981653 *   0.87073    1.000000    
     98 O2    c    0.818094 *  0.696939 *  0.311880 *   0.87073    1.000000    
     99 O2    c    0.300267 *  0.089289 *  0.646676 *   0.87073    1.000000    
    100 O2    c    0.099598 *  0.795254 *  0.482407 *   0.87073    1.000000    
    101 O2    c    0.210078 *  0.296959 *  0.815131 *   0.87073    1.000000    
    102 O2    c    0.707966 *  0.904103 *  0.147967 *   0.87073    1.000000    
    103 O2    c    0.207152 *  0.890674 *  0.354326 *   0.87073    1.000000    
    104 O2    c    0.704049 *  0.813338 *  0.023812 *   0.87073    1.000000    
    105 O2    c    0.093673 *  0.296180 *  0.689246 *   0.87073    1.000000    
    106 O2    c    0.800191 *  0.095218 *  0.853712 *   0.87073    1.000000    
    107 O2    c    0.300865 *  0.204388 *  0.520714 *   0.87073    1.000000    
    108 O2    c    0.909734 *  0.701127 *  0.187695 *   0.87073    1.000000    
    109 O2    c    0.333521 *  0.644304 *  0.250008 *   0.87073    1.000000    
    110 O2    c    0.351505 *  0.673467 *  0.587601 *   0.87073    1.000000    
    111 O2    c    0.329044 *  0.669207 *  0.918902 *   0.87073    1.000000    
    112 O2    c    0.677915 *  0.346964 *  0.748264 *   0.87073    1.000000    
    113 O2    c    0.650779 *  0.325354 *  0.085649 *   0.87073    1.000000    
    114 O2    c    0.673737 *  0.322622 *  0.417221 *   0.87073    1.000000    
    115 O3    c    0.367296 *  0.313178 *  0.975141 *   1.33043    1.000000    
    116 O2    c    0.675925 *  0.039201 *  0.305629 *   0.87073    1.000000    
    117 O2    c    0.950384 *  0.621079 *  0.638244 *   0.87073    1.000000    
    118 O2    c    0.626557 *  0.673852 *  0.469287 *   0.87073    1.000000    
    119 O2    c    0.334119 *  0.952330 *  0.805734 *   0.87073    1.000000    
    120 O2    c    0.052174 *  0.376354 *  0.139083 *   0.87073    1.000000    
    121 O3    c    0.317518 *  0.359509 *  0.360774 *   1.33043    1.000000    
    122 O2    c    0.045560 *  0.669926 *  0.030313 *   0.87073    1.000000    
    123 O2    c    0.625464 *  0.946071 *  0.697751 *   0.87073    1.000000    
    124 O2    c    0.679929 *  0.622597 *  0.866459 *   0.87073    1.000000    
    125 O2    c    0.956751 *  0.329373 *  0.530268 *   0.87073    1.000000    
    126 O2    c    0.382205 *  0.045333 *  0.197000 *   0.87073    1.000000    
    127 O2    c    0.771780 *  0.301086 *  0.013634 *   0.87073    1.000000    
    128 O2    c    0.701623 *  0.465109 *  0.345317 *   0.87073    1.000000    
    129 O2    c    0.529712 *  0.219879 *  0.677158 *   0.87073    1.000000    
    130 O2    c    0.228390 *  0.692554 *  0.513933 *   0.87073    1.000000    
    131 O2    c    0.312030 *  0.527693 *  0.848220 *   0.87073    1.000000    
    132 O2    c    0.476194 *  0.772306 *  0.177926 *   0.87073    1.000000    
    133 O2    c    0.308601 *  0.764508 *  0.322130 *   0.87073    1.000000    
    134 O2    c    0.471813 *  0.696200 *  0.990744 *   0.87073    1.000000    
    135 O2    c    0.224401 *  0.525485 *  0.658705 *   0.87073    1.000000    
    136 O2    c    0.697406 *  0.224011 *  0.822019 *   0.87073    1.000000    
    137 O2    c    0.532055 *  0.306579 *  0.487794 *   0.87073    1.000000    
    138 O2    c    0.778247 *  0.469261 *  0.157702 *   0.87073    1.000000    
    139 O2    c    0.787755 *  0.532699 *  0.028783 *   0.87073    1.000000    
    140 O2    c    0.469734 *  0.256572 *  0.362346 *   0.87073    1.000000    
    141 O2    c    0.747075 *  0.204709 *  0.693814 *   0.87073    1.000000    
    142 O2    c    0.216597 *  0.462680 *  0.531937 *   0.87073    1.000000    
    143 O2    c    0.537882 *  0.735783 *  0.867385 *   0.87073    1.000000    
    144 O2    c    0.259720 *  0.785715 *  0.195799 *   0.87073    1.000000    
    145 O2    c    0.540582 *  0.781257 *  0.306951 *   0.87073    1.000000    
    146 O2    c    0.263138 *  0.464546 *  0.973566 *   0.87073    1.000000    
    147 O2    c    0.209203 *  0.742762 *  0.642109 *   0.87073    1.000000    
    148 O2    c    0.467533 *  0.212247 *  0.804054 *   0.87073    1.000000    
    149 O2    c    0.740109 *  0.532245 *  0.468398 *   0.87073    1.000000    
    150 O2    c    0.792450 *  0.253112 *  0.140134 *   0.87073    1.000000    
    151 O2    c    0.242049 *  0.320896 *  0.900772 *   0.87073    1.000000    
    152 O2    c    0.683154 *  0.905253 *  0.232804 *   0.87073    1.000000    
    153 O2    c    0.090093 *  0.765286 *  0.566922 *   0.87073    1.000000    
    154 O2    c    0.763803 *  0.676633 *  0.396294 *   0.87073    1.000000    
    155 O2    c    0.321993 *  0.083044 *  0.731867 *   0.87073    1.000000    
    156 O2    c    0.916154 *  0.233150 *  0.066644 *   0.87073    1.000000    
    157 O2    c    0.325458 *  0.235153 *  0.435095 *   0.87073    1.000000    
    158 O2    c    0.910857 *  0.676199 *  0.102898 *   0.87073    1.000000    
    159 O2    c    0.769876 *  0.085759 *  0.769075 *   0.87073    1.000000    
    160 O2    c    0.682857 *  0.759877 *  0.939417 *   0.87073    1.000000    
    161 O2    c    0.087392 *  0.317485 *  0.604086 *   0.87073    1.000000    
    162 O2    c    0.238980 *  0.908215 *  0.269360 *   0.87073    1.000000    
    163 O3    c    0.605029 *  0.571167 *  0.001110 *   1.33043    1.000000    
    164 O2    c    0.445719 *  0.024654 *  0.325504 *   0.87073    1.000000    
    165 O2    c    0.965778 *  0.406236 *  0.658566 *   0.87073    1.000000    
    166 O2    c    0.414565 *  0.444328 *  0.488913 *   0.87073    1.000000    
    167 O2    c    0.563244 *  0.964393 *  0.825053 *   0.87073    1.000000    
    168 O2    c    0.037885 *  0.591694 *  0.158279 *   0.87073    1.000000    
    169 O3    c    0.575555 *  0.596847 *  0.334568 *   1.33043    1.000000    
    170 O2    c    0.032081 *  0.440186 *  0.010468 *   0.87073    1.000000    
    171 O2    c    0.410414 *  0.961289 *  0.677388 *   0.87073    1.000000    
    172 O2    c    0.450477 *  0.410944 *  0.846825 *   0.87073    1.000000    
    173 O2    c    0.968658 *  0.558413 *  0.510947 *   0.87073    1.000000    
    174 O2    c    0.597913 *  0.031748 *  0.177587 *   0.87073    1.000000    
    175 O2    c    0.589838 *  0.166353 *  0.251851 *   0.87073    1.000000    
    176 O2    c    0.830348 *  0.413113 *  0.583633 *   0.87073    1.000000    
    177 O3    c    0.605002 *  0.408291 *  0.914704 *   1.33043    1.000000    
    178 O2    c    0.417636 *  0.825967 *  0.752353 *   0.87073    1.000000    
    179 O2    c    0.173080 *  0.584323 *  0.084182 *   0.87073    1.000000    
    180 O3    c    0.412455 *  0.598124 *  0.420986 *   1.33043    1.000000    
    181 F     c    0.462888 *  0.910155 *  0.251055 *   0.56000    1.000000    
    182 F     c    0.089504 *  0.542274 *  0.585411 *   0.56000    1.000000    
    183 F     c    0.478644 *  0.521382 *  0.928424 *   0.56000    1.000000    
    184 F     c    0.546580 *  0.085088 *  0.750519 *   0.56000    1.000000    
    185 F     c    0.916936 *  0.456142 *  0.084822 *   0.56000    1.000000    
    186 F     c    0.525850 *  0.471682 *  0.407587 *   0.56000    1.000000    
    187 O2    s    0.930626 *  0.001185 *  0.001407 *  -2.87073    1.000000    
    188 O2    s    0.007148 *  0.922779 *  0.334257 *  -2.87073    1.000000    
    189 O2    s    0.076928 *  0.072762 *  0.667846 *  -2.87073    1.000000    
    190 O2    s    0.075161 *  0.999419 *  0.500135 *  -2.87073    1.000000    
    191 O2    s    0.004456 *  0.071430 *  0.835451 *  -2.87073    1.000000    
    192 O2    s    0.936986 *  0.930478 *  0.167864 *  -2.87073    1.000000    
    193 O3    s    0.356821 *  0.583747 *  0.332659 *  -3.33043    1.000000    
    194 O2    s    0.409553 *  0.756075 *  0.670069 *  -2.87073    1.000000    
    195 O2    s    0.236058 *  0.645099 *  0.001134 *  -2.87073    1.000000    
    196 O2    s    0.654816 *  0.412236 *  0.829493 *  -2.87073    1.000000    
    197 O2    s    0.594413 *  0.236730 *  0.168700 *  -2.87073    1.000000    
    198 O2    s    0.765549 *  0.352804 *  0.500308 *  -2.87073    1.000000    
    199 O3    s    0.590966 *  0.350272 *  0.002953 *  -3.33043    1.000000    
    200 O2    s    0.760307 *  0.405065 *  0.665840 *  -2.87073    1.000000    
    201 O2    s    0.650215 *  0.229105 *  0.334979 *  -2.87073    1.000000    
    202 O2    s    0.416380 *  0.649306 *  0.506274 *  -2.87073    1.000000    
    203 O2    s    0.243443 *  0.588256 *  0.167188 *  -2.87073    1.000000    
    204 O2    s    0.358016 *  0.761220 *  0.835786 *  -2.87073    1.000000    
    205 O2    s    0.119409 *  0.215362 *  0.971795 *  -2.87073    1.000000    
    206 O2    s    0.789193 *  0.898941 *  0.304188 *  -2.87073    1.000000    
    207 O2    s    0.089782 *  0.872914 *  0.637965 *  -2.87073    1.000000    
    208 O2    s    0.878904 *  0.783007 *  0.469069 *  -2.87073    1.000000    
    209 O2    s    0.219138 *  0.088832 *  0.804238 *  -2.87073    1.000000    
    210 O2    s    0.913592 *  0.126068 *  0.139052 *  -2.87073    1.000000    
    211 O2    s    0.221095 *  0.111505 *  0.363942 *  -2.87073    1.000000    
    212 O2    s    0.904742 *  0.782389 *  0.031547 *  -2.87073    1.000000    
    213 O2    s    0.877425 *  0.085533 *  0.698053 *  -2.87073    1.000000    
    214 O2    s    0.788471 *  0.874777 *  0.866578 *  -2.87073    1.000000    
    215 O2    s    0.093056 *  0.214167 *  0.531672 *  -2.87073    1.000000    
    216 O2    s    0.132051 *  0.906471 *  0.196921 *  -2.87073    1.000000    
    217 O2    s    0.942858 *  0.865085 *  0.250313 *  -2.87073    1.000000    
    218 O2    s    0.140569 *  0.066370 *  0.583832 *  -2.87073    1.000000    
    219 O2    s    0.930521 *  0.069990 *  0.918060 *  -2.87073    1.000000    
    220 O2    s    0.071833 *  0.136796 *  0.751904 *  -2.87073    1.000000    
    221 O2    s    0.872273 *  0.937350 *  0.085392 *  -2.87073    1.000000    
    222 O2    s    0.074929 *  0.923775 *  0.417686 *  -2.87073    1.000000    
    223 O2    s    0.907419 *  0.202905 *  0.984146 *  -2.87073    1.000000    
    224 O2    s    0.814262 *  0.703385 *  0.314293 *  -2.87073    1.000000    
    225 O2    s    0.293942 *  0.082073 *  0.649396 *  -2.87073    1.000000    
    226 O2    s    0.091706 *  0.793599 *  0.484873 *  -2.87073    1.000000    
    227 O2    s    0.211107 *  0.290675 *  0.817747 *  -2.87073    1.000000    
    228 O2    s    0.714152 *  0.911811 *  0.150561 *  -2.87073    1.000000    
    229 O2    s    0.208427 *  0.899084 *  0.351845 *  -2.87073    1.000000    
    230 O2    s    0.710470 *  0.809403 *  0.021409 *  -2.87073    1.000000    
    231 O2    s    0.086479 *  0.289844 *  0.686516 *  -2.87073    1.000000    
    232 O2    s    0.798600 *  0.087377 *  0.851220 *  -2.87073    1.000000    
    233 O2    s    0.294600 *  0.205416 *  0.518091 *  -2.87073    1.000000    
    234 O2    s    0.917508 *  0.707323 *  0.185122 *  -2.87073    1.000000    
    235 O2    s    0.338499 *  0.655191 *  0.249893 *  -2.87073    1.000000    
    236 O2    s    0.339878 *  0.667416 *  0.587562 *  -2.87073    1.000000    
    237 O2    s    0.334563 *  0.664452 *  0.918779 *  -2.87073    1.000000    
    238 O2    s    0.671875 *  0.335317 *  0.748303 *  -2.87073    1.000000    
    239 O2    s    0.661633 *  0.330388 *  0.085770 *  -2.87073    1.000000    
    240 O2    s    0.669014 *  0.328186 *  0.417320 *  -2.87073    1.000000    
    241 O3    s    0.366148 *  0.322931 *  0.972400 *  -3.33043    1.000000    
    242 O2    s    0.665550 *  0.032554 *  0.303349 *  -2.87073    1.000000    
    243 O2    s    0.957391 *  0.617789 *  0.636066 *  -2.87073    1.000000    
    244 O2    s    0.624087 *  0.664793 *  0.467256 *  -2.87073    1.000000    
    245 O2    s    0.344044 *  0.958750 *  0.803357 *  -2.87073    1.000000    
    246 O2    s    0.045296 *  0.379705 *  0.136765 *  -2.87073    1.000000    
    247 O3    s    0.327319 *  0.358352 *  0.363516 *  -3.33043    1.000000    
    248 O2    s    0.038933 *  0.659472 *  0.032572 *  -2.87073    1.000000    
    249 O2    s    0.622189 *  0.953080 *  0.699929 *  -2.87073    1.000000    
    250 O2    s    0.670814 *  0.620095 *  0.868501 *  -2.87073    1.000000    
    251 O2    s    0.963181 *  0.339284 *  0.532644 *  -2.87073    1.000000    
    252 O2    s    0.385612 *  0.038492 *  0.199294 *  -2.87073    1.000000    
    253 O2    s    0.779239 *  0.308690 *  0.016465 *  -2.87073    1.000000    
    254 O2    s    0.693979 *  0.463891 *  0.347680 *  -2.87073    1.000000    
    255 O2    s    0.530592 *  0.212999 *  0.680271 *  -2.87073    1.000000    
    256 O2    s    0.221420 *  0.685233 *  0.517083 *  -2.87073    1.000000    
    257 O2    s    0.319154 *  0.528576 *  0.850968 *  -2.87073    1.000000    
    258 O2    s    0.475704 *  0.779057 *  0.181085 *  -2.87073    1.000000    
    259 O2    s    0.316039 *  0.772118 *  0.319340 *  -2.87073    1.000000    
    260 O2    s    0.470649 *  0.688646 *  0.988341 *  -2.87073    1.000000    
    261 O2    s    0.217512 *  0.526364 *  0.655595 *  -2.87073    1.000000    
    262 O2    s    0.690098 *  0.217006 *  0.818875 *  -2.87073    1.000000    
    263 O2    s    0.532896 *  0.313615 *  0.485027 *  -2.87073    1.000000    
    264 O2    s    0.785009 *  0.468741 *  0.154567 *  -2.87073    1.000000    
    265 O2    s    0.793000 *  0.531116 *  0.031459 *  -2.87073    1.000000    
    266 O2    s    0.472766 *  0.262579 *  0.364472 *  -2.87073    1.000000    
    267 O2    s    0.739471 *  0.199907 *  0.696525 *  -2.87073    1.000000    
    268 O2    s    0.211031 *  0.465233 *  0.534373 *  -2.87073    1.000000    
    269 O2    s    0.535337 *  0.729747 *  0.869432 *  -2.87073    1.000000    
    270 O2    s    0.267691 *  0.790874 *  0.198347 *  -2.87073    1.000000    
    271 O2    s    0.538708 *  0.786435 *  0.304262 *  -2.87073    1.000000    
    272 O2    s    0.269254 *  0.467613 *  0.971446 *  -2.87073    1.000000    
    273 O2    s    0.204387 *  0.735147 *  0.639400 *  -2.87073    1.000000    
    274 O2    s    0.470080 *  0.206661 *  0.801602 *  -2.87073    1.000000    
    275 O2    s    0.734048 *  0.529682 *  0.466367 *  -2.87073    1.000000    
    276 O2    s    0.797569 *  0.261096 *  0.137584 *  -2.87073    1.000000    
    277 O2    s    0.250457 *  0.329511 *  0.901190 *  -2.87073    1.000000    
    278 O2    s    0.673571 *  0.905231 *  0.233626 *  -2.87073    1.000000    
    279 O2    s    0.090034 *  0.755622 *  0.567860 *  -2.87073    1.000000    
    280 O2    s    0.756579 *  0.668283 *  0.397523 *  -2.87073    1.000000    
    281 O2    s    0.331881 *  0.083543 *  0.732763 *  -2.87073    1.000000    
    282 O2    s    0.915466 *  0.242632 *  0.067494 *  -2.87073    1.000000    
    283 O2    s    0.334040 *  0.243577 *  0.434679 *  -2.87073    1.000000    
    284 O2    s    0.910857 *  0.666607 *  0.102091 *  -2.87073    1.000000    
    285 O2    s    0.760235 *  0.085696 *  0.768158 *  -2.87073    1.000000    
    286 O2    s    0.674505 *  0.752533 *  0.938203 *  -2.87073    1.000000    
    287 O2    s    0.087906 *  0.327361 *  0.603182 *  -2.87073    1.000000    
    288 O2    s    0.248471 *  0.907601 *  0.268503 *  -2.87073    1.000000    
    289 O3    s    0.600728 *  0.575989 *  0.997376 *  -3.33043    1.000000    
    290 O2    s    0.445766 *  0.019707 *  0.322046 *  -2.87073    1.000000    
    291 O2    s    0.970906 *  0.411022 *  0.655165 *  -2.87073    1.000000    
    292 O2    s    0.417783 *  0.443026 *  0.486162 *  -2.87073    1.000000    
    293 O2    s    0.562922 *  0.969378 *  0.821663 *  -2.87073    1.000000    
    294 O2    s    0.032661 *  0.586650 *  0.154938 *  -2.87073    1.000000    
    295 O3    s    0.580595 *  0.592746 *  0.338317 *  -3.33043    1.000000    
    296 O2    s    0.027097 *  0.440142 *  0.013934 *  -2.87073    1.000000    
    297 O2    s    0.415220 *  0.966447 *  0.680784 *  -2.87073    1.000000    
    298 O2    s    0.449148 *  0.414077 *  0.849599 *  -2.87073    1.000000    
    299 O2    s    0.973664 *  0.558079 *  0.514348 *  -2.87073    1.000000    
    300 O2    s    0.592899 *  0.026492 *  0.180921 *  -2.87073    1.000000    
    301 O2    s    0.584216 *  0.154845 *  0.251818 *  -2.87073    1.000000    
    302 O2    s    0.841745 *  0.418852 *  0.583654 *  -2.87073    1.000000    
    303 O3    s    0.599573 *  0.415601 *  0.912911 *  -3.33043    1.000000    
    304 O2    s    0.423382 *  0.837357 *  0.752343 *  -2.87073    1.000000    
    305 O2    s    0.161558 *  0.578663 *  0.084208 *  -2.87073    1.000000    
    306 O3    s    0.419781 *  0.592752 *  0.422854 *  -3.33043    1.000000    
    307 F     s    0.463132 *  0.910813 *  0.251055 *  -1.56000    1.000000    
    308 F     s    0.089442 *  0.542269 *  0.585399 *  -1.56000    1.000000    
    309 F     s    0.482591 *  0.515306 *  0.930885 *  -1.56000    1.000000    
    310 F     s    0.546553 *  0.085029 *  0.750527 *  -1.56000    1.000000    
    311 F     s    0.917601 *  0.456338 *  0.084823 *  -1.56000    1.000000    
    312 F     s    0.519612 *  0.475651 *  0.405057 *  -1.56000    1.000000    
--------------------------------------------------------------------------------



********************************************************************************
*  General input information                                                   *
********************************************************************************

  Species output for all configurations : 

--------------------------------------------------------------------------------
  Species    Type    Atomic    Atomic    Charge       Radii (Angs)     Library
                     Number     Mass       (e)     Cova   Ionic  VDW   Symbol
--------------------------------------------------------------------------------
    Si       Core       14      28.09   4.000000   1.200  0.000  2.100          
    O1       Core        8      16.00   1.733957   0.730  0.000  1.360          
    O1       Shell       8       0.00  -3.733957   0.730  0.000  1.360          
    O2       Core        8      16.00   0.870733   0.730  0.000  1.360          
    O2       Shell       8       0.00  -2.870733   0.730  0.000  1.360          
    O3       Core        8      16.00   1.330431   0.730  0.000  1.360          
    O3       Shell       8       0.00  -3.330431   0.730  0.000  1.360          
    F        Core        9      19.00   0.560000   0.710  0.000  1.300          
    F        Shell       9       0.00  -1.560000   0.710  0.000  1.300          
    Ge       Core       32      72.61   4.000000   1.170  0.000  1.750          
--------------------------------------------------------------------------------


  Lattice summation method               =    Ewald          (3-D)
                                         =    Parry          (2-D)
                                         =    Saunders et al (1-D)
  Accuracy factor for lattice sums       =   12.000


  Time limit = Infinity

  Maximum range for interatomic potentials =        16.000000 Angstroms

  Taper potentials to zero over   1.0000 Angstroms using polynomial

  General interatomic potentials :

--------------------------------------------------------------------------------
Atom  Types   Potential         A         B         C         D     Cutoffs(Ang)
  1     2                                                            Min    Max 
--------------------------------------------------------------------------------
Si   c O1   s Buckingham    0.132E+04 0.318      10.1      0.00     0.000 16.000
Si   c O2   s Buckingham    0.132E+04 0.318      10.1      0.00     0.000 16.000
Si   c O3   s Buckingham    0.132E+04 0.318      10.1      0.00     0.000 16.000
Ge   c O1   s Buckingham    0.150E+04 0.326      16.8      0.00     0.000 16.000
Ge   c O2   s Buckingham    0.150E+04 0.326      16.8      0.00     0.000 16.000
Ge   c O3   s Buckingham    0.150E+04 0.326      16.8      0.00     0.000 16.000
O1   s O1   s Buckingham    0.228E+05 0.149      10.9      0.00     0.000 16.000
O1   s O2   s Buckingham    0.228E+05 0.149      10.9      0.00     0.000 16.000
O1   s O3   s Buckingham    0.228E+05 0.149      10.9      0.00     0.000 16.000
O2   s O2   s Buckingham    0.228E+05 0.149      10.9      0.00     0.000 16.000
O2   s O3   s Buckingham    0.228E+05 0.149      10.9      0.00     0.000 16.000
O3   s O3   s Buckingham    0.228E+05 0.149      10.9      0.00     0.000 16.000
Si   c F    s Buckingham     977.     0.282      0.00      0.00     0.000 16.000
Ge   c F    s Buckingham     681.     0.320      0.00      0.00     0.000 16.000
F    s F    s Buckingham     540.     0.262      0.00      0.00     0.000 16.000
O1   s F    s Buckingham    0.168E+04 0.268      0.00      0.00     0.000 16.000
O2   s F    s Buckingham    0.168E+04 0.268      0.00      0.00     0.000 16.000
O3   s F    s Buckingham    0.168E+04 0.268      0.00      0.00     0.000 16.000
O2   c O2   s Spring (c-s)   76.0      0.00      0.00      0.00     0.000  0.800
O3   c O3   s Spring (c-s)   128.      0.00      0.00      0.00     0.000  0.800
O1   c O1   s Spring (c-s)   180.      0.00      0.00      0.00     0.000  0.800
F    c F    s Spring (c-s)   33.5      0.00      0.00      0.00     0.000  0.800
--------------------------------------------------------------------------------

  General Three-body potentials :

  Harmonic form:

--------------------------------------------------------------------------------
Atom    Atom    Atom           Force Constants            Theta     Cutoffs  
  1       2       3     (eVrad**-2/eVrad**-3/eVrad**-4)   (deg)  1-2  1-3  2-3
--------------------------------------------------------------------------------
Si    c O1    s O1    s  1.261        0.0000    0.0000   109.470 0.00 0.00 0.00
                                                                 1.90 1.90 3.50
Si    c O1    s O2    s  1.261        0.0000    0.0000   109.470 0.00 0.00 0.00
                                                                 1.90 1.90 3.50
Si    c O2    s O2    s  1.261        0.0000    0.0000   109.470 0.00 0.00 0.00
                                                                 1.90 1.90 3.50
--------------------------------------------------------------------------------

********************************************************************************
*  Output for configuration   1                                                *
********************************************************************************


  Components of energy : 

--------------------------------------------------------------------------------
  Interatomic potentials     =        2066.90933205 eV
  Three-body potentials      =           0.45876278 eV
  Monopole - monopole (real) =       -6645.00811492 eV
  Monopole - monopole (recip)=       -3149.59625124 eV
  Monopole - monopole (total)=       -9794.60436616 eV
  Neutralising energy        =          -6.46322523 eV
--------------------------------------------------------------------------------
  Total lattice energy       =       -7733.69949657 eV
--------------------------------------------------------------------------------
  Total lattice energy       =         -746183.7810 kJ/(mole unit cells)
--------------------------------------------------------------------------------


  Number of variables =      939

  Maximum number of calculations  =          5000
  Maximum Hessian update interval =            10
  Maximum step size               =   0.100000000
  Maximum parameter tolerance     =   0.000010000
  Maximum function  tolerance     =   0.000010000
  Maximum gradient  tolerance     =   0.001000000
  Maximum gradient  component     =   0.010000000

  Symmetry not applied to optimisation

  Cell parameters to be optimised using strains

  Newton-Raphson optimiser to be used

  BFGS hessian update to be used

  Dumpfile to be written after every cycle

  Start of bulk optimisation :

  Cycle:      0 Energy:     -7733.699497  Gnorm:      0.007086  CPU:    2.039
  ** Hessian calculated **
  Cycle:      1 Energy:     -7733.699609  Gnorm:      0.002753  CPU:    5.263
  Cycle:      2 Energy:     -7733.699641  Gnorm:      0.001753  CPU:    8.111
  Cycle:      3 Energy:     -7733.699668  Gnorm:      0.001180  CPU:   10.959
  Cycle:      4 Energy:     -7733.699750  Gnorm:      0.001376  CPU:   15.863
  Cycle:      5 Energy:     -7733.699857  Gnorm:      0.002858  CPU:   20.086
  Cycle:      6 Energy:     -7733.699999  Gnorm:      0.004612  CPU:   24.307
  Cycle:      7 Energy:     -7733.700191  Gnorm:      0.006637  CPU:   28.526
  Cycle:      8 Energy:     -7733.700454  Gnorm:      0.008787  CPU:   32.748
  Cycle:      9 Energy:     -7733.700809  Gnorm:      0.010842  CPU:   36.973
  Cycle:     10 Energy:     -7733.701262  Gnorm:      0.012537  CPU:   41.197
  ** Hessian calculated **
  Cycle:     11 Energy:     -7733.701676  Gnorm:      0.003876  CPU:   46.434
  Cycle:     12 Energy:     -7733.701768  Gnorm:      0.002074  CPU:   49.966
  Cycle:     13 Energy:     -7733.701846  Gnorm:      0.001951  CPU:   54.181
  Cycle:     14 Energy:     -7733.701926  Gnorm:      0.002220  CPU:   58.396
  Cycle:     15 Energy:     -7733.701988  Gnorm:      0.002323  CPU:   61.928
  Cycle:     16 Energy:     -7733.702060  Gnorm:      0.001971  CPU:   66.143
  Cycle:     17 Energy:     -7733.702105  Gnorm:      0.001453  CPU:   68.991
  Cycle:     18 Energy:     -7733.702148  Gnorm:      0.001179  CPU:   71.838
  Cycle:     19 Energy:     -7733.702197  Gnorm:      0.001104  CPU:   74.686
  Cycle:     20 Energy:     -7733.702361  Gnorm:      0.001916  CPU:   79.585
  ** Hessian calculated **
  Cycle:     21 Energy:     -7733.702522  Gnorm:      0.001904  CPU:   85.493
  Cycle:     22 Energy:     -7733.702795  Gnorm:      0.001883  CPU:   90.404
  Cycle:     23 Energy:     -7733.703214  Gnorm:      0.001850  CPU:   95.317
  Cycle:     24 Energy:     -7733.703732  Gnorm:      0.001809  CPU:   99.542
  Cycle:     25 Energy:     -7733.704592  Gnorm:      0.001738  CPU:  104.451
  Cycle:     26 Energy:     -7733.705865  Gnorm:      0.001628  CPU:  109.359
  Cycle:     27 Energy:     -7733.707357  Gnorm:      0.001488  CPU:  113.580
  Cycle:     28 Energy:     -7733.709597  Gnorm:      0.001249  CPU:  118.489
  Cycle:     29 Energy:     -7733.711920  Gnorm:      0.000940  CPU:  122.715
  Cycle:     30 Energy:     -7733.714090  Gnorm:      0.000509  CPU:  126.941
  ** Hessian calculated **
  Cycle:     31 Energy:     -7733.714746  Gnorm:      0.000257  CPU:  132.860
  Cycle:     32 Energy:     -7733.714910  Gnorm:      0.000131  CPU:  137.082
  Cycle:     33 Energy:     -7733.714938  Gnorm:      0.000092  CPU:  139.937
  Cycle:     34 Energy:     -7733.714952  Gnorm:      0.000065  CPU:  142.786


  **** Optimisation achieved ****


  Final energy =   -7733.71495882 eV
  Final Gnorm  =       0.00004539

  Components of energy : 

--------------------------------------------------------------------------------
  Interatomic potentials     =        2066.61992704 eV
  Three-body potentials      =           0.46366580 eV
  Monopole - monopole (real) =       -6645.27170352 eV
  Monopole - monopole (recip)=       -3149.06471424 eV
  Monopole - monopole (total)=       -9794.33641776 eV
  Neutralising energy        =          -6.46213390 eV
--------------------------------------------------------------------------------
  Total lattice energy       =       -7733.71495882 eV
--------------------------------------------------------------------------------
  Total lattice energy       =         -746185.2729 kJ/(mole unit cells)
--------------------------------------------------------------------------------

  Final fractional coordinates of atoms :

--------------------------------------------------------------------------------
   No.  Atomic        x           y          z          Radius
        Label       (Frac)      (Frac)     (Frac)       (Angs) 
--------------------------------------------------------------------------------
     1  Si    c     0.699600    0.375700    0.033890    0.000000
     2  Si    c     0.623666    0.315050    0.365152    0.000000
     3  Si    c     0.672496    0.282223    0.697847    0.000000
     4  Si    c     0.296181    0.611443    0.536499    0.000000
     5  Si    c     0.381952    0.665070    0.867592    0.000000
     6  Si    c     0.334889    0.700937    0.199233    0.000000
     7  Si    c     0.385704    0.689645    0.300967    0.000000
     8  Si    c     0.325009    0.613741    0.969712    0.000000
     9  Si    c     0.292135    0.662590    0.637014    0.000000
    10  Si    c     0.621364    0.286271    0.798361    0.000000
    11  Si    c     0.674977    0.372015    0.467271    0.000000
    12  Si    c     0.710886    0.324914    0.135627    0.000000
    13  Ge    c     0.530675    0.423999    0.965638    0.000000
    14  Si    c     0.587743    0.102746    0.301848    0.000000
    15  Si    c     0.882290    0.458440    0.634447    0.000000
    16  Si    c     0.466320    0.584114    0.468305    0.000000
    17  Si    c     0.419868    0.875665    0.801591    0.000000
    18  Si    c     0.123055    0.530580    0.134194    0.000000
    19  Ge    c     0.433915    0.520689    0.369225    0.000000
    20  Si    c     0.112707    0.577806    0.033017    0.000000
    21  Si    c     0.468349    0.872383    0.700416    0.000000
    22  Si    c     0.594059    0.456423    0.866555    0.000000
    23  Si    c     0.885574    0.409949    0.533273    0.000000
    24  Si    c     0.540523    0.113096    0.200670    0.000000
    25  Si    c     0.306060    0.383659    0.853323    0.000000
    26  Si    c     0.612135    0.903479    0.185853    0.000000
    27  Si    c     0.093759    0.688959    0.520398    0.000000
    28  Si    c     0.706698    0.598952    0.346901    0.000000
    29  Si    c     0.394954    0.081001    0.684772    0.000000
    30  Si    c     0.904529    0.299569    0.019616    0.000000
    31  Si    c     0.393562    0.296115    0.481537    0.000000
    32  Si    c     0.913419    0.602169    0.149004    0.000000
    33  Si    c     0.698881    0.083851    0.814467    0.000000
    34  Si    c     0.608916    0.696782    0.987956    0.000000
    35  Si    c     0.090912    0.385049    0.650089    0.000000
    36  Si    c     0.309517    0.894541    0.315248    0.000000
    37  Si    c     0.251098    0.325813    0.955560    0.000000
    38  Si    c     0.665991    0.902078    0.286665    0.000000
    39  Si    c     0.082958    0.736343    0.620867    0.000000
    40  Si    c     0.746757    0.657974    0.449971    0.000000
    41  Si    c     0.340688    0.076853    0.785407    0.000000
    42  Si    c     0.921455    0.253547    0.120039    0.000000
    43  Si    c     0.335729    0.241119    0.379300    0.000000
    44  Si    c     0.912009    0.656017    0.048192    0.000000
    45  Si    c     0.746253    0.073050    0.713996    0.000000
    46  Si    c     0.667914    0.736855    0.884886    0.000000
    47  Si    c     0.086762    0.330767    0.549455    0.000000
    48  Si    c     0.263492    0.911484    0.214825    0.000000
    49  Si    c     0.967001    0.117430    0.968483    0.000000
    50  Si    c     0.889958    0.844252    0.299858    0.000000
    51  Si    c     0.147318    0.016835    0.634158    0.000000
    52  Si    c     0.028588    0.870238    0.467313    0.000000
    53  Si    c     0.122203    0.138142    0.802114    0.000000
    54  Si    c     0.860584    0.974320    0.135432    0.000000
    55  Si    c     0.127371    0.957014    0.366376    0.000000
    56  Si    c     0.854220    0.880017    0.035000    0.000000
    57  Si    c     0.026748    0.137416    0.700701    0.000000
    58  Si    c     0.880171    0.018683    0.867545    0.000000
    59  Si    c     0.148039    0.112272    0.532744    0.000000
    60  Si    c     0.984264    0.850617    0.199426    0.000000
    61  O2    c     0.932135    0.997392    0.000911    0.000000
    62  O2    c     0.007341    0.922144    0.333944    0.000000
    63  O2    c     0.071642    0.061739    0.667428    0.000000
    64  O2    c     0.069008    0.993196    0.499261    0.000000
    65  O2    c     0.003117    0.059115    0.835592    0.000000
    66  O2    c     0.942531    0.932573    0.167429    0.000000
    67  O3    c     0.347663    0.570111    0.332509    0.000000
    68  O2    c     0.416084    0.744696    0.669377    0.000000
    69  O2    c     0.237308    0.652555    0.999753    0.000000
    70  O2    c     0.663673    0.413176    0.828665    0.000000
    71  O2    c     0.590133    0.240651    0.169013    0.000000
    72  O2    c     0.760490    0.335247    0.500419    0.000000
    73  O3    c     0.580078    0.337706    0.002345    0.000000
    74  O2    c     0.754601    0.406173    0.665485    0.000000
    75  O2    c     0.662482    0.227345    0.335114    0.000000
    76  O2    c     0.423078    0.653738    0.506192    0.000000
    77  O2    c     0.250612    0.580184    0.165849    0.000000
    78  O2    c     0.345175    0.750584    0.834447    0.000000
    79  O2    c     0.119055    0.208070    0.973925    0.000000
    80  O2    c     0.792543    0.900112    0.306617    0.000000
    81  O2    c     0.081756    0.862644    0.640350    0.000000
    82  O2    c     0.874112    0.780159    0.470988    0.000000
    83  O2    c     0.214105    0.074613    0.806163    0.000000
    84  O2    c     0.922729    0.127794    0.140861    0.000000
    85  O2    c     0.218011    0.109067    0.360932    0.000000
    86  O2    c     0.910041    0.782569    0.028241    0.000000
    87  O2    c     0.872555    0.071850    0.694514    0.000000
    88  O2    c     0.790091    0.864209    0.863866    0.000000
    89  O2    c     0.084519    0.204184    0.528698    0.000000
    90  O2    c     0.137739    0.912757    0.194004    0.000000
    91  O2    c     0.945472    0.865037    0.249824    0.000000
    92  O2    c     0.135474    0.056875    0.583174    0.000000
    93  O2    c     0.929247    0.063794    0.917848    0.000000
    94  O2    c     0.066810    0.125579    0.751682    0.000000
    95  O2    c     0.875011    0.935541    0.085033    0.000000
    96  O2    c     0.073717    0.919285    0.417010    0.000000
    97  O2    c     0.896852    0.198966    0.980770    0.000000
    98  O2    c     0.818318    0.691944    0.311516    0.000000
    99  O2    c     0.298644    0.082801    0.645929    0.000000
   100  O2    c     0.097375    0.788458    0.482076    0.000000
   101  O2    c     0.207340    0.289046    0.814715    0.000000
   102  O2    c     0.709557    0.903644    0.147592    0.000000
   103  O2    c     0.208905    0.886858    0.354094    0.000000
   104  O2    c     0.701913    0.808404    0.023341    0.000000
   105  O2    c     0.092710    0.288741    0.688932    0.000000
   106  O2    c     0.798380    0.087467    0.852790    0.000000
   107  O2    c     0.298944    0.197402    0.520145    0.000000
   108  O2    c     0.913581    0.699592    0.187265    0.000000
   109  O2    c     0.335773    0.642693    0.249008    0.000000
   110  O2    c     0.349779    0.665452    0.587056    0.000000
   111  O2    c     0.327001    0.662344    0.917697    0.000000
   112  O2    c     0.675363    0.339867    0.747804    0.000000
   113  O2    c     0.652643    0.325772    0.085849    0.000000
   114  O2    c     0.672254    0.317047    0.417169    0.000000
   115  O3    c     0.364397    0.307288    0.974767    0.000000
   116  O2    c     0.677495    0.035455    0.305442    0.000000
   117  O2    c     0.949626    0.614309    0.638237    0.000000
   118  O2    c     0.624614    0.667262    0.468807    0.000000
   119  O2    c     0.332737    0.945400    0.804754    0.000000
   120  O2    c     0.054618    0.374483    0.138101    0.000000
   121  O3    c     0.317196    0.354413    0.360094    0.000000
   122  O2    c     0.045401    0.667543    0.029421    0.000000
   123  O2    c     0.624218    0.939718    0.696626    0.000000
   124  O2    c     0.677207    0.614716    0.866051    0.000000
   125  O2    c     0.955309    0.322819    0.530109    0.000000
   126  O2    c     0.384425    0.044654    0.196765    0.000000
   127  O2    c     0.771074    0.300233    0.013442    0.000000
   128  O2    c     0.701650    0.459905    0.345007    0.000000
   129  O2    c     0.528234    0.213696    0.676364    0.000000
   130  O2    c     0.226346    0.685631    0.513528    0.000000
   131  O2    c     0.310770    0.520968    0.847042    0.000000
   132  O2    c     0.478121    0.771771    0.177143    0.000000
   133  O2    c     0.310220    0.761107    0.321418    0.000000
   134  O2    c     0.469864    0.691719    0.989858    0.000000
   135  O2    c     0.223609    0.518328    0.658496    0.000000
   136  O2    c     0.695551    0.216438    0.821335    0.000000
   137  O2    c     0.530876    0.300838    0.487822    0.000000
   138  O2    c     0.781714    0.468152    0.157712    0.000000
   139  O2    c     0.787582    0.531943    0.028491    0.000000
   140  O2    c     0.469555    0.251721    0.361637    0.000000
   141  O2    c     0.745284    0.198110    0.693149    0.000000
   142  O2    c     0.214805    0.455609    0.531269    0.000000
   143  O2    c     0.536306    0.728786    0.866605    0.000000
   144  O2    c     0.262222    0.785292    0.195185    0.000000
   145  O2    c     0.541937    0.777632    0.306368    0.000000
   146  O2    c     0.261677    0.459629    0.973224    0.000000
   147  O2    c     0.208022    0.735377    0.641713    0.000000
   148  O2    c     0.465529    0.204897    0.803594    0.000000
   149  O2    c     0.738693    0.526370    0.468253    0.000000
   150  O2    c     0.795253    0.252260    0.139678    0.000000
   151  O2    c     0.239406    0.315557    0.900350    0.000000
   152  O2    c     0.684655    0.902665    0.232397    0.000000
   153  O2    c     0.088014    0.757938    0.566662    0.000000
   154  O2    c     0.762350    0.670648    0.395885    0.000000
   155  O2    c     0.320902    0.077149    0.731088    0.000000
   156  O2    c     0.916682    0.231584    0.065815    0.000000
   157  O2    c     0.325470    0.229442    0.434511    0.000000
   158  O2    c     0.912596    0.674683    0.102460    0.000000
   159  O2    c     0.767853    0.078106    0.768201    0.000000
   160  O2    c     0.680597    0.752453    0.938971    0.000000
   161  O2    c     0.087057    0.310990    0.603774    0.000000
   162  O2    c     0.241529    0.906695    0.269050    0.000000
   163  O3    c     0.601223    0.565410    0.001061    0.000000
   164  O2    c     0.447355    0.020685    0.325526    0.000000
   165  O2    c     0.965175    0.399498    0.658389    0.000000
   166  O2    c     0.412669    0.437753    0.488321    0.000000
   167  O2    c     0.561684    0.957202    0.824217    0.000000
   168  O2    c     0.040942    0.590105    0.157448    0.000000
   169  O3    c     0.575317    0.591229    0.333795    0.000000
   170  O2    c     0.030657    0.437416    0.009338    0.000000
   171  O2    c     0.409403    0.955264    0.676474    0.000000
   172  O2    c     0.447701    0.402777    0.846537    0.000000
   173  O2    c     0.967108    0.551764    0.510647    0.000000
   174  O2    c     0.600056    0.030993    0.177413    0.000000
   175  O2    c     0.591255    0.163951    0.251962    0.000000
   176  O2    c     0.829699    0.407155    0.583526    0.000000
   177  O3    c     0.601950    0.401317    0.914643    0.000000
   178  O2    c     0.417068    0.819791    0.751337    0.000000
   179  O2    c     0.173909    0.581319    0.082903    0.000000
   180  O3    c     0.411220    0.591986    0.420214    0.000000
   181  F     c     0.465416    0.908706    0.250709    0.000000
   182  F     c     0.088708    0.535247    0.585153    0.000000
   183  F     c     0.476034    0.515257    0.927897    0.000000
   184  F     c     0.545156    0.078798    0.749709    0.000000
   185  F     c     0.918663    0.455448    0.084153    0.000000
   186  F     c     0.525168    0.466070    0.406966    0.000000
   187  O2    s     0.927266    0.997830    0.001055    0.000000
   188  O2    s     0.007778    0.917277    0.333802    0.000000
   189  O2    s     0.075094    0.065191    0.667428    0.000000
   190  O2    s     0.073357    0.993007    0.499499    0.000000
   191  O2    s     0.002930    0.063462    0.835355    0.000000
   192  O2    s     0.937954    0.927996    0.167429    0.000000
   193  O3    s     0.357864    0.579739    0.331629    0.000000
   194  O2    s     0.408640    0.749402    0.669227    0.000000
   195  O2    s     0.234405    0.641012    0.999799    0.000000
   196  O2    s     0.652204    0.404224    0.829290    0.000000
   197  O2    s     0.597408    0.236207    0.168835    0.000000
   198  O2    s     0.764178    0.346772    0.500247    0.000000
   199  O3    s     0.589706    0.347904    0.003226    0.000000
   200  O2    s     0.759307    0.398729    0.665634    0.000000
   201  O2    s     0.650940    0.224443    0.335067    0.000000
   202  O2    s     0.414127    0.642269    0.505568    0.000000
   203  O2    s     0.246169    0.587460    0.166027    0.000000
   204  O2    s     0.356699    0.754271    0.834618    0.000000
   205  O2    s     0.116505    0.210888    0.971303    0.000000
   206  O2    s     0.789984    0.894328    0.303881    0.000000
   207  O2    s     0.088805    0.865913    0.637707    0.000000
   208  O2    s     0.877261    0.777066    0.468461    0.000000
   209  O2    s     0.217436    0.081634    0.803600    0.000000
   210  O2    s     0.915914    0.124312    0.138148    0.000000
   211  O2    s     0.220827    0.106519    0.363555    0.000000
   212  O2    s     0.904261    0.780014    0.030977    0.000000
   213  O2    s     0.875825    0.078899    0.697156    0.000000
   214  O2    s     0.786999    0.867358    0.866394    0.000000
   215  O2    s     0.091540    0.207514    0.531261    0.000000
   216  O2    s     0.134257    0.905943    0.196716    0.000000
   217  O2    s     0.943443    0.861002    0.249907    0.000000
   218  O2    s     0.138184    0.058577    0.583247    0.000000
   219  O2    s     0.927756    0.064515    0.917642    0.000000
   220  O2    s     0.068509    0.128288    0.751610    0.000000
   221  O2    s     0.870975    0.933509    0.084950    0.000000
   222  O2    s     0.074438    0.917795    0.417215    0.000000
   223  O2    s     0.905178    0.200102    0.983270    0.000000
   224  O2    s     0.814479    0.698355    0.313898    0.000000
   225  O2    s     0.292363    0.075553    0.648671    0.000000
   226  O2    s     0.089563    0.786837    0.484520    0.000000
   227  O2    s     0.208439    0.282857    0.817307    0.000000
   228  O2    s     0.715745    0.911168    0.150191    0.000000
   229  O2    s     0.210042    0.895185    0.351595    0.000000
   230  O2    s     0.708323    0.804561    0.020959    0.000000
   231  O2    s     0.085462    0.282461    0.686190    0.000000
   232  O2    s     0.796761    0.079657    0.850345    0.000000
   233  O2    s     0.292756    0.198501    0.517552    0.000000
   234  O2    s     0.921106    0.705780    0.184666    0.000000
   235  O2    s     0.340630    0.653445    0.248919    0.000000
   236  O2    s     0.338159    0.659531    0.587017    0.000000
   237  O2    s     0.332625    0.657742    0.917617    0.000000
   238  O2    s     0.669442    0.328247    0.747844    0.000000
   239  O2    s     0.663395    0.330631    0.085938    0.000000
   240  O2    s     0.667653    0.322673    0.417249    0.000000
   241  O3    s     0.363252    0.317094    0.972041    0.000000
   242  O2    s     0.667080    0.028802    0.303150    0.000000
   243  O2    s     0.956587    0.611016    0.636033    0.000000
   244  O2    s     0.622223    0.658273    0.466765    0.000000
   245  O2    s     0.342658    0.951860    0.802393    0.000000
   246  O2    s     0.047742    0.377870    0.135804    0.000000
   247  O3    s     0.327002    0.353268    0.362821    0.000000
   248  O2    s     0.038749    0.657127    0.031713    0.000000
   249  O2    s     0.620926    0.946679    0.698830    0.000000
   250  O2    s     0.668217    0.612324    0.868093    0.000000
   251  O2    s     0.961769    0.332740    0.532470    0.000000
   252  O2    s     0.387813    0.037778    0.199062    0.000000
   253  O2    s     0.778706    0.307681    0.016200    0.000000
   254  O2    s     0.693962    0.458720    0.347352    0.000000
   255  O2    s     0.529102    0.206781    0.679504    0.000000
   256  O2    s     0.219394    0.678295    0.516668    0.000000
   257  O2    s     0.317725    0.521755    0.849853    0.000000
   258  O2    s     0.477584    0.778400    0.180343    0.000000
   259  O2    s     0.317663    0.768742    0.318660    0.000000
   260  O2    s     0.468680    0.684033    0.987512    0.000000
   261  O2    s     0.216693    0.519196    0.655356    0.000000
   262  O2    s     0.688216    0.209485    0.818194    0.000000
   263  O2    s     0.531662    0.307791    0.485011    0.000000
   264  O2    s     0.788343    0.467615    0.154513    0.000000
   265  O2    s     0.792784    0.530071    0.031181    0.000000
   266  O2    s     0.472540    0.257669    0.363821    0.000000
   267  O2    s     0.737705    0.193273    0.695853    0.000000
   268  O2    s     0.209265    0.458185    0.533752    0.000000
   269  O2    s     0.533740    0.722716    0.868654    0.000000
   270  O2    s     0.270098    0.790298    0.197730    0.000000
   271  O2    s     0.540060    0.782833    0.303678    0.000000
   272  O2    s     0.267627    0.462615    0.971040    0.000000
   273  O2    s     0.203184    0.727797    0.639009    0.000000
   274  O2    s     0.468105    0.199357    0.801111    0.000000
   275  O2    s     0.732622    0.523803    0.466205    0.000000
   276  O2    s     0.800258    0.260137    0.137133    0.000000
   277  O2    s     0.247838    0.323983    0.900739    0.000000
   278  O2    s     0.675080    0.902700    0.233239    0.000000
   279  O2    s     0.088078    0.748366    0.567587    0.000000
   280  O2    s     0.755220    0.662345    0.397095    0.000000
   281  O2    s     0.330704    0.077512    0.731990    0.000000
   282  O2    s     0.915954    0.240958    0.066690    0.000000
   283  O2    s     0.333895    0.237874    0.434121    0.000000
   284  O2    s     0.912632    0.665108    0.101619    0.000000
   285  O2    s     0.758281    0.078170    0.767277    0.000000
   286  O2    s     0.672294    0.745321    0.937762    0.000000
   287  O2    s     0.087421    0.320791    0.602872    0.000000
   288  O2    s     0.250903    0.905969    0.268174    0.000000
   289  O3    s     0.597186    0.570478    0.997298    0.000000
   290  O2    s     0.447337    0.015781    0.322019    0.000000
   291  O2    s     0.970241    0.404269    0.654992    0.000000
   292  O2    s     0.415940    0.436447    0.485593    0.000000
   293  O2    s     0.561377    0.962215    0.820803    0.000000
   294  O2    s     0.035635    0.585037    0.154112    0.000000
   295  O3    s     0.580390    0.587197    0.337558    0.000000
   296  O2    s     0.025752    0.437396    0.012845    0.000000
   297  O2    s     0.414174    0.960330    0.679870    0.000000
   298  O2    s     0.446395    0.406046    0.849265    0.000000
   299  O2    s     0.972121    0.551457    0.514061    0.000000
   300  O2    s     0.594989    0.025687    0.180749    0.000000
   301  O2    s     0.585687    0.152428    0.251867    0.000000
   302  O2    s     0.841024    0.412780    0.583542    0.000000
   303  O3    s     0.596580    0.408643    0.912780    0.000000
   304  O2    s     0.422692    0.831115    0.751322    0.000000
   305  O2    s     0.162387    0.575749    0.082997    0.000000
   306  O3    s     0.418545    0.586617    0.422078    0.000000
   307  F     s     0.465751    0.909451    0.250720    0.000000
   308  F     s     0.088692    0.535232    0.585146    0.000000
   309  F     s     0.480032    0.509038    0.930444    0.000000
   310  F     s     0.545140    0.078783    0.749716    0.000000
   311  F     s     0.919408    0.455781    0.084142    0.000000
   312  F     s     0.518946    0.470068    0.404418    0.000000
--------------------------------------------------------------------------------

  Final Cartesian lattice vectors (Angstroms) :

       11.927805    0.009814   -0.007253
       -5.870873   10.382940    0.008907
       -0.233200    0.130960   29.484801


  Final cell parameters and derivatives :

--------------------------------------------------------------------------------
       a           11.927811 Angstrom     dE/de1(xx)     0.002450 eV/strain
       b           11.927811 Angstrom     dE/de2(yy)     0.001198 eV/strain
       c           29.486014 Angstrom     dE/de3(zz)     0.006550 eV/strain
       alpha       89.512657 Degrees      dE/de4(yz)    -0.000307 eV/strain
       beta        90.487781 Degrees      dE/de5(xz)     0.001081 eV/strain
       gamma      119.438192 Degrees      dE/de6(xy)    -0.002498 eV/strain
--------------------------------------------------------------------------------

  Primitive cell volume =          3653.238096 Angs**3

  Density of cell =      1.731112 g/cm**3

  Non-primitive cell volume =          3653.238096 Angs**3


  Final internal derivatives :

--------------------------------------------------------------------------------
   No.  Atomic          a             b             c           Radius
        Label          (eV)          (eV)          (eV)        (eV/Angs)
--------------------------------------------------------------------------------
      1 Si    c       0.000000      0.000000      0.000000      0.000000
      2 Si    c      -0.000607      0.001661      0.002241      0.000000
      3 Si    c       0.000328      0.001030      0.000989      0.000000
      4 Si    c      -0.001195      0.001255      0.002985      0.000000
      5 Si    c       0.000882     -0.000783      0.000536      0.000000
      6 Si    c      -0.001840     -0.001036      0.002249      0.000000
      7 Si    c      -0.002466     -0.002685      0.001616      0.000000
      8 Si    c       0.001717     -0.001131     -0.002737      0.000000
      9 Si    c      -0.000323      0.001136     -0.002020      0.000000
     10 Si    c       0.000205      0.001220     -0.001407      0.000000
     11 Si    c      -0.000601      0.001186     -0.001180      0.000000
     12 Si    c       0.000011     -0.001511     -0.001597      0.000000
     13 Ge    c      -0.001957      0.002761     -0.001641      0.000000
     14 Si    c       0.000845     -0.000653     -0.001380      0.000000
     15 Si    c       0.000486      0.000156     -0.002835      0.000000
     16 Si    c       0.000863     -0.000754     -0.004854      0.000000
     17 Si    c      -0.000899     -0.001577     -0.000785      0.000000
     18 Si    c      -0.001248      0.000402     -0.000454      0.000000
     19 Ge    c       0.000730     -0.000810     -0.000225      0.000000
     20 Si    c      -0.000240      0.001314      0.001480      0.000000
     21 Si    c      -0.000599     -0.000306      0.000622      0.000000
     22 Si    c      -0.000791      0.002050      0.001349      0.000000
     23 Si    c      -0.000885     -0.000794      0.000790      0.000000
     24 Si    c       0.001024     -0.000930     -0.001885      0.000000
     25 Si    c       0.001367      0.001488      0.000219      0.000000
     26 Si    c      -0.000310      0.000478      0.001896      0.000000
     27 Si    c       0.000686      0.001062      0.000176      0.000000
     28 Si    c      -0.001866      0.001348      0.002081      0.000000
     29 Si    c      -0.000962     -0.000521     -0.001041      0.000000
     30 Si    c       0.000378      0.000227      0.000683      0.000000
     31 Si    c       0.001626      0.001496     -0.001796      0.000000
     32 Si    c       0.000488      0.000223     -0.002221      0.000000
     33 Si    c       0.001722     -0.000040      0.001268      0.000000
     34 Si    c       0.000450     -0.000633     -0.001283      0.000000
     35 Si    c      -0.000756     -0.000256      0.000193      0.000000
     36 Si    c      -0.000227     -0.001873     -0.002544      0.000000
     37 Si    c       0.001869      0.002085     -0.003252      0.000000
     38 Si    c       0.000847     -0.000009      0.001057      0.000000
     39 Si    c       0.001031      0.000752     -0.002161      0.000000
     40 Si    c      -0.001614      0.000100     -0.000701      0.000000
     41 Si    c      -0.001380     -0.000412     -0.001956      0.000000
     42 Si    c      -0.001618     -0.000481      0.000409      0.000000
     43 Si    c       0.001160      0.000036      0.002821      0.000000
     44 Si    c       0.001038      0.001830      0.000254      0.000000
     45 Si    c       0.001122      0.000467      0.001516      0.000000
     46 Si    c      -0.000354     -0.000303      0.000364      0.000000
     47 Si    c      -0.001090     -0.000412      0.000851      0.000000
     48 Si    c      -0.000943     -0.001990     -0.001351      0.000000
     49 Si    c      -0.001411     -0.000732      0.000627      0.000000
     50 Si    c      -0.002049      0.002325      0.000147      0.000000
     51 Si    c       0.000253      0.000842     -0.002168      0.000000
     52 Si    c       0.001569      0.001703      0.001275      0.000000
     53 Si    c       0.000494      0.000993     -0.003134      0.000000
     54 Si    c       0.000344      0.000304      0.004129      0.000000
     55 Si    c      -0.001379      0.000059      0.000017      0.000000
     56 Si    c       0.000917      0.001595     -0.000795      0.000000
     57 Si    c       0.001280      0.001110      0.000524      0.000000
     58 Si    c      -0.000318      0.001086     -0.005936      0.000000
     59 Si    c       0.000352     -0.000648      0.000524      0.000000
     60 Si    c      -0.001340      0.000852     -0.004797      0.000000
     61 O2    c       0.000996     -0.000113      0.001986      0.000000
     62 O2    c      -0.001754      0.001516      0.003754      0.000000
     63 O2    c      -0.000301      0.000773      0.003817      0.000000
     64 O2    c       0.000803     -0.000564      0.003264      0.000000
     65 O2    c      -0.000594      0.000976      0.003263      0.000000
     66 O2    c       0.001018      0.000433      0.004234      0.000000
     67 O3    c       0.001306     -0.001059     -0.001909      0.000000
     68 O2    c      -0.000251      0.000719     -0.000096      0.000000
     69 O2    c      -0.000277      0.000803      0.002074      0.000000
     70 O2    c      -0.000254      0.000099     -0.001373      0.000000
     71 O2    c      -0.000000     -0.000736     -0.000328      0.000000
     72 O2    c      -0.000858      0.000777      0.000787      0.000000
     73 O3    c      -0.000553     -0.001587     -0.000170      0.000000
     74 O2    c      -0.000569      0.000590      0.001262      0.000000
     75 O2    c      -0.000218     -0.001090     -0.001053      0.000000
     76 O2    c      -0.000397      0.001047      0.001428      0.000000
     77 O2    c      -0.000170     -0.000239      0.001040      0.000000
     78 O2    c       0.000807     -0.000047      0.000895      0.000000
     79 O2    c       0.000101      0.000087      0.000176      0.000000
     80 O2    c       0.000753     -0.001565      0.001209      0.000000
     81 O2    c       0.000303     -0.000408      0.000100      0.000000
     82 O2    c      -0.000419      0.000421      0.001419      0.000000
     83 O2    c       0.000245      0.000268      0.000339      0.000000
     84 O2    c      -0.000747      0.000956      0.002164      0.000000
     85 O2    c      -0.000279      0.000214      0.001218      0.000000
     86 O2    c       0.000677     -0.000062     -0.000525      0.000000
     87 O2    c      -0.001167      0.000270      0.001932      0.000000
     88 O2    c      -0.000020      0.001147     -0.000022      0.000000
     89 O2    c      -0.000287      0.001178      0.000742      0.000000
     90 O2    c       0.000398      0.000149     -0.001208      0.000000
     91 O2    c      -0.001009      0.001646      0.005562      0.000000
     92 O2    c       0.000591      0.000506      0.000976      0.000000
     93 O2    c       0.000721      0.000457      0.005476      0.000000
     94 O2    c       0.000257     -0.000053      0.004261      0.000000
     95 O2    c      -0.000060     -0.000032     -0.002216      0.000000
     96 O2    c      -0.000309      0.000700      0.002175      0.000000
     97 O2    c       0.000284      0.001065      0.001752      0.000000
     98 O2    c      -0.002321      0.001744      0.001819      0.000000
     99 O2    c       0.001396      0.000029      0.002153      0.000000
    100 O2    c      -0.000218     -0.000566      0.002372      0.000000
    101 O2    c       0.000369      0.000484      0.000591      0.000000
    102 O2    c      -0.000746     -0.000964      0.001826      0.000000
    103 O2    c       0.000090      0.000180      0.000343      0.000000
    104 O2    c       0.000048     -0.000667      0.000209      0.000000
    105 O2    c      -0.000045      0.000600      0.000440      0.000000
    106 O2    c      -0.000529     -0.000298      0.000236      0.000000
    107 O2    c       0.001005     -0.000281      0.001575      0.000000
    108 O2    c      -0.001306      0.000986      0.001215      0.000000
    109 O2    c       0.000170      0.000675     -0.000296      0.000000
    110 O2    c       0.000152      0.000534      0.000852      0.000000
    111 O2    c       0.000053      0.000823     -0.000609      0.000000
    112 O2    c      -0.000926      0.001019     -0.000496      0.000000
    113 O2    c       0.000404     -0.000425      0.000663      0.000000
    114 O2    c      -0.000174      0.000063      0.001592      0.000000
    115 O3    c      -0.001853      0.000138     -0.003024      0.000000
    116 O2    c      -0.001079     -0.000395      0.000944      0.000000
    117 O2    c      -0.000565     -0.000026     -0.000478      0.000000
    118 O2    c       0.001750      0.000007     -0.001325      0.000000
    119 O2    c       0.000307      0.000358      0.000809      0.000000
    120 O2    c      -0.000200      0.000572      0.003265      0.000000
    121 O3    c      -0.000124     -0.001409      0.004351      0.000000
    122 O2    c       0.000216     -0.000373      0.000899      0.000000
    123 O2    c       0.000519     -0.000573      0.000645      0.000000
    124 O2    c      -0.000335      0.001720      0.000872      0.000000
    125 O2    c      -0.000161      0.000586     -0.000354      0.000000
    126 O2    c      -0.000071     -0.000128     -0.002479      0.000000
    127 O2    c      -0.000815      0.000887     -0.001210      0.000000
    128 O2    c      -0.001067      0.001493     -0.000634      0.000000
    129 O2    c      -0.000269      0.001474     -0.000774      0.000000
    130 O2    c      -0.000730      0.000323     -0.000512      0.000000
    131 O2    c       0.000525     -0.000106      0.000227      0.000000
    132 O2    c      -0.000120     -0.000888     -0.002035      0.000000
    133 O2    c       0.001377     -0.000201     -0.000119      0.000000
    134 O2    c       0.001113      0.000145      0.000880      0.000000
    135 O2    c       0.000588      0.000919      0.000610      0.000000
    136 O2    c      -0.000296     -0.000599      0.001227      0.000000
    137 O2    c      -0.001499      0.000506      0.000635      0.000000
    138 O2    c      -0.000522     -0.000501      0.000531      0.000000
    139 O2    c      -0.000217     -0.000066      0.000255      0.000000
    140 O2    c      -0.001749      0.000527      0.000437      0.000000
    141 O2    c       0.000261     -0.000136      0.000348      0.000000
    142 O2    c       0.000629      0.000182     -0.001730      0.000000
    143 O2    c       0.001261     -0.000034      0.000083      0.000000
    144 O2    c      -0.000007     -0.000563     -0.001876      0.000000
    145 O2    c       0.000244     -0.001167      0.001328      0.000000
    146 O2    c       0.000215     -0.000992      0.000554      0.000000
    147 O2    c       0.000022      0.000140     -0.001171      0.000000
    148 O2    c      -0.001127      0.001323      0.000866      0.000000
    149 O2    c      -0.000296      0.001077      0.001589      0.000000
    150 O2    c      -0.001640      0.000291      0.002081      0.000000
    151 O2    c      -0.000498     -0.000946      0.005052      0.000000
    152 O2    c      -0.000195     -0.000743      0.000220      0.000000
    153 O2    c       0.000383     -0.000737      0.000321      0.000000
    154 O2    c      -0.000966      0.002084      0.000482      0.000000
    155 O2    c      -0.000442      0.000655      0.002193      0.000000
    156 O2    c      -0.000021     -0.000385     -0.002368      0.000000
    157 O2    c      -0.000381     -0.000604     -0.001417      0.000000
    158 O2    c       0.000233     -0.001028      0.000253      0.000000
    159 O2    c      -0.000121     -0.000374      0.001904      0.000000
    160 O2    c       0.000898      0.000356     -0.001720      0.000000
    161 O2    c      -0.000270     -0.000040      0.000450      0.000000
    162 O2    c       0.000248      0.000070      0.003044      0.000000
    163 O3    c       0.001168      0.000114      0.000103      0.000000
    164 O2    c      -0.000104      0.000004      0.001287      0.000000
    165 O2    c      -0.000824      0.000493     -0.000040      0.000000
    166 O2    c       0.002013     -0.000374     -0.001088      0.000000
    167 O2    c      -0.000074     -0.000680      0.000709      0.000000
    168 O2    c      -0.000165     -0.000595      0.000141      0.000000
    169 O3    c       0.000722      0.001406      0.002490      0.000000
    170 O2    c       0.000271      0.000654     -0.001188      0.000000
    171 O2    c       0.000145     -0.000221     -0.000368      0.000000
    172 O2    c      -0.000432      0.001315      0.000324      0.000000
    173 O2    c      -0.000379      0.000011      0.000190      0.000000
    174 O2    c      -0.001025      0.000100     -0.000881      0.000000
    175 O2    c       0.000151     -0.000546      0.000312      0.000000
    176 O2    c       0.000008      0.000273      0.001133      0.000000
    177 O3    c      -0.000482      0.000738     -0.004408      0.000000
    178 O2    c       0.000234      0.000169      0.000341      0.000000
    179 O2    c      -0.000311      0.000748      0.001051      0.000000
    180 O3    c       0.002449     -0.001083      0.006128      0.000000
    181 F     c      -0.000390     -0.000183     -0.000029      0.000000
    182 F     c      -0.000568      0.000206     -0.000047      0.000000
    183 F     c       0.000704     -0.000451      0.001086      0.000000
    184 F     c      -0.000110     -0.000199     -0.000015      0.000000
    185 F     c      -0.000281      0.000552     -0.000149      0.000000
    186 F     c      -0.001357      0.001201     -0.000749      0.000000
    187 O2    s      -0.001373     -0.000782     -0.001626      0.000000
    188 O2    s       0.002649     -0.002431     -0.001220      0.000000
    189 O2    s      -0.000146      0.001874     -0.002111      0.000000
    190 O2    s       0.000184      0.001138     -0.003139      0.000000
    191 O2    s      -0.001657      0.000760     -0.000743      0.000000
    192 O2    s       0.002091      0.000660     -0.002017      0.000000
    193 O3    s      -0.001791      0.000360      0.003022      0.000000
    194 O2    s      -0.000422     -0.000083     -0.000414      0.000000
    195 O2    s       0.001365     -0.000329      0.001529      0.000000
    196 O2    s       0.000586      0.000342     -0.000951      0.000000
    197 O2    s      -0.001760      0.000411     -0.000306      0.000000
    198 O2    s       0.000273      0.000065     -0.001765      0.000000
    199 O3    s       0.000186      0.002554     -0.002012      0.000000
    200 O2    s      -0.000711     -0.000479      0.000969      0.000000
    201 O2    s      -0.001247      0.002043     -0.000978      0.000000
    202 O2    s       0.000172      0.000271      0.000427      0.000000
    203 O2    s      -0.000449     -0.000421      0.003014      0.000000
    204 O2    s      -0.000540      0.000325      0.000025      0.000000
    205 O2    s      -0.000383      0.000734     -0.000037      0.000000
    206 O2    s      -0.000456      0.001536     -0.001334      0.000000
    207 O2    s      -0.000539      0.000156     -0.000411      0.000000
    208 O2    s      -0.000248     -0.000043     -0.002469      0.000000
    209 O2    s      -0.000421     -0.000177      0.000410      0.000000
    210 O2    s      -0.001215      0.000333     -0.002215      0.000000
    211 O2    s       0.001271     -0.000571     -0.000671      0.000000
    212 O2    s       0.001263      0.000564      0.000836      0.000000
    213 O2    s      -0.000777      0.000748     -0.001191      0.000000
    214 O2    s       0.000076     -0.000676      0.000662      0.000000
    215 O2    s      -0.000131     -0.000393     -0.000686      0.000000
    216 O2    s       0.000752     -0.000992      0.001771      0.000000
    217 O2    s       0.001075     -0.000013     -0.002746      0.000000
    218 O2    s       0.000165      0.002094     -0.002781      0.000000
    219 O2    s      -0.000104      0.001083     -0.003891      0.000000
    220 O2    s       0.001696      0.001687     -0.003501      0.000000
    221 O2    s       0.000802      0.001298     -0.001609      0.000000
    222 O2    s       0.000473     -0.000448     -0.003076      0.000000
    223 O2    s      -0.000507     -0.000081     -0.001440      0.000000
    224 O2    s       0.001635     -0.003111     -0.000899      0.000000
    225 O2    s       0.000153      0.000310      0.002422      0.000000
    226 O2    s       0.001068     -0.000201     -0.001504      0.000000
    227 O2    s       0.001174     -0.000065     -0.002014      0.000000
    228 O2    s      -0.000350     -0.000491     -0.000598      0.000000
    229 O2    s      -0.002221     -0.000447     -0.000280      0.000000
    230 O2    s      -0.000849      0.000478      0.000551      0.000000
    231 O2    s      -0.000249      0.000193     -0.004044      0.000000
    232 O2    s      -0.000234      0.001347     -0.000878      0.000000
    233 O2    s      -0.001715      0.002367      0.000119      0.000000
    234 O2    s      -0.000843      0.000470     -0.000085      0.000000
    235 O2    s      -0.001233     -0.002617     -0.000287      0.000000
    236 O2    s       0.001090      0.001039     -0.000490      0.000000
    237 O2    s      -0.002673      0.003588      0.000472      0.000000
    238 O2    s       0.001768      0.000016     -0.001023      0.000000
    239 O2    s      -0.002535      0.000741      0.001129      0.000000
    240 O2    s       0.003569     -0.001925     -0.002675      0.000000
    241 O3    s       0.001193     -0.000473      0.003390      0.000000
    242 O2    s      -0.000224      0.000898     -0.000291      0.000000
    243 O2    s      -0.001009      0.000477     -0.000923      0.000000
    244 O2    s      -0.000691      0.002437      0.000196      0.000000
    245 O2    s      -0.000270     -0.000980     -0.000115      0.000000
    246 O2    s       0.001135     -0.000773      0.002011      0.000000
    247 O3    s      -0.000018      0.000973     -0.003762      0.000000
    248 O2    s       0.000607      0.001087      0.000785      0.000000
    249 O2    s      -0.000217     -0.000110      0.000515      0.000000
    250 O2    s       0.002150     -0.000315     -0.000273      0.000000
    251 O2    s      -0.001013     -0.000334     -0.001392      0.000000
    252 O2    s      -0.001345      0.001250     -0.000122      0.000000
    253 O2    s       0.000249     -0.000155     -0.001134      0.000000
    254 O2    s       0.001716     -0.000082     -0.004034      0.000000
    255 O2    s      -0.000140      0.000150     -0.000136      0.000000
    256 O2    s       0.001253     -0.000457     -0.001601      0.000000
    257 O2    s      -0.001671      0.001341     -0.003093      0.000000
    258 O2    s       0.001084     -0.001432      0.000317      0.000000
    259 O2    s      -0.002384     -0.000290      0.001136      0.000000
    260 O2    s      -0.000351      0.001905      0.005344      0.000000
    261 O2    s       0.000513     -0.000268      0.001268      0.000000
    262 O2    s      -0.000571      0.001034     -0.000544      0.000000
    263 O2    s       0.000868     -0.000770      0.002381      0.000000
    264 O2    s      -0.002187      0.002000      0.000447      0.000000
    265 O2    s       0.000368     -0.000666     -0.001233      0.000000
    266 O2    s       0.000395     -0.001011     -0.003359      0.000000
    267 O2    s       0.000405      0.000737      0.001548      0.000000
    268 O2    s       0.001424     -0.000781     -0.003167      0.000000
    269 O2    s      -0.000674      0.001818     -0.000279      0.000000
    270 O2    s      -0.001847     -0.000849      0.002879      0.000000
    271 O2    s       0.000030     -0.000311      0.001536      0.000000
    272 O2    s      -0.000936      0.000597      0.003260      0.000000
    273 O2    s       0.000670      0.000789      0.000306      0.000000
    274 O2    s       0.000142      0.000305      0.002183      0.000000
    275 O2    s       0.001790     -0.000593     -0.001150      0.000000
    276 O2    s      -0.000695     -0.001116     -0.000670      0.000000
    277 O2    s       0.000496     -0.001524     -0.000320      0.000000
    278 O2    s       0.000169      0.000300     -0.001390      0.000000
    279 O2    s      -0.000179      0.001880     -0.002280      0.000000
    280 O2    s       0.002857     -0.000464     -0.001877      0.000000
    281 O2    s      -0.000783     -0.001398     -0.001019      0.000000
    282 O2    s       0.000049     -0.002009     -0.001194      0.000000
    283 O2    s      -0.002396      0.000928     -0.002976      0.000000
    284 O2    s      -0.000120      0.001802     -0.001507      0.000000
    285 O2    s      -0.000011      0.001785     -0.000814      0.000000
    286 O2    s       0.000934      0.002210     -0.000085      0.000000
    287 O2    s      -0.000743     -0.001475     -0.000905      0.000000
    288 O2    s      -0.002224     -0.000975     -0.000982      0.000000
    289 O3    s       0.000526     -0.000349     -0.000672      0.000000
    290 O2    s      -0.001249      0.001226      0.001163      0.000000
    291 O2    s      -0.000881      0.000169     -0.000877      0.000000
    292 O2    s      -0.002402      0.000868      0.002584      0.000000
    293 O2    s      -0.000646      0.000898      0.001196      0.000000
    294 O2    s      -0.000057      0.001061      0.001400      0.000000
    295 O3    s      -0.000644     -0.000260     -0.002010      0.000000
    296 O2    s       0.001332     -0.000788     -0.001665      0.000000
    297 O2    s      -0.000227     -0.000454      0.002634      0.000000
    298 O2    s       0.001114     -0.001193     -0.002365      0.000000
    299 O2    s      -0.000404      0.000573     -0.001740      0.000000
    300 O2    s       0.000976     -0.000479      0.000549      0.000000
    301 O2    s      -0.000292      0.001016      0.000464      0.000000
    302 O2    s      -0.001053     -0.000484     -0.001446      0.000000
    303 O3    s       0.001539     -0.000086      0.003699      0.000000
    304 O2    s      -0.001592     -0.000118      0.000029      0.000000
    305 O2    s       0.000932      0.000798     -0.001524      0.000000
    306 O3    s      -0.001690      0.002070     -0.005393      0.000000
    307 F     s       0.000086     -0.000461     -0.000420      0.000000
    308 F     s      -0.000968      0.000606     -0.000220      0.000000
    309 F     s       0.001184     -0.001375     -0.000283      0.000000
    310 F     s       0.000138     -0.000442      0.000585      0.000000
    311 F     s      -0.000810      0.001036      0.000199      0.000000
    312 F     s      -0.001518      0.001110     -0.001141      0.000000
--------------------------------------------------------------------------------
  Maximum abs         0.003569      0.003588      0.006128      0.000000
--------------------------------------------------------------------------------


  Time to end of optimisation =     145.6436 seconds


  Peak dynamic memory used =      19.13 MB 


  Timing analysis for GULP :

--------------------------------------------------------------------------------
  Task / Subroutine                                          Time (Seconds)
--------------------------------------------------------------------------------
  Calculation of reciprocal space energy and derivatives          3.4643
  Calculation of real space energy and derivatives              126.7886
  Calculation of three-body energy and derivatives               13.7074
  Calculation of matrix inversion                                 1.4872
  Global summation overhead                                       0.0002
--------------------------------------------------------------------------------
  Total CPU time                                                145.6437
--------------------------------------------------------------------------------


  Dump file written as out.res                                                 
  CIF file written as out.cif                                                 


  Job Finished at 10:46.53 22nd October    2016                               

