********************************************************************************
*                       GENERAL UTILITY LATTICE PROGRAM                        *
*                                 Julian Gale                                  *
*                      Nanochemistry Research Institute                        *
*                           Department of Chemistry                            *
*                    Curtin University, Western Australia                      *
********************************************************************************
* Version = 4.2.0 * Last modified =  20th January 2014                         *
********************************************************************************
*  optimise     - perform optimisation run                                     *
*  conp         - constant pressure calculation                                *
*  qok          - running with non charge neutral cell is OK                   *
********************************************************************************

  Job Started  at 13:52.08 22nd October    2016                               

  Number of CPUs =     1


  Total number of configurations input =   1

********************************************************************************
*  Input for Configuration =   1                                               *
********************************************************************************

  Formula = Si58Ge2O120F6                                               

  Number of irreducible atoms/shells =     312


  Total number atoms/shells =     312

  Dimensionality = 3               :  Bulk   


  Charge on solid   =  -6.000000 =>neutralising background added


  Cartesian lattice vectors (Angstroms) :

       11.946649    0.000000    0.000000
       -5.896427   10.384486    0.000000
        0.160002    0.082892   29.394280

  Cell parameters (Angstroms/Degrees):

  a =      11.9466    alpha =  90.0135
  b =      11.9417    beta  =  89.6881
  c =      29.3948    gamma = 119.5884

  Initial cell volume =        3646.648653 Angs**3

  Temperature of configuration =  0.000     K 

  Pressure of configuration =         0.000 GPa 

  Fractional coordinates of asymmetric unit :

--------------------------------------------------------------------------------
   No.  Atomic       x           y          z         Charge      Occupancy
        Label      (Frac)      (Frac)     (Frac)        (e)         (Frac)  
--------------------------------------------------------------------------------
      1 Si    c    0.699600    0.375700    0.033890     4.00000    1.000000    
      2 Si    c    0.627928 *  0.319373 *  0.368613 *   4.00000    1.000000    
      3 Si    c    0.678663 *  0.285354 *  0.699315 *   4.00000    1.000000    
      4 Si    c    0.303381 *  0.614435 *  0.536553 *   4.00000    1.000000    
      5 Si    c    0.384345 *  0.670603 *  0.870828 *   4.00000    1.000000    
      6 Si    c    0.322921 *  0.688885 *  0.200651 *   4.00000    1.000000    
      7 Si    c    0.389116 *  0.697753 *  0.302863 *   4.00000    1.000000    
      8 Si    c    0.326718 *  0.616098 *  0.973318 *   4.00000    1.000000    
      9 Si    c    0.299490 *  0.667061 *  0.637506 *   4.00000    1.000000    
     10 Si    c    0.625684 *  0.290318 *  0.800158 *   4.00000    1.000000    
     11 Si    c    0.682304 *  0.372483 *  0.469349 *   4.00000    1.000000    
     12 Si    c    0.700379 *  0.328873 *  0.136072 *   4.00000    1.000000    
     13 Ge    c    0.532941 *  0.428110 *  0.967059 *   4.00000    1.000000    
     14 Si    c    0.594421 *  0.113268 *  0.301623 *   4.00000    1.000000    
     15 Si    c    0.889819 *  0.461851 *  0.635534 *   4.00000    1.000000    
     16 Si    c    0.477015 *  0.577128 *  0.471458 *   4.00000    1.000000    
     17 Si    c    0.423316 *  0.880271 *  0.804189 *   4.00000    1.000000    
     18 Si    c    0.104606 *  0.522048 *  0.138261 *   4.00000    1.000000    
     19 Si    c    0.426085 *  0.527459 *  0.369574 *   4.00000    1.000000    
     20 Si    c    0.111219 *  0.577099 *  0.037149 *   4.00000    1.000000    
     21 Si    c    0.473269 *  0.875284 *  0.702403 *   4.00000    1.000000    
     22 Si    c    0.597295 *  0.462539 *  0.867610 *   4.00000    1.000000    
     23 Si    c    0.892952 *  0.411096 *  0.533753 *   4.00000    1.000000    
     24 Si    c    0.534705 *  0.117248 *  0.198693 *   4.00000    1.000000    
     25 Si    c    0.309925 *  0.389760 *  0.855513 *   4.00000    1.000000    
     26 Ge    c    0.592288 *  0.900135 *  0.192774 *   4.00000    1.000000    
     27 Si    c    0.101910 *  0.691059 *  0.521084 *   4.00000    1.000000    
     28 Si    c    0.706671 *  0.598598 *  0.354856 *   4.00000    1.000000    
     29 Si    c    0.401140 *  0.084108 *  0.686890 *   4.00000    1.000000    
     30 Si    c    0.903160 *  0.297957 *  0.022815 *   4.00000    1.000000    
     31 Si    c    0.404558 *  0.295798 *  0.485393 *   4.00000    1.000000    
     32 Si    c    0.902583 *  0.603661 *  0.151338 *   4.00000    1.000000    
     33 Si    c    0.702662 *  0.088728 *  0.817096 *   4.00000    1.000000    
     34 Si    c    0.611036 *  0.700461 *  0.990637 *   4.00000    1.000000    
     35 Si    c    0.097930 *  0.389090 *  0.651364 *   4.00000    1.000000    
     36 Si    c    0.310546 *  0.901846 *  0.317854 *   4.00000    1.000000    
     37 Si    c    0.253250 *  0.328605 *  0.957904 *   4.00000    1.000000    
     38 Si    c    0.675801 *  0.909951 *  0.288557 *   4.00000    1.000000    
     39 Si    c    0.090493 *  0.739925 *  0.621884 *   4.00000    1.000000    
     40 Si    c    0.756017 *  0.654800 *  0.455871 *   4.00000    1.000000    
     41 Si    c    0.344802 *  0.081312 *  0.787888 *   4.00000    1.000000    
     42 Si    c    0.903646 *  0.245554 *  0.123882 *   4.00000    1.000000    
     43 Si    c    0.347653 *  0.248380 *  0.384504 *   4.00000    1.000000    
     44 Si    c    0.910462 *  0.656861 *  0.050017 *   4.00000    1.000000    
     45 Si    c    0.751045 *  0.076503 *  0.716113 *   4.00000    1.000000    
     46 Si    c    0.669905 *  0.741983 *  0.887044 *   4.00000    1.000000    
     47 Si    c    0.094587 *  0.333932 *  0.550355 *   4.00000    1.000000    
     48 Si    c    0.255152 *  0.908064 *  0.216126 *   4.00000    1.000000    
     49 Si    c    0.969232 *  0.117691 *  0.971500 *   4.00000    1.000000    
     50 Si    c    0.888619 *  0.846858 *  0.305649 *   4.00000    1.000000    
     51 Si    c    0.153941 *  0.019980 *  0.637187 *   4.00000    1.000000    
     52 Si    c    0.035245 *  0.872671 *  0.471033 *   4.00000    1.000000    
     53 Si    c    0.126601 *  0.144216 *  0.804527 *   4.00000    1.000000    
     54 Si    c    0.844333 *  0.965931 *  0.140217 *   4.00000    1.000000    
     55 Si    c    0.131499 *  0.969605 *  0.370261 *   4.00000    1.000000    
     56 Si    c    0.854851 *  0.881764 *  0.038865 *   4.00000    1.000000    
     57 Si    c    0.032231 *  0.142251 *  0.703158 *   4.00000    1.000000    
     58 Si    c    0.882321 *  0.023368 *  0.870011 *   4.00000    1.000000    
     59 Si    c    0.156412 *  0.115320 *  0.536094 *   4.00000    1.000000    
     60 Si    c    0.975129 *  0.851013 *  0.203145 *   4.00000    1.000000    
     61 O2    c    0.935015 *  0.999882 *  0.004836 *   0.87073    1.000000    
     62 O2    c    0.010407 *  0.924987 *  0.337957 *   0.87073    1.000000    
     63 O2    c    0.078206 *  0.063496 *  0.671475 *   0.87073    1.000000    
     64 O2    c    0.075818 *  0.992835 *  0.504212 *   0.87073    1.000000    
     65 O2    c    0.006907 *  0.065351 *  0.838264 *   0.87073    1.000000    
     66 O2    c    0.935718 *  0.935849 *  0.172647 *   0.87073    1.000000    
     67 O2    c    0.350359 *  0.577270 *  0.336943 *   0.87073    1.000000    
     68 O2    c    0.421819 *  0.748663 *  0.670485 *   0.87073    1.000000    
     69 O2    c    0.238620 *  0.652805 *  0.004717 *   0.87073    1.000000    
     70 O2    c    0.667807 *  0.419124 *  0.829606 *   0.87073    1.000000    
     71 O2    c    0.576019 *  0.247281 *  0.169292 *   0.87073    1.000000    
     72 O2    c    0.768655 *  0.334038 *  0.501282 *   0.87073    1.000000    
     73 O3    c    0.582493 *  0.339448 *  0.001816 *   1.33043    1.000000    
     74 O2    c    0.761293 *  0.408980 *  0.666755 *   0.87073    1.000000    
     75 O2    c    0.666879 *  0.236444 *  0.334922 *   0.87073    1.000000    
     76 O2    c    0.427800 *  0.653572 *  0.504229 *   0.87073    1.000000    
     77 O2    c    0.225186 *  0.562999 *  0.172376 *   0.87073    1.000000    
     78 O2    c    0.348510 *  0.756119 *  0.837718 *   0.87073    1.000000    
     79 O2    c    0.121383 *  0.209002 *  0.976026 *   0.87073    1.000000    
     80 O2    c    0.796080 *  0.907929 *  0.313874 *   0.87073    1.000000    
     81 O2    c    0.088343 *  0.865511 *  0.641944 *   0.87073    1.000000    
     82 O2    c    0.881230 *  0.781003 *  0.475948 *   0.87073    1.000000    
     83 O2    c    0.217758 *  0.080176 *  0.808327 *   0.87073    1.000000    
     84 O2    c    0.899798 *  0.120102 *  0.145764 *   0.87073    1.000000    
     85 O2    c    0.220886 *  0.123474 *  0.364638 *   0.87073    1.000000    
     86 O2    c    0.909612 *  0.783611 *  0.030335 *   0.87073    1.000000    
     87 O2    c    0.878339 *  0.076055 *  0.696681 *   0.87073    1.000000    
     88 O2    c    0.791559 *  0.869231 *  0.865415 *   0.87073    1.000000    
     89 O2    c    0.094706 *  0.207815 *  0.529945 *   0.87073    1.000000    
     90 O2    c    0.128915 *  0.908039 *  0.197024 *   0.87073    1.000000    
     91 O2    c    0.942918 *  0.862971 *  0.255202 *   0.87073    1.000000    
     92 O2    c    0.141078 *  0.063588 *  0.587082 *   0.87073    1.000000    
     93 O2    c    0.929412 *  0.063704 *  0.920851 *   0.87073    1.000000    
     94 O2    c    0.070984 *  0.133071 *  0.754408 *   0.87073    1.000000    
     95 O2    c    0.873800 *  0.934255 *  0.089480 *   0.87073    1.000000    
     96 O2    c    0.078362 *  0.928841 *  0.420860 *   0.87073    1.000000    
     97 O2    c    0.899418 *  0.199464 *  0.983787 *   0.87073    1.000000    
     98 O2    c    0.807077 *  0.694470 *  0.316862 *   0.87073    1.000000    
     99 O2    c    0.305230 *  0.085215 *  0.648246 *   0.87073    1.000000    
    100 O2    c    0.105040 *  0.790182 *  0.482607 *   0.87073    1.000000    
    101 O2    c    0.211869 *  0.295343 *  0.816859 *   0.87073    1.000000    
    102 O3    c    0.697231 *  0.891014 *  0.150861 *   1.33043    1.000000    
    103 O2    c    0.216882 *  0.902578 *  0.357651 *   0.87073    1.000000    
    104 O2    c    0.703116 *  0.811184 *  0.026384 *   0.87073    1.000000    
    105 O2    c    0.098895 *  0.292962 *  0.690211 *   0.87073    1.000000    
    106 O2    c    0.801375 *  0.092738 *  0.855505 *   0.87073    1.000000    
    107 O2    c    0.307999 *  0.196191 *  0.523747 *   0.87073    1.000000    
    108 O2    c    0.901633 *  0.700571 *  0.189962 *   0.87073    1.000000    
    109 O2    c    0.332798 *  0.643098 *  0.252773 *   0.87073    1.000000    
    110 O2    c    0.358387 *  0.669232 *  0.587138 *   0.87073    1.000000    
    111 O2    c    0.329279 *  0.667077 *  0.921524 *   0.87073    1.000000    
    112 O2    c    0.680840 *  0.343309 *  0.749422 *   0.87073    1.000000    
    113 O2    c    0.646383 *  0.326910 *  0.085658 *   0.87073    1.000000    
    114 O2    c    0.683957 *  0.316641 *  0.418846 *   0.87073    1.000000    
    115 O3    c    0.366632 *  0.311331 *  0.976884 *   1.33043    1.000000    
    116 O2    c    0.680594 *  0.043168 *  0.304784 *   0.87073    1.000000    
    117 O2    c    0.957379 *  0.617665 *  0.639725 *   0.87073    1.000000    
    118 O2    c    0.632821 *  0.664228 *  0.474390 *   0.87073    1.000000    
    119 O2    c    0.336144 *  0.949916 *  0.807346 *   0.87073    1.000000    
    120 O2    c    0.036259 *  0.366771 *  0.141997 *   0.87073    1.000000    
    121 O2    c    0.338669 *  0.371636 *  0.366183 *   0.87073    1.000000    
    122 O2    c    0.045267 *  0.667485 *  0.032688 *   0.87073    1.000000    
    123 O2    c    0.629356 *  0.942713 *  0.698827 *   0.87073    1.000000    
    124 O2    c    0.680260 *  0.620799 *  0.867521 *   0.87073    1.000000    
    125 O2    c    0.963115 *  0.324253 *  0.531296 *   0.87073    1.000000    
    126 O2    c    0.377447 *  0.040934 *  0.199090 *   0.87073    1.000000    
    127 O2    c    0.771447 *  0.299883 *  0.014485 *   0.87073    1.000000    
    128 O2    c    0.703344 *  0.462942 *  0.346772 *   0.87073    1.000000    
    129 O2    c    0.534746 *  0.216539 *  0.678051 *   0.87073    1.000000    
    130 O2    c    0.236027 *  0.690468 *  0.513932 *   0.87073    1.000000    
    131 O2    c    0.313131 *  0.526342 *  0.850179 *   0.87073    1.000000    
    132 O3    c    0.459191 *  0.749911 *  0.176330 *   1.33043    1.000000    
    133 O2    c    0.315364 *  0.770193 *  0.323394 *   0.87073    1.000000    
    134 O2    c    0.471189 *  0.693607 *  0.993295 *   0.87073    1.000000    
    135 O2    c    0.230306 *  0.523145 *  0.659349 *   0.87073    1.000000    
    136 O2    c    0.699214 *  0.221429 *  0.823644 *   0.87073    1.000000    
    137 O2    c    0.539421 *  0.296456 *  0.492222 *   0.87073    1.000000    
    138 O2    c    0.768263 *  0.471331 *  0.158759 *   0.87073    1.000000    
    139 O2    c    0.789017 *  0.532390 *  0.029150 *   0.87073    1.000000    
    140 O2    c    0.471915 *  0.244769 *  0.364457 *   0.87073    1.000000    
    141 O2    c    0.750978 *  0.200933 *  0.694741 *   0.87073    1.000000    
    142 O2    c    0.221804 *  0.458858 *  0.531350 *   0.87073    1.000000    
    143 O2    c    0.538539 *  0.734031 *  0.869444 *   0.87073    1.000000    
    144 O2    c    0.260244 *  0.783613 *  0.198500 *   0.87073    1.000000    
    145 O2    c    0.543700 *  0.785025 *  0.306498 *   0.87073    1.000000    
    146 O2    c    0.262353 *  0.461791 *  0.975903 *   0.87073    1.000000    
    147 O2    c    0.216371 *  0.740800 *  0.642064 *   0.87073    1.000000    
    148 O2    c    0.469689 *  0.209302 *  0.806050 *   0.87073    1.000000    
    149 O2    c    0.756012 *  0.528188 *  0.474971 *   0.87073    1.000000    
    150 O2    c    0.780138 *  0.252657 *  0.142415 *   0.87073    1.000000    
    151 O2    c    0.243183 *  0.319406 *  0.902535 *   0.87073    1.000000    
    152 O3    c    0.701608 *  0.906572 *  0.236036 *   1.33043    1.000000    
    153 O2    c    0.094576 *  0.760538 *  0.567449 *   0.87073    1.000000    
    154 O2    c    0.775650 *  0.671717 *  0.401496 *   0.87073    1.000000    
    155 O2    c    0.326444 *  0.080999 *  0.733448 *   0.87073    1.000000    
    156 O2    c    0.905070 *  0.226567 *  0.069345 *   0.87073    1.000000    
    157 O2    c    0.329844 *  0.227669 *  0.438923 *   0.87073    1.000000    
    158 O2    c    0.907478 *  0.676470 *  0.104444 *   0.87073    1.000000    
    159 O2    c    0.771902 *  0.082553 *  0.770456 *   0.87073    1.000000    
    160 O2    c    0.682373 *  0.757324 *  0.941313 *   0.87073    1.000000    
    161 O2    c    0.095085 *  0.315377 *  0.604808 *   0.87073    1.000000    
    162 O2    c    0.244119 *  0.906144 *  0.271022 *   0.87073    1.000000    
    163 O3    c    0.603523 *  0.568849 *  0.002944 *   1.33043    1.000000    
    164 O2    c    0.452431 *  0.022768 *  0.322979 *   0.87073    1.000000    
    165 O2    c    0.972040 *  0.403384 *  0.659518 *   0.87073    1.000000    
    166 O2    c    0.419354 *  0.435641 *  0.494599 *   0.87073    1.000000    
    167 O2    c    0.564698 *  0.962241 *  0.826718 *   0.87073    1.000000    
    168 O2    c    0.026824 *  0.587585 *  0.161221 *   0.87073    1.000000    
    169 O2    c    0.567591 *  0.586147 *  0.346387 *   0.87073    1.000000    
    170 O2    c    0.030855 *  0.435896 *  0.013851 *   0.87073    1.000000    
    171 O2    c    0.415333 *  0.958243 *  0.678680 *   0.87073    1.000000    
    172 O2    c    0.451769 *  0.410227 *  0.847668 *   0.87073    1.000000    
    173 O2    c    0.977641 *  0.552723 *  0.511052 *   0.87073    1.000000    
    174 O3    c    0.593327 *  0.040599 *  0.172896 *   1.33043    1.000000    
    175 O2    c    0.589424 *  0.161578 *  0.250693 *   0.87073    1.000000    
    176 O2    c    0.838489 *  0.410989 *  0.584505 *   0.87073    1.000000    
    177 O3    c    0.604235 *  0.406435 *  0.915440 *   1.33043    1.000000    
    178 O2    c    0.420977 *  0.823455 *  0.753687 *   0.87073    1.000000    
    179 O2    c    0.165502 *  0.578079 *  0.087983 *   0.87073    1.000000    
    180 O2    c    0.424199 *  0.578846 *  0.420668 *   0.87073    1.000000    
    181 F     c    0.488313 *  0.902712 *  0.241801 *   0.56000    1.000000    
    182 F     c    0.098757 *  0.540815 *  0.585990 *   0.56000    1.000000    
    183 F     c    0.478273 *  0.519722 *  0.930078 *   0.56000    1.000000    
    184 F     c    0.549915 *  0.083006 *  0.751952 *   0.56000    1.000000    
    185 F     c    0.910856 *  0.454836 *  0.087445 *   0.56000    1.000000    
    186 F     c    0.554017 *  0.446461 *  0.419882 *   0.56000    1.000000    
    187 O2    s    0.929974 *  0.000204 *  0.004799 *  -2.87073    1.000000    
    188 O2    s    0.010777 *  0.921387 *  0.338073 *  -2.87073    1.000000    
    189 O2    s    0.081551 *  0.067465 *  0.671184 *  -2.87073    1.000000    
    190 O2    s    0.080292 *  0.993082 *  0.504063 *  -2.87073    1.000000    
    191 O2    s    0.006563 *  0.069506 *  0.837985 *  -2.87073    1.000000    
    192 O2    s    0.930754 *  0.929203 *  0.172783 *  -2.87073    1.000000    
    193 O2    s    0.362178 *  0.584647 *  0.336761 *  -2.87073    1.000000    
    194 O2    s    0.414553 *  0.753321 *  0.670375 *  -2.87073    1.000000    
    195 O2    s    0.235385 *  0.641363 *  0.004568 *  -2.87073    1.000000    
    196 O2    s    0.656250 *  0.410005 *  0.830343 *  -2.87073    1.000000    
    197 O2    s    0.584087 *  0.242142 *  0.168999 *  -2.87073    1.000000    
    198 O2    s    0.772631 *  0.345947 *  0.501348 *  -2.87073    1.000000    
    199 O3    s    0.591875 *  0.349645 *  0.002896 *  -3.33043    1.000000    
    200 O2    s    0.766013 *  0.401594 *  0.666914 *  -2.87073    1.000000    
    201 O2    s    0.655301 *  0.232201 *  0.334951 *  -2.87073    1.000000    
    202 O2    s    0.420034 *  0.641646 *  0.504197 *  -2.87073    1.000000    
    203 O2    s    0.223389 *  0.572357 *  0.171950 *  -2.87073    1.000000    
    204 O2    s    0.359851 *  0.759657 *  0.837825 *  -2.87073    1.000000    
    205 O2    s    0.118805 *  0.211942 *  0.973534 *  -2.87073    1.000000    
    206 O2    s    0.793818 *  0.901663 *  0.310532 *  -2.87073    1.000000    
    207 O2    s    0.095522 *  0.868921 *  0.639390 *  -2.87073    1.000000    
    208 O2    s    0.884626 *  0.777705 *  0.473389 *  -2.87073    1.000000    
    209 O2    s    0.221215 *  0.087103 *  0.805833 *  -2.87073    1.000000    
    210 O2    s    0.894601 *  0.117962 *  0.142879 *  -2.87073    1.000000    
    211 O2    s    0.224441 *  0.119958 *  0.367260 *  -2.87073    1.000000    
    212 O2    s    0.903960 *  0.780872 *  0.033216 *  -2.87073    1.000000    
    213 O2    s    0.881500 *  0.083092 *  0.699345 *  -2.87073    1.000000    
    214 O2    s    0.788584 *  0.872376 *  0.868110 *  -2.87073    1.000000    
    215 O2    s    0.101298 *  0.211040 *  0.532695 *  -2.87073    1.000000    
    216 O2    s    0.126514 *  0.902109 *  0.199690 *  -2.87073    1.000000    
    217 O2    s    0.940262 *  0.859776 *  0.255226 *  -2.87073    1.000000    
    218 O2    s    0.144260 *  0.064485 *  0.586989 *  -2.87073    1.000000    
    219 O2    s    0.928396 *  0.065029 *  0.920595 *  -2.87073    1.000000    
    220 O2    s    0.072883 *  0.135336 *  0.754283 *  -2.87073    1.000000    
    221 O2    s    0.868525 *  0.931517 *  0.088948 *  -2.87073    1.000000    
    222 O2    s    0.079525 *  0.927109 *  0.420787 *  -2.87073    1.000000    
    223 O2    s    0.907393 *  0.200536 *  0.986391 *  -2.87073    1.000000    
    224 O2    s    0.805228 *  0.700518 *  0.319630 *  -2.87073    1.000000    
    225 O2    s    0.298914 *  0.078102 *  0.651045 *  -2.87073    1.000000    
    226 O2    s    0.097255 *  0.788838 *  0.485311 *  -2.87073    1.000000    
    227 O2    s    0.212916 *  0.289111 *  0.819500 *  -2.87073    1.000000    
    228 O3    s    0.706744 *  0.899989 *  0.152425 *  -3.33043    1.000000    
    229 O2    s    0.217808 *  0.909505 *  0.354796 *  -2.87073    1.000000    
    230 O2    s    0.709311 *  0.807172 *  0.024011 *  -2.87073    1.000000    
    231 O2    s    0.091685 *  0.286773 *  0.687596 *  -2.87073    1.000000    
    232 O2    s    0.799775 *  0.084916 *  0.853057 *  -2.87073    1.000000    
    233 O2    s    0.301816 *  0.197765 *  0.521156 *  -2.87073    1.000000    
    234 O2    s    0.909596 *  0.706777 *  0.187433 *  -2.87073    1.000000    
    235 O2    s    0.337803 *  0.653222 *  0.253069 *  -2.87073    1.000000    
    236 O2    s    0.346727 *  0.663397 *  0.587104 *  -2.87073    1.000000    
    237 O2    s    0.334800 *  0.662375 *  0.921354 *  -2.87073    1.000000    
    238 O2    s    0.674844 *  0.331639 *  0.749454 *  -2.87073    1.000000    
    239 O2    s    0.657447 *  0.331969 *  0.085918 *  -2.87073    1.000000    
    240 O2    s    0.678065 *  0.322605 *  0.418874 *  -2.87073    1.000000    
    241 O3    s    0.365452 *  0.321015 *  0.974139 *  -3.33043    1.000000    
    242 O2    s    0.671075 *  0.037176 *  0.302811 *  -2.87073    1.000000    
    243 O2    s    0.964313 *  0.614394 *  0.637427 *  -2.87073    1.000000    
    244 O2    s    0.629676 *  0.654272 *  0.472142 *  -2.87073    1.000000    
    245 O2    s    0.346077 *  0.956321 *  0.804990 *  -2.87073    1.000000    
    246 O2    s    0.029604 *  0.370489 *  0.139689 *  -2.87073    1.000000    
    247 O2    s    0.348621 *  0.374703 *  0.368473 *  -2.87073    1.000000    
    248 O2    s    0.038360 *  0.657120 *  0.034916 *  -2.87073    1.000000    
    249 O2    s    0.626032 *  0.949694 *  0.700997 *  -2.87073    1.000000    
    250 O2    s    0.671142 *  0.618276 *  0.869600 *  -2.87073    1.000000    
    251 O2    s    0.969701 *  0.334249 *  0.533564 *  -2.87073    1.000000    
    252 O2    s    0.380174 *  0.034407 *  0.200884 *  -2.87073    1.000000    
    253 O2    s    0.778592 *  0.307452 *  0.017430 *  -2.87073    1.000000    
    254 O2    s    0.695828 *  0.462343 *  0.349941 *  -2.87073    1.000000    
    255 O2    s    0.535519 *  0.209655 *  0.681214 *  -2.87073    1.000000    
    256 O2    s    0.228783 *  0.682685 *  0.517055 *  -2.87073    1.000000    
    257 O2    s    0.320235 *  0.527211 *  0.852901 *  -2.87073    1.000000    
    258 O3    s    0.454322 *  0.754095 *  0.180061 *  -3.33043    1.000000    
    259 O2    s    0.322426 *  0.776932 *  0.320672 *  -2.87073    1.000000    
    260 O2    s    0.470001 *  0.686130 *  0.990886 *  -2.87073    1.000000    
    261 O2    s    0.223491 *  0.523865 *  0.656223 *  -2.87073    1.000000    
    262 O2    s    0.692000 *  0.214370 *  0.820502 *  -2.87073    1.000000    
    263 O2    s    0.539922 *  0.304179 *  0.489128 *  -2.87073    1.000000    
    264 O2    s    0.775549 *  0.470720 *  0.155605 *  -2.87073    1.000000    
    265 O2    s    0.793858 *  0.530701 *  0.031898 *  -2.87073    1.000000    
    266 O2    s    0.474692 *  0.252941 *  0.367024 *  -2.87073    1.000000    
    267 O2    s    0.743344 *  0.196196 *  0.697488 *  -2.87073    1.000000    
    268 O2    s    0.216427 *  0.461550 *  0.533929 *  -2.87073    1.000000    
    269 O2    s    0.535916 *  0.727952 *  0.871468 *  -2.87073    1.000000    
    270 O2    s    0.266085 *  0.788125 *  0.200663 *  -2.87073    1.000000    
    271 O2    s    0.540628 *  0.788523 *  0.304282 *  -2.87073    1.000000    
    272 O2    s    0.268561 *  0.464878 *  0.973781 *  -2.87073    1.000000    
    273 O2    s    0.211371 *  0.732918 *  0.639442 *  -2.87073    1.000000    
    274 O2    s    0.472206 *  0.203700 *  0.803515 *  -2.87073    1.000000    
    275 O2    s    0.748283 *  0.525750 *  0.472355 *  -2.87073    1.000000    
    276 O2    s    0.785279 *  0.260042 *  0.139781 *  -2.87073    1.000000    
    277 O2    s    0.251469 *  0.327971 *  0.902955 *  -2.87073    1.000000    
    278 O3    s    0.691689 *  0.906539 *  0.238788 *  -3.33043    1.000000    
    279 O2    s    0.094904 *  0.751078 *  0.568367 *  -2.87073    1.000000    
    280 O2    s    0.766333 *  0.662255 *  0.402442 *  -2.87073    1.000000    
    281 O2    s    0.336187 *  0.081341 *  0.734345 *  -2.87073    1.000000    
    282 O2    s    0.904749 *  0.236043 *  0.070143 *  -2.87073    1.000000    
    283 O2    s    0.339574 *  0.237017 *  0.438028 *  -2.87073    1.000000    
    284 O2    s    0.907287 *  0.666697 *  0.103734 *  -2.87073    1.000000    
    285 O2    s    0.762370 *  0.082554 *  0.769576 *  -2.87073    1.000000    
    286 O2    s    0.674116 *  0.750102 *  0.940124 *  -2.87073    1.000000    
    287 O2    s    0.095333 *  0.325077 *  0.603942 *  -2.87073    1.000000    
    288 O2    s    0.252454 *  0.905883 *  0.270371 *  -2.87073    1.000000    
    289 O3    s    0.599441 *  0.573822 *  0.999241 *  -3.33043    1.000000    
    290 O2    s    0.451662 *  0.018794 *  0.320165 *  -2.87073    1.000000    
    291 O2    s    0.977225 *  0.408096 *  0.656140 *  -2.87073    1.000000    
    292 O2    s    0.423929 *  0.435285 *  0.491201 *  -2.87073    1.000000    
    293 O2    s    0.564533 *  0.967191 *  0.823332 *  -2.87073    1.000000    
    294 O2    s    0.021482 *  0.582410 *  0.157781 *  -2.87073    1.000000    
    295 O2    s    0.567713 *  0.581191 *  0.349721 *  -2.87073    1.000000    
    296 O2    s    0.025633 *  0.435995 *  0.017202 *  -2.87073    1.000000    
    297 O2    s    0.420044 *  0.963326 *  0.682060 *  -2.87073    1.000000    
    298 O2    s    0.450361 *  0.413225 *  0.850507 *  -2.87073    1.000000    
    299 O2    s    0.982328 *  0.552795 *  0.514506 *  -2.87073    1.000000    
    300 O3    s    0.586999 *  0.038017 *  0.176996 *  -3.33043    1.000000    
    301 O2    s    0.584668 *  0.152095 *  0.251082 *  -2.87073    1.000000    
    302 O2    s    0.849567 *  0.416337 *  0.584533 *  -2.87073    1.000000    
    303 O3    s    0.598903 *  0.413856 *  0.913647 *  -3.33043    1.000000    
    304 O2    s    0.426596 *  0.834663 *  0.753651 *  -2.87073    1.000000    
    305 O2    s    0.153779 *  0.572322 *  0.087866 *  -2.87073    1.000000    
    306 O2    s    0.429836 *  0.573331 *  0.420608 *  -2.87073    1.000000    
    307 F     s    0.494940 *  0.902494 *  0.238858 *  -1.56000    1.000000    
    308 F     s    0.099022 *  0.541044 *  0.585981 *  -1.56000    1.000000    
    309 F     s    0.482245 *  0.513509 *  0.932550 *  -1.56000    1.000000    
    310 F     s    0.549914 *  0.083058 *  0.751964 *  -1.56000    1.000000    
    311 F     s    0.911587 *  0.455243 *  0.087547 *  -1.56000    1.000000    
    312 F     s    0.554111 *  0.446152 *  0.419875 *  -1.56000    1.000000    
--------------------------------------------------------------------------------



********************************************************************************
*  General input information                                                   *
********************************************************************************

  Species output for all configurations : 

--------------------------------------------------------------------------------
  Species    Type    Atomic    Atomic    Charge       Radii (Angs)     Library
                     Number     Mass       (e)     Cova   Ionic  VDW   Symbol
--------------------------------------------------------------------------------
    Si       Core       14      28.09   4.000000   1.200  0.000  2.100          
    O1       Core        8      16.00   1.733957   0.730  0.000  1.360          
    O1       Shell       8       0.00  -3.733957   0.730  0.000  1.360          
    O2       Core        8      16.00   0.870733   0.730  0.000  1.360          
    O2       Shell       8       0.00  -2.870733   0.730  0.000  1.360          
    O3       Core        8      16.00   1.330431   0.730  0.000  1.360          
    O3       Shell       8       0.00  -3.330431   0.730  0.000  1.360          
    F        Core        9      19.00   0.560000   0.710  0.000  1.300          
    F        Shell       9       0.00  -1.560000   0.710  0.000  1.300          
    Ge       Core       32      72.61   4.000000   1.170  0.000  1.750          
--------------------------------------------------------------------------------


  Lattice summation method               =    Ewald          (3-D)
                                         =    Parry          (2-D)
                                         =    Saunders et al (1-D)
  Accuracy factor for lattice sums       =   12.000


  Time limit = Infinity

  Maximum range for interatomic potentials =        16.000000 Angstroms

  Taper potentials to zero over   1.0000 Angstroms using polynomial

  General interatomic potentials :

--------------------------------------------------------------------------------
Atom  Types   Potential         A         B         C         D     Cutoffs(Ang)
  1     2                                                            Min    Max 
--------------------------------------------------------------------------------
Si   c O1   s Buckingham    0.132E+04 0.318      10.1      0.00     0.000 16.000
Si   c O2   s Buckingham    0.132E+04 0.318      10.1      0.00     0.000 16.000
Si   c O3   s Buckingham    0.132E+04 0.318      10.1      0.00     0.000 16.000
Ge   c O1   s Buckingham    0.150E+04 0.326      16.8      0.00     0.000 16.000
Ge   c O2   s Buckingham    0.150E+04 0.326      16.8      0.00     0.000 16.000
Ge   c O3   s Buckingham    0.150E+04 0.326      16.8      0.00     0.000 16.000
O1   s O1   s Buckingham    0.228E+05 0.149      10.9      0.00     0.000 16.000
O1   s O2   s Buckingham    0.228E+05 0.149      10.9      0.00     0.000 16.000
O1   s O3   s Buckingham    0.228E+05 0.149      10.9      0.00     0.000 16.000
O2   s O2   s Buckingham    0.228E+05 0.149      10.9      0.00     0.000 16.000
O2   s O3   s Buckingham    0.228E+05 0.149      10.9      0.00     0.000 16.000
O3   s O3   s Buckingham    0.228E+05 0.149      10.9      0.00     0.000 16.000
Si   c F    s Buckingham     977.     0.282      0.00      0.00     0.000 16.000
Ge   c F    s Buckingham     681.     0.320      0.00      0.00     0.000 16.000
F    s F    s Buckingham     540.     0.262      0.00      0.00     0.000 16.000
O1   s F    s Buckingham    0.168E+04 0.268      0.00      0.00     0.000 16.000
O2   s F    s Buckingham    0.168E+04 0.268      0.00      0.00     0.000 16.000
O3   s F    s Buckingham    0.168E+04 0.268      0.00      0.00     0.000 16.000
O2   c O2   s Spring (c-s)   76.0      0.00      0.00      0.00     0.000  0.800
O3   c O3   s Spring (c-s)   128.      0.00      0.00      0.00     0.000  0.800
O1   c O1   s Spring (c-s)   180.      0.00      0.00      0.00     0.000  0.800
F    c F    s Spring (c-s)   33.5      0.00      0.00      0.00     0.000  0.800
--------------------------------------------------------------------------------

  General Three-body potentials :

  Harmonic form:

--------------------------------------------------------------------------------
Atom    Atom    Atom           Force Constants            Theta     Cutoffs  
  1       2       3     (eVrad**-2/eVrad**-3/eVrad**-4)   (deg)  1-2  1-3  2-3
--------------------------------------------------------------------------------
Si    c O1    s O1    s  1.261        0.0000    0.0000   109.470 0.00 0.00 0.00
                                                                 1.90 1.90 3.50
Si    c O1    s O2    s  1.261        0.0000    0.0000   109.470 0.00 0.00 0.00
                                                                 1.90 1.90 3.50
Si    c O2    s O2    s  1.261        0.0000    0.0000   109.470 0.00 0.00 0.00
                                                                 1.90 1.90 3.50
--------------------------------------------------------------------------------

********************************************************************************
*  Output for configuration   1                                                *
********************************************************************************


  Components of energy : 

--------------------------------------------------------------------------------
  Interatomic potentials     =        2066.53780346 eV
  Three-body potentials      =           0.49713454 eV
  Monopole - monopole (real) =       -6643.11680314 eV
  Monopole - monopole (recip)=       -3150.96017371 eV
  Monopole - monopole (total)=       -9794.07697684 eV
  Neutralising energy        =          -6.46602388 eV
--------------------------------------------------------------------------------
  Total lattice energy       =       -7733.50806272 eV
--------------------------------------------------------------------------------
  Total lattice energy       =         -746165.3106 kJ/(mole unit cells)
--------------------------------------------------------------------------------


  Number of variables =      939

  Maximum number of calculations  =          5000
  Maximum Hessian update interval =            10
  Maximum step size               =   0.100000000
  Maximum parameter tolerance     =   0.000010000
  Maximum function  tolerance     =   0.000010000
  Maximum gradient  tolerance     =   0.001000000
  Maximum gradient  component     =   0.010000000

  Symmetry not applied to optimisation

  Cell parameters to be optimised using strains

  Newton-Raphson optimiser to be used

  BFGS hessian update to be used

  Dumpfile to be written after every cycle

  Start of bulk optimisation :

  Cycle:      0 Energy:     -7733.508063  Gnorm:      0.000613  CPU:    2.019
  ** Hessian calculated **
  Cycle:      1 Energy:     -7733.522915  Gnorm:      0.000451  CPU:    6.588
  Cycle:      2 Energy:     -7733.532202  Gnorm:      0.000463  CPU:   10.781
  Cycle:      3 Energy:     -7733.534548  Gnorm:      0.000348  CPU:   14.973
  Cycle:      4 Energy:     -7733.535143  Gnorm:      0.000205  CPU:   19.166
  Cycle:      5 Energy:     -7733.535293  Gnorm:      0.000111  CPU:   23.358
  Cycle:      6 Energy:     -7733.535319  Gnorm:      0.000079  CPU:   26.195
  Cycle:      7 Energy:     -7733.535331  Gnorm:      0.000056  CPU:   29.031


  **** Optimisation achieved ****


  Final energy =   -7733.53533765 eV
  Final Gnorm  =       0.00003918

  Components of energy : 

--------------------------------------------------------------------------------
  Interatomic potentials     =        2066.78336362 eV
  Three-body potentials      =           0.50196639 eV
  Monopole - monopole (real) =       -6642.96610165 eV
  Monopole - monopole (recip)=       -3151.38766411 eV
  Monopole - monopole (total)=       -9794.35376577 eV
  Neutralising energy        =          -6.46690189 eV
--------------------------------------------------------------------------------
  Total lattice energy       =       -7733.53533765 eV
--------------------------------------------------------------------------------
  Total lattice energy       =         -746167.9422 kJ/(mole unit cells)
--------------------------------------------------------------------------------

  Final fractional coordinates of atoms :

--------------------------------------------------------------------------------
   No.  Atomic        x           y          z          Radius
        Label       (Frac)      (Frac)     (Frac)       (Angs) 
--------------------------------------------------------------------------------
     1  Si    c     0.699600    0.375700    0.033890    0.000000
     2  Si    c     0.634099    0.312264    0.367693    0.000000
     3  Si    c     0.681991    0.276969    0.698421    0.000000
     4  Si    c     0.308851    0.605430    0.535698    0.000000
     5  Si    c     0.386336    0.663283    0.869866    0.000000
     6  Si    c     0.326595    0.682010    0.199585    0.000000
     7  Si    c     0.393730    0.689878    0.301754    0.000000
     8  Si    c     0.328184    0.610886    0.972394    0.000000
     9  Si    c     0.303704    0.657523    0.636625    0.000000
    10  Si    c     0.628032    0.282773    0.799219    0.000000
    11  Si    c     0.688140    0.364230    0.468387    0.000000
    12  Si    c     0.702904    0.326136    0.135760    0.000000
    13  Ge    c     0.531661    0.422070    0.966121    0.000000
    14  Si    c     0.599411    0.105949    0.300775    0.000000
    15  Si    c     0.894057    0.452457    0.634588    0.000000
    16  Si    c     0.482891    0.568795    0.470489    0.000000
    17  Si    c     0.425850    0.872478    0.803087    0.000000
    18  Si    c     0.107275    0.516994    0.137287    0.000000
    19  Si    c     0.432082    0.520170    0.368526    0.000000
    20  Si    c     0.112484    0.572294    0.036198    0.000000
    21  Si    c     0.476496    0.866386    0.701409    0.000000
    22  Si    c     0.598560    0.454576    0.866875    0.000000
    23  Si    c     0.898239    0.402069    0.532798    0.000000
    24  Si    c     0.539580    0.111823    0.197929    0.000000
    25  Si    c     0.311079    0.382173    0.854681    0.000000
    26  Ge    c     0.595839    0.893606    0.192234    0.000000
    27  Si    c     0.107305    0.682059    0.520105    0.000000
    28  Si    c     0.713063    0.591473    0.353856    0.000000
    29  Si    c     0.404699    0.075580    0.686046    0.000000
    30  Si    c     0.901683    0.294291    0.021995    0.000000
    31  Si    c     0.410215    0.287322    0.484553    0.000000
    32  Si    c     0.906444    0.600014    0.150841    0.000000
    33  Si    c     0.704859    0.080881    0.815945    0.000000
    34  Si    c     0.612174    0.694717    0.990191    0.000000
    35  Si    c     0.102214    0.379610    0.650402    0.000000
    36  Si    c     0.315456    0.894305    0.316926    0.000000
    37  Si    c     0.252459    0.322516    0.957152    0.000000
    38  Si    c     0.680677    0.902378    0.287713    0.000000
    39  Si    c     0.094864    0.730655    0.620913    0.000000
    40  Si    c     0.761962    0.646526    0.454933    0.000000
    41  Si    c     0.347236    0.073486    0.786920    0.000000
    42  Si    c     0.904738    0.240703    0.122894    0.000000
    43  Si    c     0.353712    0.240946    0.383607    0.000000
    44  Si    c     0.913759    0.654680    0.049708    0.000000
    45  Si    c     0.754231    0.067838    0.715114    0.000000
    46  Si    c     0.671763    0.734491    0.886477    0.000000
    47  Si    c     0.099926    0.325019    0.549419    0.000000
    48  Si    c     0.259782    0.902057    0.215338    0.000000
    49  Si    c     0.967659    0.113586    0.970796    0.000000
    50  Si    c     0.894258    0.840691    0.305038    0.000000
    51  Si    c     0.157560    0.010638    0.636410    0.000000
    52  Si    c     0.041060    0.864136    0.470238    0.000000
    53  Si    c     0.128629    0.135945    0.803905    0.000000
    54  Si    c     0.848258    0.961663    0.139722    0.000000
    55  Si    c     0.137012    0.962377    0.369552    0.000000
    56  Si    c     0.856256    0.877654    0.038240    0.000000
    57  Si    c     0.035252    0.132587    0.702340    0.000000
    58  Si    c     0.884101    0.016153    0.869385    0.000000
    59  Si    c     0.161907    0.106608    0.535304    0.000000
    60  Si    c     0.980505    0.847693    0.202389    0.000000
    61  O2    c     0.933772    0.996063    0.004167    0.000000
    62  O2    c     0.015480    0.918450    0.337557    0.000000
    63  O2    c     0.081115    0.053047    0.670928    0.000000
    64  O2    c     0.081675    0.983711    0.503659    0.000000
    65  O2    c     0.009518    0.057490    0.838015    0.000000
    66  O2    c     0.941500    0.933189    0.171905    0.000000
    67  O2    c     0.355914    0.569516    0.335879    0.000000
    68  O2    c     0.425668    0.739571    0.669666    0.000000
    69  O2    c     0.239649    0.647659    0.003573    0.000000
    70  O2    c     0.669353    0.411163    0.828884    0.000000
    71  O2    c     0.579222    0.242542    0.169138    0.000000
    72  O2    c     0.774199    0.325297    0.500271    0.000000
    73  O3    c     0.582024    0.336300    0.001928    0.000000
    74  O2    c     0.765333    0.400252    0.665759    0.000000
    75  O2    c     0.672652    0.228994    0.334014    0.000000
    76  O2    c     0.433500    0.644941    0.503395    0.000000
    77  O2    c     0.228176    0.556794    0.171160    0.000000
    78  O2    c     0.350620    0.748466    0.836604    0.000000
    79  O2    c     0.119740    0.204931    0.975475    0.000000
    80  O2    c     0.800382    0.900261    0.313405    0.000000
    81  O2    c     0.092370    0.856133    0.640933    0.000000
    82  O2    c     0.887036    0.772522    0.475106    0.000000
    83  O2    c     0.220276    0.072352    0.807543    0.000000
    84  O2    c     0.901623    0.115614    0.144863    0.000000
    85  O2    c     0.226868    0.116155    0.363807    0.000000
    86  O2    c     0.913540    0.781519    0.029765    0.000000
    87  O2    c     0.881464    0.067069    0.695675    0.000000
    88  O2    c     0.793924    0.861852    0.865051    0.000000
    89  O2    c     0.100300    0.199130    0.528881    0.000000
    90  O2    c     0.134143    0.903307    0.196200    0.000000
    91  O2    c     0.949223    0.859857    0.254567    0.000000
    92  O2    c     0.145424    0.055165    0.586384    0.000000
    93  O2    c     0.929372    0.058482    0.920233    0.000000
    94  O2    c     0.072583    0.123550    0.753808    0.000000
    95  O2    c     0.876564    0.930189    0.088822    0.000000
    96  O2    c     0.084474    0.921568    0.420227    0.000000
    97  O2    c     0.897234    0.195191    0.982844    0.000000
    98  O2    c     0.813592    0.687936    0.315906    0.000000
    99  O2    c     0.308853    0.076322    0.647367    0.000000
   100  O2    c     0.110660    0.781217    0.481580    0.000000
   101  O2    c     0.213562    0.287261    0.816035    0.000000
   102  O3    c     0.701288    0.884919    0.150481    0.000000
   103  O2    c     0.221694    0.894633    0.356812    0.000000
   104  O2    c     0.704252    0.805045    0.026002    0.000000
   105  O2    c     0.102848    0.283241    0.689237    0.000000
   106  O2    c     0.803471    0.085274    0.854346    0.000000
   107  O2    c     0.313621    0.187482    0.522929    0.000000
   108  O2    c     0.906082    0.697157    0.189475    0.000000
   109  O2    c     0.336883    0.635714    0.251660    0.000000
   110  O2    c     0.363336    0.659834    0.586348    0.000000
   111  O2    c     0.330620    0.660457    0.920407    0.000000
   112  O2    c     0.683653    0.335432    0.748444    0.000000
   113  O2    c     0.647681    0.326633    0.085795    0.000000
   114  O2    c     0.690208    0.308954    0.417828    0.000000
   115  O3    c     0.365579    0.304414    0.975912    0.000000
   116  O2    c     0.685172    0.035431    0.303948    0.000000
   117  O2    c     0.961777    0.608271    0.638728    0.000000
   118  O2    c     0.638657    0.655941    0.473449    0.000000
   119  O2    c     0.338601    0.942065    0.806301    0.000000
   120  O2    c     0.037826    0.361672    0.140759    0.000000
   121  O2    c     0.344913    0.364326    0.365280    0.000000
   122  O2    c     0.047444    0.663651    0.031916    0.000000
   123  O2    c     0.632631    0.934044    0.697894    0.000000
   124  O2    c     0.681665    0.612956    0.866923    0.000000
   125  O2    c     0.968424    0.315193    0.530357    0.000000
   126  O2    c     0.382284    0.034883    0.198487    0.000000
   127  O2    c     0.771303    0.298987    0.014347    0.000000
   128  O2    c     0.709736    0.455791    0.345728    0.000000
   129  O2    c     0.538199    0.208110    0.677116    0.000000
   130  O2    c     0.241559    0.681569    0.513103    0.000000
   131  O2    c     0.315241    0.519154    0.849114    0.000000
   132  O3    c     0.463025    0.743382    0.175356    0.000000
   133  O2    c     0.320188    0.762523    0.322394    0.000000
   134  O2    c     0.472653    0.689069    0.992287    0.000000
   135  O2    c     0.234516    0.513629    0.658543    0.000000
   136  O2    c     0.701493    0.213676    0.822570    0.000000
   137  O2    c     0.545152    0.287996    0.491267    0.000000
   138  O2    c     0.771794    0.468166    0.158757    0.000000
   139  O2    c     0.790217    0.531678    0.029103    0.000000
   140  O2    c     0.478066    0.237496    0.363505    0.000000
   141  O2    c     0.754239    0.192417    0.693853    0.000000
   142  O2    c     0.227337    0.449891    0.530440    0.000000
   143  O2    c     0.540600    0.726719    0.868727    0.000000
   144  O2    c     0.264611    0.777462    0.197643    0.000000
   145  O2    c     0.548255    0.776995    0.305283    0.000000
   146  O2    c     0.263978    0.456665    0.975237    0.000000
   147  O2    c     0.220601    0.731370    0.641123    0.000000
   148  O2    c     0.472044    0.201609    0.804972    0.000000
   149  O2    c     0.761994    0.519921    0.474082    0.000000
   150  O2    c     0.781780    0.248753    0.141526    0.000000
   151  O2    c     0.243201    0.312960    0.901760    0.000000
   152  O3    c     0.706175    0.899610    0.235182    0.000000
   153  O2    c     0.099377    0.751232    0.566472    0.000000
   154  O2    c     0.781983    0.663988    0.400560    0.000000
   155  O2    c     0.329332    0.072828    0.732459    0.000000
   156  O2    c     0.904453    0.222203    0.068299    0.000000
   157  O2    c     0.335793    0.219813    0.438025    0.000000
   158  O2    c     0.911568    0.674087    0.104164    0.000000
   159  O2    c     0.774599    0.074218    0.769462    0.000000
   160  O2    c     0.684023    0.749931    0.940749    0.000000
   161  O2    c     0.100034    0.306053    0.603875    0.000000
   162  O2    c     0.248663    0.899071    0.270258    0.000000
   163  O3    c     0.602251    0.562218    0.002425    0.000000
   164  O2    c     0.457238    0.015289    0.322075    0.000000
   165  O2    c     0.976062    0.393674    0.658548    0.000000
   166  O2    c     0.425205    0.427293    0.493663    0.000000
   167  O2    c     0.567050    0.954340    0.825686    0.000000
   168  O2    c     0.030519    0.583360    0.160553    0.000000
   169  O2    c     0.573870    0.578987    0.345473    0.000000
   170  O2    c     0.030678    0.431342    0.012959    0.000000
   171  O2    c     0.418742    0.949586    0.677755    0.000000
   172  O2    c     0.452850    0.401958    0.847080    0.000000
   173  O2    c     0.983249    0.543682    0.510105    0.000000
   174  O3    c     0.597751    0.034698    0.172183    0.000000
   175  O2    c     0.594615    0.154833    0.249940    0.000000
   176  O2    c     0.843312    0.401761    0.583525    0.000000
   177  O3    c     0.604204    0.398927    0.914927    0.000000
   178  O2    c     0.423877    0.815130    0.752718    0.000000
   179  O2    c     0.167367    0.572849    0.086878    0.000000
   180  O2    c     0.430241    0.571057    0.419723    0.000000
   181  F     c     0.492608    0.895643    0.241038    0.000000
   182  F     c     0.103829    0.531232    0.585145    0.000000
   183  F     c     0.478632    0.513384    0.929072    0.000000
   184  F     c     0.552675    0.074859    0.750977    0.000000
   185  F     c     0.912433    0.452432    0.086993    0.000000
   186  F     c     0.560602    0.438725    0.418947    0.000000
   187  O2    s     0.928930    0.996282    0.004141    0.000000
   188  O2    s     0.015943    0.914805    0.337610    0.000000
   189  O2    s     0.084530    0.057229    0.670587    0.000000
   190  O2    s     0.086121    0.984086    0.503459    0.000000
   191  O2    s     0.009037    0.061664    0.837651    0.000000
   192  O2    s     0.936349    0.926370    0.172066    0.000000
   193  O2    s     0.367646    0.576902    0.335698    0.000000
   194  O2    s     0.418394    0.744226    0.669539    0.000000
   195  O2    s     0.236495    0.636240    0.003463    0.000000
   196  O2    s     0.657883    0.402127    0.829599    0.000000
   197  O2    s     0.587392    0.237544    0.168768    0.000000
   198  O2    s     0.778194    0.337236    0.500354    0.000000
   199  O3    s     0.591489    0.346723    0.002937    0.000000
   200  O2    s     0.769982    0.392828    0.665938    0.000000
   201  O2    s     0.661010    0.224805    0.334050    0.000000
   202  O2    s     0.425712    0.633008    0.503352    0.000000
   203  O2    s     0.226445    0.566184    0.170781    0.000000
   204  O2    s     0.362040    0.752044    0.836728    0.000000
   205  O2    s     0.117391    0.207759    0.972927    0.000000
   206  O2    s     0.798309    0.894161    0.310009    0.000000
   207  O2    s     0.099539    0.859553    0.638407    0.000000
   208  O2    s     0.890461    0.769249    0.472542    0.000000
   209  O2    s     0.223677    0.079236    0.805045    0.000000
   210  O2    s     0.896563    0.113445    0.142014    0.000000
   211  O2    s     0.230381    0.112641    0.366436    0.000000
   212  O2    s     0.907559    0.778563    0.032667    0.000000
   213  O2    s     0.884608    0.074068    0.698359    0.000000
   214  O2    s     0.790843    0.865002    0.867695    0.000000
   215  O2    s     0.106861    0.202325    0.531674    0.000000
   216  O2    s     0.131670    0.897396    0.198869    0.000000
   217  O2    s     0.946377    0.856288    0.254586    0.000000
   218  O2    s     0.148652    0.055920    0.586280    0.000000
   219  O2    s     0.928395    0.059704    0.919964    0.000000
   220  O2    s     0.074696    0.125941    0.753663    0.000000
   221  O2    s     0.871237    0.927422    0.088315    0.000000
   222  O2    s     0.085527    0.919691    0.420130    0.000000
   223  O2    s     0.905291    0.196240    0.985431    0.000000
   224  O2    s     0.811651    0.693945    0.318692    0.000000
   225  O2    s     0.302520    0.069188    0.650189    0.000000
   226  O2    s     0.102883    0.779906    0.484313    0.000000
   227  O2    s     0.214587    0.281077    0.818692    0.000000
   228  O3    s     0.710739    0.894093    0.152039    0.000000
   229  O2    s     0.222693    0.901690    0.353959    0.000000
   230  O2    s     0.710435    0.801260    0.023594    0.000000
   231  O2    s     0.095569    0.277065    0.686643    0.000000
   232  O2    s     0.801832    0.077395    0.851937    0.000000
   233  O2    s     0.307440    0.189076    0.520347    0.000000
   234  O2    s     0.914099    0.703371    0.186912    0.000000
   235  O2    s     0.341879    0.645775    0.251976    0.000000
   236  O2    s     0.351658    0.654030    0.586303    0.000000
   237  O2    s     0.336233    0.655814    0.920275    0.000000
   238  O2    s     0.677678    0.323797    0.748502    0.000000
   239  O2    s     0.658734    0.331465    0.086000    0.000000
   240  O2    s     0.684261    0.314934    0.417878    0.000000
   241  O3    s     0.364414    0.314215    0.973194    0.000000
   242  O2    s     0.675693    0.029494    0.301970    0.000000
   243  O2    s     0.968703    0.605022    0.636436    0.000000
   244  O2    s     0.635514    0.645973    0.471197    0.000000
   245  O2    s     0.348559    0.948507    0.803940    0.000000
   246  O2    s     0.031271    0.365481    0.138506    0.000000
   247  O2    s     0.354820    0.367386    0.367557    0.000000
   248  O2    s     0.040478    0.653362    0.034182    0.000000
   249  O2    s     0.629298    0.941015    0.700053    0.000000
   250  O2    s     0.672620    0.610486    0.868983    0.000000
   251  O2    s     0.975012    0.325219    0.532626    0.000000
   252  O2    s     0.384930    0.028362    0.200252    0.000000
   253  O2    s     0.778635    0.306151    0.017189    0.000000
   254  O2    s     0.702213    0.455235    0.348910    0.000000
   255  O2    s     0.538988    0.201239    0.680294    0.000000
   256  O2    s     0.234277    0.673764    0.516210    0.000000
   257  O2    s     0.322226    0.519932    0.851869    0.000000
   258  O3    s     0.458001    0.747422    0.179104    0.000000
   259  O2    s     0.327234    0.769235    0.319670    0.000000
   260  O2    s     0.471385    0.681419    0.989947    0.000000
   261  O2    s     0.227727    0.514366    0.655396    0.000000
   262  O2    s     0.694261    0.206671    0.819430    0.000000
   263  O2    s     0.545640    0.295735    0.488186    0.000000
   264  O2    s     0.778955    0.467490    0.155521    0.000000
   265  O2    s     0.794956    0.529560    0.031831    0.000000
   266  O2    s     0.480794    0.245664    0.366085    0.000000
   267  O2    s     0.746602    0.187667    0.696592    0.000000
   268  O2    s     0.221936    0.452598    0.533022    0.000000
   269  O2    s     0.537960    0.720627    0.870740    0.000000
   270  O2    s     0.270401    0.781914    0.199791    0.000000
   271  O2    s     0.545154    0.780510    0.303118    0.000000
   272  O2    s     0.269940    0.459661    0.973076    0.000000
   273  O2    s     0.215609    0.723498    0.638503    0.000000
   274  O2    s     0.474610    0.196034    0.802460    0.000000
   275  O2    s     0.754246    0.517482    0.471456    0.000000
   276  O2    s     0.786978    0.256135    0.138941    0.000000
   277  O2    s     0.251521    0.321435    0.902170    0.000000
   278  O3    s     0.696318    0.899555    0.238023    0.000000
   279  O2    s     0.099720    0.741811    0.567394    0.000000
   280  O2    s     0.772635    0.654539    0.401496    0.000000
   281  O2    s     0.339080    0.073172    0.733391    0.000000
   282  O2    s     0.904224    0.231652    0.069164    0.000000
   283  O2    s     0.345508    0.229147    0.437148    0.000000
   284  O2    s     0.911274    0.664235    0.103392    0.000000
   285  O2    s     0.765063    0.074237    0.768555    0.000000
   286  O2    s     0.675765    0.742882    0.939562    0.000000
   287  O2    s     0.100254    0.315781    0.603010    0.000000
   288  O2    s     0.257031    0.898871    0.269587    0.000000
   289  O3    s     0.598486    0.567539    0.998717    0.000000
   290  O2    s     0.456476    0.011311    0.319267    0.000000
   291  O2    s     0.981280    0.398448    0.655176    0.000000
   292  O2    s     0.429753    0.426907    0.490273    0.000000
   293  O2    s     0.566897    0.959322    0.822278    0.000000
   294  O2    s     0.025108    0.578164    0.157103    0.000000
   295  O2    s     0.573946    0.574019    0.348783    0.000000
   296  O2    s     0.025559    0.431615    0.016311    0.000000
   297  O2    s     0.423462    0.954638    0.681139    0.000000
   298  O2    s     0.451479    0.405063    0.849875    0.000000
   299  O2    s     0.987890    0.543772    0.513557    0.000000
   300  O3    s     0.591395    0.032255    0.176282    0.000000
   301  O2    s     0.589808    0.145412    0.250329    0.000000
   302  O2    s     0.854373    0.407116    0.583566    0.000000
   303  O3    s     0.598978    0.406383    0.913043    0.000000
   304  O2    s     0.429502    0.826352    0.752659    0.000000
   305  O2    s     0.155675    0.567160    0.086796    0.000000
   306  O2    s     0.435843    0.565548    0.419646    0.000000
   307  F     s     0.499464    0.895426    0.237976    0.000000
   308  F     s     0.104121    0.531430    0.585145    0.000000
   309  F     s     0.482635    0.506899    0.931655    0.000000
   310  F     s     0.552661    0.074913    0.750991    0.000000
   311  F     s     0.913144    0.452954    0.087118    0.000000
   312  F     s     0.560753    0.438411    0.418940    0.000000
--------------------------------------------------------------------------------

  Final Cartesian lattice vectors (Angstroms) :

       11.941890    0.002777    0.007261
       -5.891664   10.383321   -0.000043
        0.177824    0.092954   29.393577


  Final cell parameters and derivatives :

--------------------------------------------------------------------------------
       a           11.941893 Angstrom     dE/de1(xx)     0.006124 eV/strain
       b           11.938386 Angstrom     dE/de2(yy)     0.005953 eV/strain
       c           29.394261 Angstrom     dE/de3(zz)     0.007460 eV/strain
       alpha       90.013675 Degrees      dE/de4(yz)    -0.000343 eV/strain
       beta        89.618502 Degrees      dE/de5(xz)     0.000739 eV/strain
       gamma      119.557945 Degrees      dE/de6(xy)    -0.000404 eV/strain
--------------------------------------------------------------------------------

  Primitive cell volume =          3645.163550 Angs**3

  Density of cell =      1.734947 g/cm**3

  Non-primitive cell volume =          3645.163550 Angs**3


  Final internal derivatives :

--------------------------------------------------------------------------------
   No.  Atomic          a             b             c           Radius
        Label          (eV)          (eV)          (eV)        (eV/Angs)
--------------------------------------------------------------------------------
      1 Si    c       0.000000      0.000000      0.000000      0.000000
      2 Si    c      -0.000385      0.000237     -0.000115      0.000000
      3 Si    c      -0.000095     -0.000033      0.000004      0.000000
      4 Si    c      -0.000371      0.000313      0.000009      0.000000
      5 Si    c       0.000193     -0.000055     -0.001101      0.000000
      6 Si    c      -0.000154      0.000471      0.000862      0.000000
      7 Si    c      -0.000353      0.000563     -0.000065      0.000000
      8 Si    c       0.000176     -0.000137      0.001122      0.000000
      9 Si    c      -0.000377      0.000378     -0.000320      0.000000
     10 Si    c      -0.000165      0.000202     -0.000112      0.000000
     11 Si    c      -0.000387      0.000327      0.000110      0.000000
     12 Si    c       0.002290     -0.000146      0.004890      0.000000
     13 Ge    c      -0.005949      0.006436     -0.004692      0.000000
     14 Si    c      -0.000114     -0.000336     -0.000567      0.000000
     15 Si    c       0.000109      0.000320     -0.000410      0.000000
     16 Si    c      -0.000233      0.000118      0.000132      0.000000
     17 Si    c      -0.000177      0.000260      0.000376      0.000000
     18 Si    c      -0.000862      0.000603     -0.000843      0.000000
     19 Si    c      -0.000239      0.000096     -0.000093      0.000000
     20 Si    c       0.001246      0.000620      0.001392      0.000000
     21 Si    c      -0.000227      0.000556     -0.000365      0.000000
     22 Si    c      -0.000456      0.000962     -0.005143      0.000000
     23 Si    c      -0.000238      0.000308      0.000147      0.000000
     24 Si    c       0.000077     -0.002364      0.003295      0.000000
     25 Si    c       0.000131      0.000607     -0.001794      0.000000
     26 Ge    c      -0.001186      0.001139      0.002073      0.000000
     27 Si    c      -0.000361      0.000332     -0.000083      0.000000
     28 Si    c      -0.000417      0.000018      0.000180      0.000000
     29 Si    c       0.000015      0.000162     -0.000663      0.000000
     30 Si    c       0.001584     -0.002970     -0.003438      0.000000
     31 Si    c      -0.000268      0.000243      0.000168      0.000000
     32 Si    c       0.000707      0.000138      0.001684      0.000000
     33 Si    c      -0.000281      0.000282      0.000393      0.000000
     34 Si    c       0.000092      0.001266      0.002340      0.000000
     35 Si    c      -0.000288      0.000438     -0.000010      0.000000
     36 Si    c       0.000008      0.000003      0.000343      0.000000
     37 Si    c       0.001339     -0.000024     -0.000381      0.000000
     38 Si    c      -0.000394      0.000435      0.000996      0.000000
     39 Si    c      -0.000073      0.000277      0.000037      0.000000
     40 Si    c      -0.000338      0.000224      0.000146      0.000000
     41 Si    c      -0.000105      0.000189      0.000040      0.000000
     42 Si    c      -0.000196      0.000227      0.004407      0.000000
     43 Si    c      -0.000232      0.000165     -0.000001      0.000000
     44 Si    c      -0.000776      0.003777      0.002661      0.000000
     45 Si    c      -0.000225      0.000403     -0.000728      0.000000
     46 Si    c      -0.000230      0.000110      0.000364      0.000000
     47 Si    c      -0.000311      0.000351     -0.000097      0.000000
     48 Si    c       0.000484     -0.000245     -0.000469      0.000000
     49 Si    c      -0.000016      0.000684      0.005823      0.000000
     50 Si    c      -0.000620      0.000197      0.004470      0.000000
     51 Si    c      -0.000033      0.000252     -0.000000      0.000000
     52 Si    c      -0.000354      0.000026      0.000655      0.000000
     53 Si    c      -0.000052      0.000477      0.000856      0.000000
     54 Si    c       0.000555     -0.000558      0.000107      0.000000
     55 Si    c      -0.000083      0.000051     -0.000171      0.000000
     56 Si    c      -0.000578     -0.000186      0.002359      0.000000
     57 Si    c      -0.000293      0.000487     -0.001382      0.000000
     58 Si    c      -0.000886     -0.000533     -0.008721      0.000000
     59 Si    c      -0.000257      0.000383     -0.001009      0.000000
     60 Si    c      -0.000574      0.000339     -0.001213      0.000000
     61 O2    c       0.000995      0.001740     -0.004677      0.000000
     62 O2    c      -0.000543      0.000158     -0.000300      0.000000
     63 O2    c      -0.000267      0.000378      0.000557      0.000000
     64 O2    c      -0.000460      0.000471      0.000353      0.000000
     65 O2    c       0.000201      0.000140      0.000463      0.000000
     66 O2    c       0.000567     -0.000291      0.001546      0.000000
     67 O2    c      -0.000322     -0.000027      0.000307      0.000000
     68 O2    c      -0.000014      0.000302      0.000078      0.000000
     69 O2    c      -0.000161      0.000246      0.000401      0.000000
     70 O2    c      -0.000220      0.000430      0.000463      0.000000
     71 O2    c      -0.002033      0.002059     -0.000367      0.000000
     72 O2    c      -0.000307      0.000263      0.000065      0.000000
     73 O3    c      -0.002644     -0.003251     -0.003868      0.000000
     74 O2    c      -0.000278      0.000591     -0.000164      0.000000
     75 O2    c      -0.000164      0.000390      0.000574      0.000000
     76 O2    c      -0.000326      0.000284     -0.000029      0.000000
     77 O2    c       0.000142     -0.000258      0.000062      0.000000
     78 O2    c      -0.000119      0.000228     -0.000143      0.000000
     79 O2    c      -0.000829     -0.001415      0.001910      0.000000
     80 O2    c      -0.000401      0.000365      0.000795      0.000000
     81 O2    c      -0.000131      0.000203      0.000160      0.000000
     82 O2    c      -0.000296      0.000303      0.000061      0.000000
     83 O2    c      -0.000123      0.000170      0.000043      0.000000
     84 O2    c      -0.000198      0.001467      0.000884      0.000000
     85 O2    c      -0.000265      0.000224      0.000023      0.000000
     86 O2    c       0.001194     -0.001525     -0.001715      0.000000
     87 O2    c      -0.000266      0.000373     -0.000182      0.000000
     88 O2    c      -0.000085      0.000334     -0.000111      0.000000
     89 O2    c      -0.000445      0.000411     -0.000023      0.000000
     90 O2    c      -0.000001      0.000226     -0.000413      0.000000
     91 O2    c       0.000678     -0.000097     -0.005787      0.000000
     92 O2    c      -0.000307      0.000091      0.001420      0.000000
     93 O2    c       0.000924      0.000072      0.006480      0.000000
     94 O2    c      -0.000058      0.000262      0.001286      0.000000
     95 O2    c       0.000101      0.000189      0.000541      0.000000
     96 O2    c      -0.000306      0.000283     -0.000450      0.000000
     97 O2    c      -0.000392      0.000476      0.000816      0.000000
     98 O2    c      -0.000251     -0.000258      0.000048      0.000000
     99 O2    c      -0.000086      0.000330      0.000171      0.000000
    100 O2    c      -0.000250      0.000232      0.000024      0.000000
    101 O2    c      -0.000177      0.000226     -0.000111      0.000000
    102 O3    c      -0.002357      0.000345      0.001450      0.000000
    103 O2    c      -0.000129      0.000043      0.000154      0.000000
    104 O2    c      -0.001355      0.000046     -0.001107      0.000000
    105 O2    c      -0.000155      0.000654      0.000001      0.000000
    106 O2    c      -0.000622      0.000666      0.000010      0.000000
    107 O2    c      -0.000363      0.000272     -0.000015      0.000000
    108 O2    c      -0.000113     -0.000236      0.000170      0.000000
    109 O2    c      -0.000232      0.000093     -0.000410      0.000000
    110 O2    c      -0.000198      0.000323     -0.000051      0.000000
    111 O2    c      -0.000298      0.000562     -0.000548      0.000000
    112 O2    c      -0.000200      0.000395     -0.000165      0.000000
    113 O2    c      -0.002154      0.000531     -0.007153      0.000000
    114 O2    c      -0.000210      0.000134      0.000398      0.000000
    115 O3    c      -0.000035      0.000113      0.002556      0.000000
    116 O2    c      -0.000225      0.000185      0.000048      0.000000
    117 O2    c      -0.000170      0.000363     -0.000010      0.000000
    118 O2    c      -0.000296      0.000227      0.000040      0.000000
    119 O2    c      -0.000123      0.000214     -0.000124      0.000000
    120 O2    c       0.000115     -0.000296      0.000469      0.000000
    121 O2    c      -0.000328      0.000151      0.000003      0.000000
    122 O2    c       0.000828      0.000238     -0.000285      0.000000
    123 O2    c      -0.000068      0.000348     -0.000067      0.000000
    124 O2    c      -0.000106      0.000252     -0.000097      0.000000
    125 O2    c      -0.000312      0.000324      0.000101      0.000000
    126 O2    c      -0.000208      0.000188     -0.000129      0.000000
    127 O2    c      -0.003433      0.000971     -0.002166      0.000000
    128 O2    c      -0.000293      0.000180     -0.000055      0.000000
    129 O2    c      -0.000147      0.000331     -0.000096      0.000000
    130 O2    c      -0.000200      0.000228     -0.000028      0.000000
    131 O2    c      -0.000206      0.000499     -0.000102      0.000000
    132 O3    c      -0.000193     -0.000042     -0.000631      0.000000
    133 O2    c      -0.000293      0.000223     -0.000013      0.000000
    134 O2    c      -0.001127      0.000813      0.000066      0.000000
    135 O2    c      -0.000117      0.000423     -0.000038      0.000000
    136 O2    c      -0.000149      0.000215      0.000043      0.000000
    137 O2    c      -0.000343      0.000268     -0.000067      0.000000
    138 O2    c      -0.000279      0.000400      0.001408      0.000000
    139 O2    c      -0.003939      0.000515     -0.004050      0.000000
    140 O2    c      -0.000315      0.000107     -0.000052      0.000000
    141 O2    c      -0.000161      0.000382     -0.000223      0.000000
    142 O2    c      -0.000286      0.000292      0.000024      0.000000
    143 O2    c       0.000022      0.000196     -0.000121      0.000000
    144 O2    c      -0.000319      0.000398      0.000040      0.000000
    145 O2    c      -0.000533      0.000009      0.000385      0.000000
    146 O2    c      -0.000714      0.001823      0.002008      0.000000
    147 O2    c      -0.000162      0.000407     -0.000048      0.000000
    148 O2    c      -0.000249      0.000250     -0.000016      0.000000
    149 O2    c      -0.000322      0.000274      0.000046      0.000000
    150 O2    c       0.000539     -0.000866      0.000953      0.000000
    151 O2    c      -0.000454     -0.000163      0.002478      0.000000
    152 O3    c       0.000960     -0.000494     -0.001305      0.000000
    153 O2    c      -0.000233      0.000352      0.000024      0.000000
    154 O2    c      -0.000283      0.000251      0.000355      0.000000
    155 O2    c      -0.000395      0.000435      0.000178      0.000000
    156 O2    c       0.000635     -0.000864     -0.003637      0.000000
    157 O2    c      -0.000332      0.000146      0.000012      0.000000
    158 O2    c      -0.000349      0.000727     -0.000233      0.000000
    159 O2    c       0.000070      0.000150     -0.000028      0.000000
    160 O2    c       0.000372      0.000177     -0.002673      0.000000
    161 O2    c      -0.000235      0.000334      0.000154      0.000000
    162 O2    c      -0.000340      0.000262      0.000543      0.000000
    163 O3    c       0.003929     -0.003126      0.008431      0.000000
    164 O2    c      -0.000250      0.000141      0.000004      0.000000
    165 O2    c      -0.000155      0.000377     -0.000025      0.000000
    166 O2    c      -0.000344      0.000288      0.000010      0.000000
    167 O2    c      -0.000095      0.000168     -0.000018      0.000000
    168 O2    c      -0.000419      0.000387      0.000419      0.000000
    169 O2    c      -0.000244      0.000163     -0.000131      0.000000
    170 O2    c       0.000920     -0.000276     -0.001751      0.000000
    171 O2    c      -0.000114      0.000296     -0.000040      0.000000
    172 O2    c       0.000041      0.000238     -0.000243      0.000000
    173 O2    c      -0.000313      0.000336     -0.000023      0.000000
    174 O3    c       0.000486      0.000406     -0.000644      0.000000
    175 O2    c      -0.000018      0.000259      0.001487      0.000000
    176 O2    c      -0.000238      0.000337     -0.000130      0.000000
    177 O3    c       0.001789     -0.001602     -0.001274      0.000000
    178 O2    c      -0.000107      0.000132     -0.000058      0.000000
    179 O2    c       0.000090      0.000181      0.000202      0.000000
    180 O2    c      -0.000376      0.000273      0.000367      0.000000
    181 F     c      -0.000103      0.000387     -0.001036      0.000000
    182 F     c      -0.000229      0.000354      0.000094      0.000000
    183 F     c      -0.000357      0.000324      0.001027      0.000000
    184 F     c      -0.000131      0.000253     -0.000081      0.000000
    185 F     c       0.000076      0.000130      0.001930      0.000000
    186 F     c      -0.000352      0.000168     -0.000118      0.000000
    187 O2    s       0.000216      0.000221     -0.000913      0.000000
    188 O2    s      -0.000079      0.000394      0.000478      0.000000
    189 O2    s       0.000145      0.000216     -0.000254      0.000000
    190 O2    s      -0.000421      0.000421     -0.000358      0.000000
    191 O2    s       0.000456     -0.000367     -0.001962      0.000000
    192 O2    s       0.000417     -0.000186      0.000021      0.000000
    193 O2    s      -0.000201      0.000211     -0.000157      0.000000
    194 O2    s      -0.000096      0.000340     -0.000108      0.000000
    195 O2    s      -0.000093      0.000243     -0.000376      0.000000
    196 O2    s       0.000086      0.000026     -0.000028      0.000000
    197 O2    s       0.000607     -0.000648      0.001084      0.000000
    198 O2    s      -0.000304      0.000280      0.000029      0.000000
    199 O3    s       0.001704      0.003060      0.001739      0.000000
    200 O2    s      -0.000090      0.000269      0.000101      0.000000
    201 O2    s      -0.000430      0.000086     -0.000089      0.000000
    202 O2    s      -0.000317      0.000279      0.000013      0.000000
    203 O2    s       0.000208      0.000286      0.000118      0.000000
    204 O2    s      -0.000277      0.000346      0.000052      0.000000
    205 O2    s      -0.000052      0.000667      0.000007      0.000000
    206 O2    s      -0.000618      0.000882      0.000278      0.000000
    207 O2    s      -0.000156      0.000346     -0.000137      0.000000
    208 O2    s      -0.000417      0.000201      0.000028      0.000000
    209 O2    s      -0.000057      0.000082      0.000093      0.000000
    210 O2    s       0.000063     -0.000015     -0.000839      0.000000
    211 O2    s      -0.000319      0.000310     -0.000032      0.000000
    212 O2    s      -0.000155      0.000181      0.002418      0.000000
    213 O2    s      -0.000334      0.000404      0.000240      0.000000
    214 O2    s       0.000168     -0.000705     -0.000468      0.000000
    215 O2    s      -0.000378      0.000342      0.000030      0.000000
    216 O2    s      -0.000367      0.000412      0.000113      0.000000
    217 O2    s      -0.000454      0.000138      0.000876      0.000000
    218 O2    s       0.000015      0.000366     -0.000539      0.000000
    219 O2    s      -0.000382      0.000515     -0.000436      0.000000
    220 O2    s       0.000004      0.000164     -0.000506      0.000000
    221 O2    s      -0.000376      0.000179      0.001104      0.000000
    222 O2    s      -0.000341      0.000274      0.000096      0.000000
    223 O2    s       0.000358     -0.000340     -0.002167      0.000000
    224 O2    s      -0.000338     -0.000404      0.000379      0.000000
    225 O2    s      -0.000193      0.000493     -0.000391      0.000000
    226 O2    s      -0.000256      0.000140      0.000091      0.000000
    227 O2    s       0.000025      0.000172     -0.000824      0.000000
    228 O3    s       0.000131      0.000062     -0.000684      0.000000
    229 O2    s      -0.000233      0.000164     -0.000088      0.000000
    230 O2    s      -0.000980      0.000915      0.001298      0.000000
    231 O2    s      -0.000188      0.000532     -0.000401      0.000000
    232 O2    s      -0.000898      0.000871     -0.000304      0.000000
    233 O2    s      -0.000221      0.000172      0.000077      0.000000
    234 O2    s      -0.000372      0.000311     -0.000446      0.000000
    235 O2    s      -0.000134      0.000208      0.000140      0.000000
    236 O2    s      -0.000171      0.000308     -0.000069      0.000000
    237 O2    s      -0.000351      0.000260     -0.000051      0.000000
    238 O2    s      -0.000097      0.000210      0.000683      0.000000
    239 O2    s       0.000644      0.000282     -0.001806      0.000000
    240 O2    s      -0.000430      0.000310     -0.000339      0.000000
    241 O3    s       0.000615     -0.000390     -0.003242      0.000000
    242 O2    s      -0.000031      0.000064      0.000050      0.000000
    243 O2    s      -0.000234      0.000435      0.000108      0.000000
    244 O2    s      -0.000371      0.000262     -0.000088      0.000000
    245 O2    s      -0.000176      0.000246      0.000225      0.000000
    246 O2    s       0.000329     -0.000212     -0.000283      0.000000
    247 O2    s      -0.000289      0.000162     -0.000003      0.000000
    248 O2    s      -0.000394     -0.000508     -0.001360      0.000000
    249 O2    s      -0.000124      0.000325      0.000249      0.000000
    250 O2    s       0.000174     -0.000096     -0.000070      0.000000
    251 O2    s      -0.000231      0.000264     -0.000124      0.000000
    252 O2    s      -0.000508      0.000579      0.000125      0.000000
    253 O2    s      -0.001214      0.003103      0.003481      0.000000
    254 O2    s      -0.000306      0.000115      0.000069      0.000000
    255 O2    s      -0.000196      0.000357      0.000235      0.000000
    256 O2    s      -0.000301      0.000314     -0.000023      0.000000
    257 O2    s      -0.000516      0.000548     -0.000316      0.000000
    258 O3    s       0.000117      0.000451      0.000383      0.000000
    259 O2    s      -0.000282      0.000080      0.000259      0.000000
    260 O2    s      -0.000055     -0.000083      0.000534      0.000000
    261 O2    s      -0.000103      0.000305      0.000099      0.000000
    262 O2    s      -0.000130      0.000234      0.000028      0.000000
    263 O2    s      -0.000302      0.000224      0.000197      0.000000
    264 O2    s      -0.000771      0.001174     -0.000182      0.000000
    265 O2    s       0.004314     -0.005119      0.000107      0.000000
    266 O2    s      -0.000268      0.000269      0.000094      0.000000
    267 O2    s      -0.000074      0.000281      0.000468      0.000000
    268 O2    s      -0.000303      0.000273     -0.000029      0.000000
    269 O2    s      -0.000151      0.000321     -0.000041      0.000000
    270 O2    s      -0.000167      0.000088     -0.000142      0.000000
    271 O2    s      -0.000054      0.000183      0.000012      0.000000
    272 O2    s      -0.000805      0.000251     -0.001208      0.000000
    273 O2    s      -0.000179      0.000309      0.000115      0.000000
    274 O2    s      -0.000044      0.000112      0.000215      0.000000
    275 O2    s      -0.000320      0.000260     -0.000040      0.000000
    276 O2    s       0.000090      0.000462     -0.001344      0.000000
    277 O2    s       0.000221      0.000039     -0.000807      0.000000
    278 O3    s      -0.001692      0.000968      0.000485      0.000000
    279 O2    s      -0.000232      0.000334      0.000056      0.000000
    280 O2    s      -0.000349      0.000170     -0.000188      0.000000
    281 O2    s       0.000090      0.000103      0.000071      0.000000
    282 O2    s      -0.000497      0.001081      0.003104      0.000000
    283 O2    s      -0.000344      0.000301     -0.000022      0.000000
    284 O2    s      -0.000151     -0.000689      0.001617      0.000000
    285 O2    s      -0.000245      0.000408     -0.000048      0.000000
    286 O2    s      -0.000230      0.000727      0.000603      0.000000
    287 O2    s      -0.000164      0.000309     -0.000150      0.000000
    288 O2    s      -0.000238      0.000244     -0.000081      0.000000
    289 O3    s      -0.003959      0.001795     -0.009765      0.000000
    290 O2    s      -0.000271      0.000292      0.000204      0.000000
    291 O2    s      -0.000157      0.000387      0.000184      0.000000
    292 O2    s      -0.000370      0.000195     -0.000028      0.000000
    293 O2    s      -0.000165      0.000346     -0.000032      0.000000
    294 O2    s      -0.000358      0.000771      0.001156      0.000000
    295 O2    s      -0.000359      0.000108      0.000162      0.000000
    296 O2    s      -0.000903      0.001034      0.000699      0.000000
    297 O2    s      -0.000131      0.000395      0.000128      0.000000
    298 O2    s       0.000636     -0.000388     -0.000030      0.000000
    299 O2    s      -0.000324      0.000317      0.000046      0.000000
    300 O3    s      -0.001036     -0.000103      0.000858      0.000000
    301 O2    s      -0.000471      0.000361     -0.000055      0.000000
    302 O2    s      -0.000246      0.000344      0.000143      0.000000
    303 O3    s      -0.000931      0.001039      0.001569      0.000000
    304 O2    s      -0.000142      0.000378      0.000029      0.000000
    305 O2    s       0.000316      0.000073     -0.000827      0.000000
    306 O2    s      -0.000280      0.000136     -0.000427      0.000000
    307 F     s       0.000658     -0.000643     -0.000945      0.000000
    308 F     s      -0.000210      0.000368     -0.000176      0.000000
    309 F     s       0.001295     -0.001290      0.000832      0.000000
    310 F     s      -0.000112      0.000314      0.000204      0.000000
    311 F     s      -0.000459      0.000108     -0.004480      0.000000
    312 F     s      -0.000320      0.000208      0.000189      0.000000
--------------------------------------------------------------------------------
  Maximum abs         0.005949      0.006436      0.009765      0.000000
--------------------------------------------------------------------------------


  Time to end of optimisation =      31.8700 seconds


  Peak dynamic memory used =      19.13 MB 


  Timing analysis for GULP :

--------------------------------------------------------------------------------
  Task / Subroutine                                          Time (Seconds)
--------------------------------------------------------------------------------
  Calculation of reciprocal space energy and derivatives          0.7859
  Calculation of real space energy and derivatives               27.6545
  Calculation of three-body energy and derivatives                2.9966
  Calculation of matrix inversion                                 0.3721
--------------------------------------------------------------------------------
  Total CPU time                                                 31.8701
--------------------------------------------------------------------------------


  Dump file written as out.res                                                 
  CIF file written as out.cif                                                 


  Job Finished at 13:52.40 22nd October    2016                               

