********************************************************************************
*                       GENERAL UTILITY LATTICE PROGRAM                        *
*                                 Julian Gale                                  *
*                      Nanochemistry Research Institute                        *
*                           Department of Chemistry                            *
*                    Curtin University, Western Australia                      *
********************************************************************************
* Version = 4.2.0 * Last modified =  20th January 2014                         *
********************************************************************************
*  optimise     - perform optimisation run                                     *
*  conp         - constant pressure calculation                                *
*  qok          - running with non charge neutral cell is OK                   *
********************************************************************************

  Job Started  at 05:54.32 23rd October    2016                               

  Number of CPUs =     1


  Total number of configurations input =   1

********************************************************************************
*  Input for Configuration =   1                                               *
********************************************************************************

  Formula = Si58Ge2O120F6                                               

  Number of irreducible atoms/shells =     312


  Total number atoms/shells =     312

  Dimensionality = 3               :  Bulk   


  Charge on solid   =  -6.000000 =>neutralising background added


  Cartesian lattice vectors (Angstroms) :

       11.947455    0.000000    0.000000
       -5.917723   10.382951    0.000000
       -0.077481    0.213280   29.462344

  Cell parameters (Angstroms/Degrees):

  a =      11.9475    alpha =  89.5650
  b =      11.9509    beta  =  90.1507
  c =      29.4632    gamma = 119.6808

  Initial cell volume =        3654.799046 Angs**3

  Temperature of configuration =  0.000     K 

  Pressure of configuration =         0.000 GPa 

  Fractional coordinates of asymmetric unit :

--------------------------------------------------------------------------------
   No.  Atomic       x           y          z         Charge      Occupancy
        Label      (Frac)      (Frac)     (Frac)        (e)         (Frac)  
--------------------------------------------------------------------------------
      1 Si    c    0.699600    0.375700    0.033890     4.00000    1.000000    
      2 Si    c    0.619611 *  0.320382 *  0.367399 *   4.00000    1.000000    
      3 Si    c    0.677456 *  0.288036 *  0.698806 *   4.00000    1.000000    
      4 Si    c    0.302762 *  0.623295 *  0.534718 *   4.00000    1.000000    
      5 Si    c    0.384826 *  0.671469 *  0.868918 *   4.00000    1.000000    
      6 Si    c    0.326838 *  0.702971 *  0.200959 *   4.00000    1.000000    
      7 Si    c    0.380935 *  0.702190 *  0.301864 *   4.00000    1.000000    
      8 Si    c    0.326427 *  0.617851 *  0.971164 *   4.00000    1.000000    
      9 Si    c    0.299442 *  0.669269 *  0.635884 *   4.00000    1.000000    
     10 Si    c    0.624317 *  0.290975 *  0.799386 *   4.00000    1.000000    
     11 Si    c    0.678943 *  0.376815 *  0.467354 *   4.00000    1.000000    
     12 Si    c    0.706135 *  0.325232 *  0.135740 *   4.00000    1.000000    
     13 Ge    c    0.532832 *  0.428385 *  0.966592 *   4.00000    1.000000    
     14 Si    c    0.583392 *  0.111889 *  0.302117 *   4.00000    1.000000    
     15 Si    c    0.888722 *  0.463524 *  0.634756 *   4.00000    1.000000    
     16 Si    c    0.471196 *  0.581820 *  0.469289 *   4.00000    1.000000    
     17 Si    c    0.422341 *  0.881273 *  0.802234 *   4.00000    1.000000    
     18 Si    c    0.116611 *  0.531274 *  0.136133 *   4.00000    1.000000    
     19 Si    c    0.416093 *  0.528328 *  0.367821 *   4.00000    1.000000    
     20 Si    c    0.112911 *  0.580792 *  0.034741 *   4.00000    1.000000    
     21 Si    c    0.472011 *  0.877237 *  0.700753 *   4.00000    1.000000    
     22 Si    c    0.597589 *  0.462338 *  0.867326 *   4.00000    1.000000    
     23 Si    c    0.888990 *  0.418966 *  0.532955 *   4.00000    1.000000    
     24 Si    c    0.532307 *  0.114352 *  0.200416 *   4.00000    1.000000    
     25 Si    c    0.310202 *  0.390387 *  0.854860 *   4.00000    1.000000    
     26 Si    c    0.604424 *  0.904955 *  0.186241 *   4.00000    1.000000    
     27 Si    c    0.099683 *  0.699403 *  0.520959 *   4.00000    1.000000    
     28 Si    c    0.696514 *  0.599334 *  0.352326 *   4.00000    1.000000    
     29 Si    c    0.399751 *  0.086619 *  0.685511 *   4.00000    1.000000    
     30 Si    c    0.905327 *  0.301524 *  0.021057 *   4.00000    1.000000    
     31 Si    c    0.403102 *  0.302229 *  0.484264 *   4.00000    1.000000    
     32 Si    c    0.907046 *  0.602484 *  0.150139 *   4.00000    1.000000    
     33 Si    c    0.701534 *  0.089170 *  0.815705 *   4.00000    1.000000    
     34 Si    c    0.610081 *  0.700289 *  0.989100 *   4.00000    1.000000    
     35 Si    c    0.098118 *  0.390408 *  0.648834 *   4.00000    1.000000    
     36 Si    c    0.303859 *  0.903840 *  0.316210 *   4.00000    1.000000    
     37 Si    c    0.253257 *  0.330437 *  0.957031 *   4.00000    1.000000    
     38 Si    c    0.661192 *  0.910618 *  0.287000 *   4.00000    1.000000    
     39 Si    c    0.090207 *  0.742094 *  0.622008 *   4.00000    1.000000    
     40 Si    c    0.748582 *  0.656655 *  0.452780 *   4.00000    1.000000    
     41 Si    c    0.343383 *  0.082068 *  0.786268 *   4.00000    1.000000    
     42 Si    c    0.916403 *  0.253917 *  0.121700 *   4.00000    1.000000    
     43 Si    c    0.338541 *  0.249208 *  0.384171 *   4.00000    1.000000    
     44 Si    c    0.910652 *  0.657315 *  0.049077 *   4.00000    1.000000    
     45 Si    c    0.750051 *  0.078895 *  0.715136 *   4.00000    1.000000    
     46 Si    c    0.670330 *  0.742072 *  0.885957 *   4.00000    1.000000    
     47 Si    c    0.092281 *  0.343075 *  0.547610 *   4.00000    1.000000    
     48 Si    c    0.254519 *  0.912579 *  0.215548 *   4.00000    1.000000    
     49 Si    c    0.968828 *  0.120201 *  0.970075 *   4.00000    1.000000    
     50 Si    c    0.879503 *  0.847922 *  0.302317 *   4.00000    1.000000    
     51 Si    c    0.149320 *  0.019385 *  0.637708 *   4.00000    1.000000    
     52 Si    c    0.027286 *  0.874319 *  0.468254 *   4.00000    1.000000    
     53 Si    c    0.125868 *  0.145555 *  0.803727 *   4.00000    1.000000    
     54 Si    c    0.854185 *  0.974297 *  0.136992 *   4.00000    1.000000    
     55 Si    c    0.122439 *  0.969760 *  0.367405 *   4.00000    1.000000    
     56 Si    c    0.854495 *  0.882130 *  0.036618 *   4.00000    1.000000    
     57 Si    c    0.031049 *  0.144192 *  0.702511 *   4.00000    1.000000    
     58 Si    c    0.882288 *  0.024243 *  0.868916 *   4.00000    1.000000    
     59 Ge    c    0.151753 *  0.119838 *  0.534654 *   4.00000    1.000000    
     60 Si    c    0.974156 *  0.848866 *  0.201558 *   4.00000    1.000000    
     61 O2    c    0.934470 *  0.001057 *  0.003074 *   0.87073    1.000000    
     62 O2    c    0.000093 *  0.928178 *  0.335166 *   0.87073    1.000000    
     63 O2    c    0.076362 *  0.061351 *  0.673601 *   0.87073    1.000000    
     64 O3    c    0.060588 *  0.992784 *  0.499941 *   1.33043    1.000000    
     65 O2    c    0.007466 *  0.066061 *  0.837853 *   0.87073    1.000000    
     66 O2    c    0.931259 *  0.931305 *  0.170623 *   0.87073    1.000000    
     67 O2    c    0.340756 *  0.578696 *  0.335020 *   0.87073    1.000000    
     68 O2    c    0.422070 *  0.751140 *  0.669010 *   0.87073    1.000000    
     69 O2    c    0.238847 *  0.656020 *  0.001792 *   0.87073    1.000000    
     70 O2    c    0.666863 *  0.418386 *  0.829532 *   0.87073    1.000000    
     71 O2    c    0.582368 *  0.240779 *  0.168333 *   0.87073    1.000000    
     72 O2    c    0.765903 *  0.340673 *  0.500102 *   0.87073    1.000000    
     73 O3    c    0.581284 *  0.339643 *  0.002281 *   1.33043    1.000000    
     74 O2    c    0.761616 *  0.411723 *  0.666472 *   0.87073    1.000000    
     75 O2    c    0.658247 *  0.236805 *  0.334521 *   0.87073    1.000000    
     76 O2    c    0.425207 *  0.660994 *  0.501787 *   0.87073    1.000000    
     77 O2    c    0.242726 *  0.580665 *  0.168432 *   0.87073    1.000000    
     78 O2    c    0.348177 *  0.756110 *  0.835545 *   0.87073    1.000000    
     79 O2    c    0.120956 *  0.211280 *  0.975200 *   0.87073    1.000000    
     80 O2    c    0.788368 *  0.911487 *  0.306994 *   0.87073    1.000000    
     81 O2    c    0.087954 *  0.865365 *  0.643556 *   0.87073    1.000000    
     82 O2    c    0.873865 *  0.780972 *  0.472854 *   0.87073    1.000000    
     83 O2    c    0.216137 *  0.080383 *  0.806414 *   0.87073    1.000000    
     84 O2    c    0.916766 *  0.127835 *  0.142480 *   0.87073    1.000000    
     85 O2    c    0.212209 *  0.124495 *  0.363889 *   0.87073    1.000000    
     86 O2    c    0.909507 *  0.784370 *  0.029455 *   0.87073    1.000000    
     87 O2    c    0.877152 *  0.079381 *  0.695599 *   0.87073    1.000000    
     88 O2    c    0.792514 *  0.869778 *  0.864801 *   0.87073    1.000000    
     89 O3    c    0.089208 *  0.220305 *  0.525539 *   1.33043    1.000000    
     90 O2    c    0.128005 *  0.912417 *  0.195383 *   0.87073    1.000000    
     91 O2    c    0.935541 *  0.859424 *  0.252484 *   0.87073    1.000000    
     92 O3    c    0.125545 *  0.058705 *  0.588836 *   1.33043    1.000000    
     93 O2    c    0.928980 *  0.066403 *  0.919652 *   0.87073    1.000000    
     94 O2    c    0.067968 *  0.138814 *  0.754363 *   0.87073    1.000000    
     95 O2    c    0.873479 *  0.935373 *  0.087101 *   0.87073    1.000000    
     96 O2    c    0.069568 *  0.925916 *  0.417650 *   0.87073    1.000000    
     97 O2    c    0.899131 *  0.201722 *  0.982424 *   0.87073    1.000000    
     98 O2    c    0.795528 *  0.696153 *  0.314184 *   0.87073    1.000000    
     99 O2    c    0.302894 *  0.087655 *  0.646936 *   0.87073    1.000000    
    100 O2    c    0.102631 *  0.798635 *  0.482650 *   0.87073    1.000000    
    101 O2    c    0.212319 *  0.296053 *  0.816396 *   0.87073    1.000000    
    102 O2    c    0.701720 *  0.904719 *  0.147812 *   0.87073    1.000000    
    103 O2    c    0.205640 *  0.901918 *  0.354603 *   0.87073    1.000000    
    104 O2    c    0.702603 *  0.811446 *  0.024701 *   0.87073    1.000000    
    105 O2    c    0.100067 *  0.293529 *  0.687380 *   0.87073    1.000000    
    106 O2    c    0.800638 *  0.092592 *  0.854077 *   0.87073    1.000000    
    107 O3    c    0.314139 *  0.205001 *  0.523781 *   1.33043    1.000000    
    108 O2    c    0.904656 *  0.698629 *  0.188411 *   0.87073    1.000000    
    109 O2    c    0.325773 *  0.645580 *  0.251532 *   0.87073    1.000000    
    110 O2    c    0.358527 *  0.674827 *  0.585516 *   0.87073    1.000000    
    111 O2    c    0.329612 *  0.668254 *  0.919316 *   0.87073    1.000000    
    112 O2    c    0.679360 *  0.345271 *  0.748831 *   0.87073    1.000000    
    113 O2    c    0.650021 *  0.325213 *  0.085717 *   0.87073    1.000000    
    114 O2    c    0.679208 *  0.320046 *  0.417282 *   0.87073    1.000000    
    115 O3    c    0.366169 *  0.312534 *  0.976509 *   1.33043    1.000000    
    116 O2    c    0.671023 *  0.042708 *  0.305552 *   0.87073    1.000000    
    117 O2    c    0.957613 *  0.619018 *  0.639636 *   0.87073    1.000000    
    118 O2    c    0.627160 *  0.667880 *  0.471627 *   0.87073    1.000000    
    119 O2    c    0.334873 *  0.950381 *  0.805710 *   0.87073    1.000000    
    120 O2    c    0.048678 *  0.375192 *  0.140253 *   0.87073    1.000000    
    121 O2    c    0.328678 *  0.372253 *  0.365643 *   0.87073    1.000000    
    122 O2    c    0.045322 *  0.669767 *  0.031089 *   0.87073    1.000000    
    123 O2    c    0.628268 *  0.945412 *  0.697760 *   0.87073    1.000000    
    124 O2    c    0.680551 *  0.620767 *  0.866998 *   0.87073    1.000000    
    125 O2    c    0.959454 *  0.333602 *  0.530316 *   0.87073    1.000000    
    126 O2    c    0.376110 *  0.045573 *  0.197308 *   0.87073    1.000000    
    127 O2    c    0.771831 *  0.301061 *  0.013991 *   0.87073    1.000000    
    128 O2    c    0.693520 *  0.463809 *  0.344971 *   0.87073    1.000000    
    129 O2    c    0.533472 *  0.219724 *  0.677248 *   0.87073    1.000000    
    130 O2    c    0.234325 *  0.700187 *  0.513497 *   0.87073    1.000000    
    131 O2    c    0.313845 *  0.526947 *  0.848842 *   0.87073    1.000000    
    132 O2    c    0.470591 *  0.771538 *  0.178930 *   0.87073    1.000000    
    133 O2    c    0.305307 *  0.770284 *  0.324021 *   0.87073    1.000000    
    134 O2    c    0.471059 *  0.694817 *  0.991405 *   0.87073    1.000000    
    135 O2    c    0.230690 *  0.524591 *  0.657310 *   0.87073    1.000000    
    136 O2    c    0.698081 *  0.221567 *  0.822660 *   0.87073    1.000000    
    137 O2    c    0.537360 *  0.301586 *  0.490498 *   0.87073    1.000000    
    138 O2    c    0.774989 *  0.467763 *  0.158276 *   0.87073    1.000000    
    139 O2    c    0.788302 *  0.532535 *  0.028819 *   0.87073    1.000000    
    140 O2    c    0.463383 *  0.246919 *  0.364523 *   0.87073    1.000000    
    141 O2    c    0.749491 *  0.203745 *  0.694336 *   0.87073    1.000000    
    142 O2    c    0.219682 *  0.468616 *  0.529006 *   0.87073    1.000000    
    143 O2    c    0.539135 *  0.734491 *  0.868028 *   0.87073    1.000000    
    144 O2    c    0.254077 *  0.786629 *  0.196168 *   0.87073    1.000000    
    145 O2    c    0.536874 *  0.783605 *  0.306784 *   0.87073    1.000000    
    146 O2    c    0.262062 *  0.463576 *  0.974463 *   0.87073    1.000000    
    147 O2    c    0.217029 *  0.743022 *  0.641499 *   0.87073    1.000000    
    148 O2    c    0.468132 *  0.209948 *  0.804836 *   0.87073    1.000000    
    149 O2    c    0.752293 *  0.532199 *  0.472162 *   0.87073    1.000000    
    150 O2    c    0.789095 *  0.251628 *  0.140977 *   0.87073    1.000000    
    151 O2    c    0.243113 *  0.320675 *  0.901860 *   0.87073    1.000000    
    152 O2    c    0.678961 *  0.909081 *  0.232731 *   0.87073    1.000000    
    153 O2    c    0.094505 *  0.767428 *  0.567780 *   0.87073    1.000000    
    154 O2    c    0.766485 *  0.673707 *  0.398477 *   0.87073    1.000000    
    155 O2    c    0.325218 *  0.082436 *  0.731949 *   0.87073    1.000000    
    156 O2    c    0.914565 *  0.232893 *  0.067480 *   0.87073    1.000000    
    157 O2    c    0.321667 *  0.230133 *  0.438826 *   0.87073    1.000000    
    158 O2    c    0.908487 *  0.674936 *  0.103395 *   0.87073    1.000000    
    159 O2    c    0.770931 *  0.083728 *  0.769400 *   0.87073    1.000000    
    160 O2    c    0.682524 *  0.757051 *  0.940148 *   0.87073    1.000000    
    161 O2    c    0.097059 *  0.319976 *  0.601961 *   0.87073    1.000000    
    162 O2    c    0.234106 *  0.909654 *  0.269841 *   0.87073    1.000000    
    163 O3    c    0.603053 *  0.569294 *  0.002218 *   1.33043    1.000000    
    164 O2    c    0.442365 *  0.028977 *  0.325350 *   0.87073    1.000000    
    165 O2    c    0.970896 *  0.402250 *  0.657199 *   0.87073    1.000000    
    166 O2    c    0.414970 *  0.441049 *  0.493122 *   0.87073    1.000000    
    167 O2    c    0.563683 *  0.962147 *  0.825211 *   0.87073    1.000000    
    168 O2    c    0.034211 *  0.590742 *  0.159162 *   0.87073    1.000000    
    169 O2    c    0.556582 *  0.584899 *  0.344273 *   0.87073    1.000000    
    170 O2    c    0.031497 *  0.440200 *  0.011265 *   0.87073    1.000000    
    171 O2    c    0.415038 *  0.961658 *  0.677232 *   0.87073    1.000000    
    172 O2    c    0.451706 *  0.409897 *  0.847576 *   0.87073    1.000000    
    173 O2    c    0.973977 *  0.561951 *  0.511262 *   0.87073    1.000000    
    174 O2    c    0.589211 *  0.029970 *  0.177393 *   0.87073    1.000000    
    175 O2    c    0.584342 *  0.166235 *  0.251330 *   0.87073    1.000000    
    176 O2    c    0.834909 *  0.416308 *  0.583776 *   0.87073    1.000000    
    177 O3    c    0.604569 *  0.406983 *  0.915488 *   1.33043    1.000000    
    178 O2    c    0.419477 *  0.825105 *  0.751908 *   0.87073    1.000000    
    179 O2    c    0.170761 *  0.583357 *  0.085086 *   0.87073    1.000000    
    180 O2    c    0.416591 *  0.581557 *  0.418607 *   0.87073    1.000000    
    181 F     c    0.454924 *  0.905441 *  0.251959 *   0.56000    1.000000    
    182 F     c    0.097884 *  0.545906 *  0.585353 *   0.56000    1.000000    
    183 F     c    0.478337 *  0.520077 *  0.929268 *   0.56000    1.000000    
    184 F     c    0.548599 *  0.084807 *  0.751282 *   0.56000    1.000000    
    185 F     c    0.914934 *  0.454975 *  0.085965 *   0.56000    1.000000    
    186 F     c    0.546347 *  0.448548 *  0.419140 *   0.56000    1.000000    
    187 O2    s    0.929294 *  0.001123 *  0.003115 *  -2.87073    1.000000    
    188 O2    s    0.000360 *  0.923917 *  0.335113 *  -2.87073    1.000000    
    189 O2    s    0.079263 *  0.066141 *  0.672932 *  -2.87073    1.000000    
    190 O3    s    0.064967 *  0.991052 *  0.499545 *  -3.33043    1.000000    
    191 O2    s    0.006814 *  0.070237 *  0.837488 *  -2.87073    1.000000    
    192 O2    s    0.927386 *  0.926807 *  0.170321 *  -2.87073    1.000000    
    193 O2    s    0.352628 *  0.586072 *  0.335017 *  -2.87073    1.000000    
    194 O2    s    0.414753 *  0.755818 *  0.668908 *  -2.87073    1.000000    
    195 O2    s    0.235662 *  0.644504 *  0.001789 *  -2.87073    1.000000    
    196 O2    s    0.655409 *  0.409597 *  0.830214 *  -2.87073    1.000000    
    197 O2    s    0.589761 *  0.236219 *  0.168348 *  -2.87073    1.000000    
    198 O2    s    0.769753 *  0.352569 *  0.500138 *  -2.87073    1.000000    
    199 O3    s    0.590943 *  0.349773 *  0.003277 *  -3.33043    1.000000    
    200 O2    s    0.765913 *  0.404106 *  0.666594 *  -2.87073    1.000000    
    201 O2    s    0.646538 *  0.232650 *  0.334620 *  -2.87073    1.000000    
    202 O2    s    0.417273 *  0.649086 *  0.501888 *  -2.87073    1.000000    
    203 O2    s    0.238618 *  0.588312 *  0.168527 *  -2.87073    1.000000    
    204 O2    s    0.359531 *  0.759722 *  0.835743 *  -2.87073    1.000000    
    205 O2    s    0.118347 *  0.214144 *  0.972643 *  -2.87073    1.000000    
    206 O2    s    0.784945 *  0.904607 *  0.304457 *  -2.87073    1.000000    
    207 O2    s    0.094652 *  0.868770 *  0.640726 *  -2.87073    1.000000    
    208 O2    s    0.876957 *  0.777717 *  0.470243 *  -2.87073    1.000000    
    209 O2    s    0.219653 *  0.087487 *  0.804076 *  -2.87073    1.000000    
    210 O2    s    0.910012 *  0.124361 *  0.139776 *  -2.87073    1.000000    
    211 O2    s    0.215748 *  0.121018 *  0.366328 *  -2.87073    1.000000    
    212 O2    s    0.903768 *  0.781773 *  0.032193 *  -2.87073    1.000000    
    213 O2    s    0.880236 *  0.086161 *  0.698324 *  -2.87073    1.000000    
    214 O2    s    0.789328 *  0.872842 *  0.867403 *  -2.87073    1.000000    
    215 O3    s    0.094719 *  0.224471 *  0.528523 *  -3.33043    1.000000    
    216 O2    s    0.124789 *  0.905676 *  0.198108 *  -2.87073    1.000000    
    217 O2    s    0.933502 *  0.856915 *  0.252419 *  -2.87073    1.000000    
    218 O3    s    0.130384 *  0.059708 *  0.589470 *  -3.33043    1.000000    
    219 O2    s    0.928075 *  0.067568 *  0.919462 *  -2.87073    1.000000    
    220 O2    s    0.070412 *  0.140161 *  0.754160 *  -2.87073    1.000000    
    221 O2    s    0.869139 *  0.933693 *  0.086970 *  -2.87073    1.000000    
    222 O2    s    0.070826 *  0.925081 *  0.417635 *  -2.87073    1.000000    
    223 O2    s    0.907304 *  0.202929 *  0.984964 *  -2.87073    1.000000    
    224 O2    s    0.794178 *  0.702191 *  0.316868 *  -2.87073    1.000000    
    225 O2    s    0.296888 *  0.080482 *  0.649905 *  -2.87073    1.000000    
    226 O2    s    0.094382 *  0.796321 *  0.485127 *  -2.87073    1.000000    
    227 O2    s    0.213333 *  0.289941 *  0.819038 *  -2.87073    1.000000    
    228 O2    s    0.707867 *  0.912070 *  0.150584 *  -2.87073    1.000000    
    229 O2    s    0.206795 *  0.909395 *  0.352034 *  -2.87073    1.000000    
    230 O2    s    0.709118 *  0.807631 *  0.022346 *  -2.87073    1.000000    
    231 O2    s    0.092482 *  0.287488 *  0.685042 *  -2.87073    1.000000    
    232 O2    s    0.799144 *  0.084884 *  0.851684 *  -2.87073    1.000000    
    233 O3    s    0.309134 *  0.207157 *  0.520940 *  -3.33043    1.000000    
    234 O2    s    0.912340 *  0.704917 *  0.185923 *  -2.87073    1.000000    
    235 O2    s    0.331520 *  0.657179 *  0.251544 *  -2.87073    1.000000    
    236 O2    s    0.346870 *  0.669041 *  0.585485 *  -2.87073    1.000000    
    237 O2    s    0.335069 *  0.663529 *  0.919251 *  -2.87073    1.000000    
    238 O2    s    0.673419 *  0.333626 *  0.748887 *  -2.87073    1.000000    
    239 O2    s    0.660905 *  0.330237 *  0.085882 *  -2.87073    1.000000    
    240 O2    s    0.673127 *  0.325897 *  0.417358 *  -2.87073    1.000000    
    241 O3    s    0.365092 *  0.322219 *  0.973708 *  -3.33043    1.000000    
    242 O2    s    0.660979 *  0.036054 *  0.303257 *  -2.87073    1.000000    
    243 O2    s    0.964404 *  0.615831 *  0.637273 *  -2.87073    1.000000    
    244 O2    s    0.623703 *  0.657777 *  0.469400 *  -2.87073    1.000000    
    245 O2    s    0.344798 *  0.956837 *  0.803334 *  -2.87073    1.000000    
    246 O2    s    0.041865 *  0.378560 *  0.137888 *  -2.87073    1.000000    
    247 O2    s    0.338691 *  0.375465 *  0.367815 *  -2.87073    1.000000    
    248 O2    s    0.038612 *  0.659351 *  0.033300 *  -2.87073    1.000000    
    249 O2    s    0.624972 *  0.952337 *  0.699889 *  -2.87073    1.000000    
    250 O2    s    0.671488 *  0.618277 *  0.869037 *  -2.87073    1.000000    
    251 O2    s    0.966103 *  0.343756 *  0.532466 *  -2.87073    1.000000    
    252 O2    s    0.379414 *  0.038719 *  0.199545 *  -2.87073    1.000000    
    253 O2    s    0.779227 *  0.308667 *  0.016823 *  -2.87073    1.000000    
    254 O2    s    0.686207 *  0.463348 *  0.348090 *  -2.87073    1.000000    
    255 O2    s    0.534236 *  0.212743 *  0.680372 *  -2.87073    1.000000    
    256 O2    s    0.227268 *  0.692151 *  0.516522 *  -2.87073    1.000000    
    257 O2    s    0.320911 *  0.527864 *  0.851586 *  -2.87073    1.000000    
    258 O2    s    0.469930 *  0.778535 *  0.181990 *  -2.87073    1.000000    
    259 O2    s    0.312938 *  0.777365 *  0.320886 *  -2.87073    1.000000    
    260 O2    s    0.469907 *  0.687280 *  0.989012 *  -2.87073    1.000000    
    261 O2    s    0.223928 *  0.525484 *  0.654186 *  -2.87073    1.000000    
    262 O2    s    0.690849 *  0.214620 *  0.819503 *  -2.87073    1.000000    
    263 O2    s    0.537998 *  0.309545 *  0.487368 *  -2.87073    1.000000    
    264 O2    s    0.781876 *  0.467367 *  0.155084 *  -2.87073    1.000000    
    265 O2    s    0.793369 *  0.530944 *  0.031537 *  -2.87073    1.000000    
    266 O2    s    0.466231 *  0.254943 *  0.366933 *  -2.87073    1.000000    
    267 O2    s    0.741893 *  0.198907 *  0.697034 *  -2.87073    1.000000    
    268 O2    s    0.214638 *  0.471480 *  0.531609 *  -2.87073    1.000000    
    269 O2    s    0.536525 *  0.728420 *  0.870039 *  -2.87073    1.000000    
    270 O2    s    0.261880 *  0.791662 *  0.198758 *  -2.87073    1.000000    
    271 O2    s    0.534058 *  0.788913 *  0.304172 *  -2.87073    1.000000    
    272 O2    s    0.268291 *  0.466679 *  0.972333 *  -2.87073    1.000000    
    273 O2    s    0.211866 *  0.735098 *  0.638834 *  -2.87073    1.000000    
    274 O2    s    0.470754 *  0.204434 *  0.802312 *  -2.87073    1.000000    
    275 O2    s    0.744064 *  0.529396 *  0.469570 *  -2.87073    1.000000    
    276 O2    s    0.794348 *  0.259628 *  0.138376 *  -2.87073    1.000000    
    277 O2    s    0.251444 *  0.329225 *  0.902308 *  -2.87073    1.000000    
    278 O2    s    0.669274 *  0.908815 *  0.233630 *  -2.87073    1.000000    
    279 O2    s    0.094623 *  0.757812 *  0.568603 *  -2.87073    1.000000    
    280 O2    s    0.757183 *  0.664047 *  0.399420 *  -2.87073    1.000000    
    281 O2    s    0.334905 *  0.082816 *  0.732894 *  -2.87073    1.000000    
    282 O2    s    0.913831 *  0.242251 *  0.068352 *  -2.87073    1.000000    
    283 O2    s    0.331489 *  0.239305 *  0.437774 *  -2.87073    1.000000    
    284 O2    s    0.908574 *  0.665441 *  0.102614 *  -2.87073    1.000000    
    285 O2    s    0.761352 *  0.083778 *  0.768516 *  -2.87073    1.000000    
    286 O2    s    0.674171 *  0.749855 *  0.938984 *  -2.87073    1.000000    
    287 O2    s    0.096746 *  0.329634 *  0.601347 *  -2.87073    1.000000    
    288 O2    s    0.243628 *  0.909359 *  0.268987 *  -2.87073    1.000000    
    289 O3    s    0.598973 *  0.574263 *  0.998455 *  -3.33043    1.000000    
    290 O2    s    0.442185 *  0.023990 *  0.321932 *  -2.87073    1.000000    
    291 O2    s    0.976145 *  0.407503 *  0.653968 *  -2.87073    1.000000    
    292 O2    s    0.419679 *  0.440880 *  0.489710 *  -2.87073    1.000000    
    293 O2    s    0.563543 *  0.967284 *  0.821802 *  -2.87073    1.000000    
    294 O2    s    0.028996 *  0.585655 *  0.155796 *  -2.87073    1.000000    
    295 O2    s    0.557074 *  0.580375 *  0.347611 *  -2.87073    1.000000    
    296 O2    s    0.026506 *  0.440114 *  0.014716 *  -2.87073    1.000000    
    297 O2    s    0.419549 *  0.966463 *  0.680598 *  -2.87073    1.000000    
    298 O2    s    0.450441 *  0.413047 *  0.850355 *  -2.87073    1.000000    
    299 O2    s    0.978799 *  0.561789 *  0.514601 *  -2.87073    1.000000    
    300 O2    s    0.584729 *  0.025091 *  0.180763 *  -2.87073    1.000000    
    301 O2    s    0.578860 *  0.155193 *  0.251369 *  -2.87073    1.000000    
    302 O2    s    0.846130 *  0.421531 *  0.583828 *  -2.87073    1.000000    
    303 O3    s    0.599217 *  0.414257 *  0.913675 *  -3.33043    1.000000    
    304 O2    s    0.425156 *  0.836285 *  0.751901 *  -2.87073    1.000000    
    305 O2    s    0.159264 *  0.577753 *  0.085122 *  -2.87073    1.000000    
    306 O2    s    0.422169 *  0.576106 *  0.418630 *  -2.87073    1.000000    
    307 F     s    0.454804 *  0.905172 *  0.252035 *  -1.56000    1.000000    
    308 F     s    0.098179 *  0.546122 *  0.585410 *  -1.56000    1.000000    
    309 F     s    0.482287 *  0.513880 *  0.931801 *  -1.56000    1.000000    
    310 F     s    0.548601 *  0.084878 *  0.751364 *  -1.56000    1.000000    
    311 F     s    0.915565 *  0.455129 *  0.086035 *  -1.56000    1.000000    
    312 F     s    0.546411 *  0.448210 *  0.419263 *  -1.56000    1.000000    
--------------------------------------------------------------------------------



********************************************************************************
*  General input information                                                   *
********************************************************************************

  Species output for all configurations : 

--------------------------------------------------------------------------------
  Species    Type    Atomic    Atomic    Charge       Radii (Angs)     Library
                     Number     Mass       (e)     Cova   Ionic  VDW   Symbol
--------------------------------------------------------------------------------
    Si       Core       14      28.09   4.000000   1.200  0.000  2.100          
    O1       Core        8      16.00   1.733957   0.730  0.000  1.360          
    O1       Shell       8       0.00  -3.733957   0.730  0.000  1.360          
    O2       Core        8      16.00   0.870733   0.730  0.000  1.360          
    O2       Shell       8       0.00  -2.870733   0.730  0.000  1.360          
    O3       Core        8      16.00   1.330431   0.730  0.000  1.360          
    O3       Shell       8       0.00  -3.330431   0.730  0.000  1.360          
    F        Core        9      19.00   0.560000   0.710  0.000  1.300          
    F        Shell       9       0.00  -1.560000   0.710  0.000  1.300          
    Ge       Core       32      72.61   4.000000   1.170  0.000  1.750          
--------------------------------------------------------------------------------


  Lattice summation method               =    Ewald          (3-D)
                                         =    Parry          (2-D)
                                         =    Saunders et al (1-D)
  Accuracy factor for lattice sums       =   12.000


  Time limit = Infinity

  Maximum range for interatomic potentials =        16.000000 Angstroms

  Taper potentials to zero over   1.0000 Angstroms using polynomial

  General interatomic potentials :

--------------------------------------------------------------------------------
Atom  Types   Potential         A         B         C         D     Cutoffs(Ang)
  1     2                                                            Min    Max 
--------------------------------------------------------------------------------
Si   c O1   s Buckingham    0.132E+04 0.318      10.1      0.00     0.000 16.000
Si   c O2   s Buckingham    0.132E+04 0.318      10.1      0.00     0.000 16.000
Si   c O3   s Buckingham    0.132E+04 0.318      10.1      0.00     0.000 16.000
Ge   c O1   s Buckingham    0.150E+04 0.326      16.8      0.00     0.000 16.000
Ge   c O2   s Buckingham    0.150E+04 0.326      16.8      0.00     0.000 16.000
Ge   c O3   s Buckingham    0.150E+04 0.326      16.8      0.00     0.000 16.000
O1   s O1   s Buckingham    0.228E+05 0.149      10.9      0.00     0.000 16.000
O1   s O2   s Buckingham    0.228E+05 0.149      10.9      0.00     0.000 16.000
O1   s O3   s Buckingham    0.228E+05 0.149      10.9      0.00     0.000 16.000
O2   s O2   s Buckingham    0.228E+05 0.149      10.9      0.00     0.000 16.000
O2   s O3   s Buckingham    0.228E+05 0.149      10.9      0.00     0.000 16.000
O3   s O3   s Buckingham    0.228E+05 0.149      10.9      0.00     0.000 16.000
Si   c F    s Buckingham     977.     0.282      0.00      0.00     0.000 16.000
Ge   c F    s Buckingham     681.     0.320      0.00      0.00     0.000 16.000
F    s F    s Buckingham     540.     0.262      0.00      0.00     0.000 16.000
O1   s F    s Buckingham    0.168E+04 0.268      0.00      0.00     0.000 16.000
O2   s F    s Buckingham    0.168E+04 0.268      0.00      0.00     0.000 16.000
O3   s F    s Buckingham    0.168E+04 0.268      0.00      0.00     0.000 16.000
O2   c O2   s Spring (c-s)   76.0      0.00      0.00      0.00     0.000  0.800
O3   c O3   s Spring (c-s)   128.      0.00      0.00      0.00     0.000  0.800
O1   c O1   s Spring (c-s)   180.      0.00      0.00      0.00     0.000  0.800
F    c F    s Spring (c-s)   33.5      0.00      0.00      0.00     0.000  0.800
--------------------------------------------------------------------------------

  General Three-body potentials :

  Harmonic form:

--------------------------------------------------------------------------------
Atom    Atom    Atom           Force Constants            Theta     Cutoffs  
  1       2       3     (eVrad**-2/eVrad**-3/eVrad**-4)   (deg)  1-2  1-3  2-3
--------------------------------------------------------------------------------
Si    c O1    s O1    s  1.261        0.0000    0.0000   109.470 0.00 0.00 0.00
                                                                 1.90 1.90 3.50
Si    c O1    s O2    s  1.261        0.0000    0.0000   109.470 0.00 0.00 0.00
                                                                 1.90 1.90 3.50
Si    c O2    s O2    s  1.261        0.0000    0.0000   109.470 0.00 0.00 0.00
                                                                 1.90 1.90 3.50
--------------------------------------------------------------------------------

********************************************************************************
*  Output for configuration   1                                                *
********************************************************************************


  Components of energy : 

--------------------------------------------------------------------------------
  Interatomic potentials     =        2063.55022510 eV
  Three-body potentials      =           0.46530011 eV
  Monopole - monopole (real) =       -6641.86311276 eV
  Monopole - monopole (recip)=       -3148.62417776 eV
  Monopole - monopole (total)=       -9790.48729052 eV
  Neutralising energy        =          -6.46121378 eV
--------------------------------------------------------------------------------
  Total lattice energy       =       -7732.93297909 eV
--------------------------------------------------------------------------------
  Total lattice energy       =         -746109.8238 kJ/(mole unit cells)
--------------------------------------------------------------------------------


  Number of variables =      939

  Maximum number of calculations  =          5000
  Maximum Hessian update interval =            10
  Maximum step size               =   0.100000000
  Maximum parameter tolerance     =   0.000010000
  Maximum function  tolerance     =   0.000010000
  Maximum gradient  tolerance     =   0.001000000
  Maximum gradient  component     =   0.010000000

  Symmetry not applied to optimisation

  Cell parameters to be optimised using strains

  Newton-Raphson optimiser to be used

  BFGS hessian update to be used

  Dumpfile to be written after every cycle

  Start of bulk optimisation :

  Cycle:      0 Energy:     -7732.932979  Gnorm:      0.000263  CPU:    2.048
  ** Hessian calculated **
  Cycle:      1 Energy:     -7732.939508  Gnorm:      0.000186  CPU:    6.634
  Cycle:      2 Energy:     -7732.941149  Gnorm:      0.000178  CPU:   10.843
  Cycle:      3 Energy:     -7732.941563  Gnorm:      0.000113  CPU:   15.049
  Cycle:      4 Energy:     -7732.941668  Gnorm:      0.000063  CPU:   19.258
  Cycle:      5 Energy:     -7732.941686  Gnorm:      0.000045  CPU:   22.102


  **** Optimisation achieved ****


  Final energy =   -7732.94169427 eV
  Final Gnorm  =       0.00003155

  Components of energy : 

--------------------------------------------------------------------------------
  Interatomic potentials     =        2063.59858342 eV
  Three-body potentials      =           0.46558607 eV
  Monopole - monopole (real) =       -6641.94495028 eV
  Monopole - monopole (recip)=       -3148.59974950 eV
  Monopole - monopole (total)=       -9790.54469977 eV
  Neutralising energy        =          -6.46116398 eV
--------------------------------------------------------------------------------
  Total lattice energy       =       -7732.94169427 eV
--------------------------------------------------------------------------------
  Total lattice energy       =         -746110.6647 kJ/(mole unit cells)
--------------------------------------------------------------------------------

  Final fractional coordinates of atoms :

--------------------------------------------------------------------------------
   No.  Atomic        x           y          z          Radius
        Label       (Frac)      (Frac)     (Frac)       (Angs) 
--------------------------------------------------------------------------------
     1  Si    c     0.699600    0.375700    0.033890    0.000000
     2  Si    c     0.621015    0.315491    0.366959    0.000000
     3  Si    c     0.677407    0.281788    0.698330    0.000000
     4  Si    c     0.303325    0.616698    0.534192    0.000000
     5  Si    c     0.384953    0.666220    0.868322    0.000000
     6  Si    c     0.328144    0.699342    0.200385    0.000000
     7  Si    c     0.382045    0.697210    0.301267    0.000000
     8  Si    c     0.326521    0.614159    0.970604    0.000000
     9  Si    c     0.299699    0.662526    0.635357    0.000000
    10  Si    c     0.623937    0.285220    0.798905    0.000000
    11  Si    c     0.679853    0.371133    0.466914    0.000000
    12  Si    c     0.707236    0.323519    0.135574    0.000000
    13  Ge    c     0.531372    0.424207    0.966119    0.000000
    14  Si    c     0.584676    0.107087    0.301794    0.000000
    15  Si    c     0.889069    0.456875    0.634299    0.000000
    16  Si    c     0.472133    0.575948    0.468677    0.000000
    17  Si    c     0.422183    0.875492    0.801549    0.000000
    18  Si    c     0.117776    0.528528    0.135492    0.000000
    19  Si    c     0.417369    0.523153    0.367166    0.000000
    20  Si    c     0.113257    0.578057    0.034150    0.000000
    21  Si    c     0.472017    0.870831    0.700132    0.000000
    22  Si    c     0.597218    0.456724    0.866952    0.000000
    23  Si    c     0.889485    0.412381    0.532509    0.000000
    24  Si    c     0.534157    0.111265    0.200117    0.000000
    25  Si    c     0.309833    0.384993    0.854400    0.000000
    26  Si    c     0.605742    0.901451    0.185986    0.000000
    27  Si    c     0.100169    0.692764    0.520418    0.000000
    28  Si    c     0.697975    0.594326    0.351723    0.000000
    29  Si    c     0.399867    0.080342    0.685005    0.000000
    30  Si    c     0.904325    0.299434    0.020515    0.000000
    31  Si    c     0.403819    0.296292    0.483774    0.000000
    32  Si    c     0.908858    0.600396    0.149798    0.000000
    33  Si    c     0.701130    0.083257    0.815058    0.000000
    34  Si    c     0.609933    0.696283    0.988848    0.000000
    35  Si    c     0.098446    0.383701    0.648313    0.000000
    36  Si    c     0.305167    0.899001    0.315782    0.000000
    37  Si    c     0.252082    0.326242    0.956635    0.000000
    38  Si    c     0.662346    0.905792    0.286655    0.000000
    39  Si    c     0.090510    0.735493    0.621474    0.000000
    40  Si    c     0.749550    0.650911    0.452228    0.000000
    41  Si    c     0.343073    0.076165    0.785711    0.000000
    42  Si    c     0.916870    0.251264    0.121067    0.000000
    43  Si    c     0.339846    0.244020    0.383614    0.000000
    44  Si    c     0.912272    0.656094    0.048849    0.000000
    45  Si    c     0.750006    0.072551    0.714556    0.000000
    46  Si    c     0.670358    0.736747    0.885626    0.000000
    47  Si    c     0.092793    0.336573    0.547099    0.000000
    48  Si    c     0.256226    0.909239    0.215161    0.000000
    49  Si    c     0.967139    0.117402    0.969634    0.000000
    50  Si    c     0.880848    0.843437    0.301984    0.000000
    51  Si    c     0.149368    0.012801    0.637332    0.000000
    52  Si    c     0.028286    0.868201    0.467838    0.000000
    53  Si    c     0.125652    0.139792    0.803390    0.000000
    54  Si    c     0.855635    0.971772    0.136675    0.000000
    55  Si    c     0.123696    0.964622    0.367065    0.000000
    56  Si    c     0.854438    0.879360    0.036267    0.000000
    57  Si    c     0.030981    0.137504    0.702110    0.000000
    58  Si    c     0.882019    0.019147    0.868593    0.000000
    59  Ge    c     0.152521    0.113604    0.534297    0.000000
    60  Si    c     0.976221    0.846749    0.201164    0.000000
    61  O2    c     0.932704    0.998560    0.002737    0.000000
    62  O2    c     0.001011    0.922998    0.335033    0.000000
    63  O2    c     0.076290    0.054168    0.673445    0.000000
    64  O3    c     0.061550    0.985950    0.499869    0.000000
    65  O2    c     0.007668    0.060759    0.837759    0.000000
    66  O2    c     0.933733    0.929718    0.170253    0.000000
    67  O2    c     0.342026    0.573506    0.334337    0.000000
    68  O2    c     0.422254    0.744647    0.668463    0.000000
    69  O2    c     0.238983    0.652792    0.001063    0.000000
    70  O2    c     0.666317    0.412454    0.829154    0.000000
    71  O2    c     0.583889    0.238177    0.168280    0.000000
    72  O2    c     0.766409    0.334479    0.499663    0.000000
    73  O3    c     0.580786    0.337600    0.002400    0.000000
    74  O2    c     0.761921    0.405413    0.666004    0.000000
    75  O2    c     0.659774    0.231827    0.334194    0.000000
    76  O2    c     0.425854    0.654764    0.501248    0.000000
    77  O2    c     0.244040    0.577485    0.167685    0.000000
    78  O2    c     0.348050    0.750399    0.834855    0.000000
    79  O2    c     0.119264    0.208154    0.974846    0.000000
    80  O2    c     0.789269    0.906477    0.306793    0.000000
    81  O2    c     0.088146    0.858746    0.642984    0.000000
    82  O2    c     0.874806    0.775191    0.472278    0.000000
    83  O2    c     0.215888    0.074538    0.805929    0.000000
    84  O2    c     0.917534    0.125323    0.141849    0.000000
    85  O2    c     0.213540    0.119306    0.363367    0.000000
    86  O2    c     0.911248    0.783082    0.029093    0.000000
    87  O2    c     0.877153    0.072957    0.695064    0.000000
    88  O2    c     0.792846    0.864576    0.864636    0.000000
    89  O3    c     0.089890    0.213919    0.524988    0.000000
    90  O2    c     0.130074    0.909919    0.195047    0.000000
    91  O2    c     0.937512    0.856829    0.252140    0.000000
    92  O3    c     0.125882    0.052926    0.588565    0.000000
    93  O2    c     0.927758    0.062727    0.919302    0.000000
    94  O2    c     0.067294    0.132529    0.754074    0.000000
    95  O2    c     0.874040    0.932439    0.086760    0.000000
    96  O2    c     0.071385    0.921123    0.417403    0.000000
    97  O2    c     0.897569    0.199279    0.981810    0.000000
    98  O2    c     0.797050    0.691421    0.313595    0.000000
    99  O2    c     0.302973    0.081154    0.646429    0.000000
   100  O2    c     0.103101    0.791808    0.482032    0.000000
   101  O2    c     0.212224    0.290338    0.815958    0.000000
   102  O2    c     0.703286    0.901530    0.147603    0.000000
   103  O2    c     0.206694    0.896587    0.354194    0.000000
   104  O2    c     0.702432    0.807289    0.024467    0.000000
   105  O2    c     0.100397    0.286723    0.686826    0.000000
   106  O2    c     0.800234    0.086982    0.853417    0.000000
   107  O3    c     0.314865    0.198883    0.523277    0.000000
   108  O2    c     0.906594    0.696560    0.188067    0.000000
   109  O2    c     0.326990    0.641257    0.250864    0.000000
   110  O2    c     0.358915    0.668025    0.585010    0.000000
   111  O2    c     0.329499    0.663507    0.918629    0.000000
   112  O2    c     0.679055    0.339215    0.748314    0.000000
   113  O2    c     0.650706    0.324992    0.085780    0.000000
   114  O2    c     0.680473    0.314813    0.416812    0.000000
   115  O3    c     0.364817    0.307882    0.976029    0.000000
   116  O2    c     0.672202    0.037815    0.305240    0.000000
   117  O2    c     0.958003    0.612366    0.639129    0.000000
   118  O2    c     0.628063    0.662119    0.471059    0.000000
   119  O2    c     0.334578    0.944455    0.805101    0.000000
   120  O2    c     0.049378    0.372419    0.139487    0.000000
   121  O2    c     0.330038    0.367079    0.365040    0.000000
   122  O2    c     0.046308    0.667704    0.030575    0.000000
   123  O2    c     0.628297    0.939095    0.697171    0.000000
   124  O2    c     0.680300    0.615233    0.866649    0.000000
   125  O2    c     0.959879    0.326927    0.529823    0.000000
   126  O2    c     0.377969    0.042208    0.197005    0.000000
   127  O2    c     0.771598    0.300540    0.013862    0.000000
   128  O2    c     0.695023    0.458808    0.344411    0.000000
   129  O2    c     0.533529    0.213491    0.676721    0.000000
   130  O2    c     0.234838    0.693578    0.513013    0.000000
   131  O2    c     0.314070    0.521767    0.848208    0.000000
   132  O2    c     0.471994    0.768195    0.178401    0.000000
   133  O2    c     0.306390    0.765262    0.323455    0.000000
   134  O2    c     0.471153    0.691539    0.990783    0.000000
   135  O2    c     0.230984    0.517874    0.656827    0.000000
   136  O2    c     0.697633    0.215635    0.822061    0.000000
   137  O2    c     0.538149    0.295790    0.489985    0.000000
   138  O2    c     0.776726    0.465881    0.158213    0.000000
   139  O2    c     0.788781    0.532084    0.028742    0.000000
   140  O2    c     0.464786    0.241874    0.363977    0.000000
   141  O2    c     0.749417    0.197453    0.693830    0.000000
   142  O2    c     0.220243    0.462048    0.528465    0.000000
   143  O2    c     0.539302    0.729261    0.867581    0.000000
   144  O2    c     0.255580    0.783246    0.195718    0.000000
   145  O2    c     0.537923    0.778548    0.306268    0.000000
   146  O2    c     0.262233    0.459933    0.974108    0.000000
   147  O2    c     0.217279    0.736306    0.640938    0.000000
   148  O2    c     0.467770    0.204069    0.804255    0.000000
   149  O2    c     0.753230    0.526506    0.471722    0.000000
   150  O2    c     0.789909    0.249524    0.140425    0.000000
   151  O2    c     0.242269    0.316143    0.901461    0.000000
   152  O2    c     0.680317    0.904814    0.232378    0.000000
   153  O2    c     0.094851    0.760707    0.567240    0.000000
   154  O2    c     0.767779    0.668300    0.397932    0.000000
   155  O2    c     0.325085    0.076347    0.731387    0.000000
   156  O2    c     0.914088    0.230538    0.066823    0.000000
   157  O2    c     0.322774    0.224667    0.438260    0.000000
   158  O2    c     0.910479    0.673577    0.103177    0.000000
   159  O2    c     0.770657    0.077528    0.768817    0.000000
   160  O2    c     0.682565    0.751882    0.939812    0.000000
   161  O2    c     0.097528    0.313311    0.601445    0.000000
   162  O2    c     0.235719    0.905639    0.269464    0.000000
   163  O3    c     0.601504    0.564818    0.001969    0.000000
   164  O2    c     0.443633    0.023979    0.325034    0.000000
   165  O2    c     0.971152    0.395464    0.656736    0.000000
   166  O2    c     0.415831    0.435186    0.492539    0.000000
   167  O2    c     0.563384    0.956215    0.824602    0.000000
   168  O2    c     0.035955    0.588430    0.158722    0.000000
   169  O2    c     0.557986    0.579810    0.343680    0.000000
   170  O2    c     0.031142    0.437638    0.010673    0.000000
   171  O2    c     0.415107    0.955358    0.676653    0.000000
   172  O2    c     0.451255    0.404083    0.847276    0.000000
   173  O2    c     0.974550    0.555304    0.510790    0.000000
   174  O2    c     0.591172    0.026906    0.177133    0.000000
   175  O2    c     0.585846    0.162137    0.251109    0.000000
   176  O2    c     0.835321    0.409608    0.583334    0.000000
   177  O3    c     0.603617    0.401774    0.915238    0.000000
   178  O2    c     0.419371    0.818963    0.751297    0.000000
   179  O2    c     0.171592    0.580559    0.084397    0.000000
   180  O2    c     0.417711    0.576052    0.417998    0.000000
   181  F     c     0.456520    0.901120    0.251528    0.000000
   182  F     c     0.098245    0.538915    0.584884    0.000000
   183  F     c     0.477737    0.515579    0.928722    0.000000
   184  F     c     0.548258    0.078526    0.750705    0.000000
   185  F     c     0.915928    0.453894    0.085590    0.000000
   186  F     c     0.547748    0.443262    0.418558    0.000000
   187  O2    s     0.927691    0.998538    0.002771    0.000000
   188  O2    s     0.001361    0.918816    0.334934    0.000000
   189  O2    s     0.079192    0.059076    0.672727    0.000000
   190  O3    s     0.065933    0.984366    0.499413    0.000000
   191  O2    s     0.006928    0.064907    0.837340    0.000000
   192  O2    s     0.929719    0.925077    0.169958    0.000000
   193  O2    s     0.353863    0.580896    0.334345    0.000000
   194  O2    s     0.414935    0.749316    0.668358    0.000000
   195  O2    s     0.235816    0.641271    0.001090    0.000000
   196  O2    s     0.654917    0.403736    0.829826    0.000000
   197  O2    s     0.591269    0.233664    0.168258    0.000000
   198  O2    s     0.770310    0.346395    0.499701    0.000000
   199  O3    s     0.590453    0.347854    0.003340    0.000000
   200  O2    s     0.766177    0.397763    0.666129    0.000000
   201  O2    s     0.648004    0.227691    0.334281    0.000000
   202  O2    s     0.417932    0.642853    0.501346    0.000000
   203  O2    s     0.239924    0.585122    0.167809    0.000000
   204  O2    s     0.359458    0.754069    0.835063    0.000000
   205  O2    s     0.116781    0.210998    0.972265    0.000000
   206  O2    s     0.785919    0.899668    0.304227    0.000000
   207  O2    s     0.094840    0.862154    0.640178    0.000000
   208  O2    s     0.877917    0.771910    0.469686    0.000000
   209  O2    s     0.219402    0.081647    0.803599    0.000000
   210  O2    s     0.910823    0.121840    0.139178    0.000000
   211  O2    s     0.217068    0.115838    0.365821    0.000000
   212  O2    s     0.905308    0.780331    0.031846    0.000000
   213  O2    s     0.880217    0.079715    0.697797    0.000000
   214  O2    s     0.789573    0.867641    0.867202    0.000000
   215  O3    s     0.095391    0.218078    0.527991    0.000000
   216  O2    s     0.126819    0.903136    0.197758    0.000000
   217  O2    s     0.935407    0.854158    0.252074    0.000000
   218  O3    s     0.130727    0.053798    0.589187    0.000000
   219  O2    s     0.926912    0.063829    0.919105    0.000000
   220  O2    s     0.069860    0.133891    0.753857    0.000000
   221  O2    s     0.869721    0.930824    0.086633    0.000000
   222  O2    s     0.072479    0.920093    0.417361    0.000000
   223  O2    s     0.905752    0.200431    0.984347    0.000000
   224  O2    s     0.795680    0.697443    0.316296    0.000000
   225  O2    s     0.296973    0.073996    0.649415    0.000000
   226  O2    s     0.094912    0.789582    0.484540    0.000000
   227  O2    s     0.213195    0.284262    0.818606    0.000000
   228  O2    s     0.709426    0.908943    0.150364    0.000000
   229  O2    s     0.207892    0.904136    0.351631    0.000000
   230  O2    s     0.708950    0.803627    0.022096    0.000000
   231  O2    s     0.092767    0.280697    0.684509    0.000000
   232  O2    s     0.798745    0.079272    0.851050    0.000000
   233  O3    s     0.309868    0.201049    0.520452    0.000000
   234  O2    s     0.914293    0.702861    0.185570    0.000000
   235  O2    s     0.332727    0.652838    0.250897    0.000000
   236  O2    s     0.347263    0.662268    0.584978    0.000000
   237  O2    s     0.335011    0.658827    0.918588    0.000000
   238  O2    s     0.673137    0.327601    0.748385    0.000000
   239  O2    s     0.661557    0.329880    0.085925    0.000000
   240  O2    s     0.674363    0.320668    0.416898    0.000000
   241  O3    s     0.363750    0.317622    0.973240    0.000000
   242  O2    s     0.662149    0.031163    0.302936    0.000000
   243  O2    s     0.964787    0.609193    0.636768    0.000000
   244  O2    s     0.624611    0.652007    0.468830    0.000000
   245  O2    s     0.344520    0.950944    0.802719    0.000000
   246  O2    s     0.042598    0.375819    0.137148    0.000000
   247  O2    s     0.340032    0.370292    0.367209    0.000000
   248  O2    s     0.039551    0.657316    0.032813    0.000000
   249  O2    s     0.624997    0.946010    0.699296    0.000000
   250  O2    s     0.671285    0.612779    0.868681    0.000000
   251  O2    s     0.966541    0.337109    0.531977    0.000000
   252  O2    s     0.381254    0.035375    0.199235    0.000000
   253  O2    s     0.779109    0.307935    0.016640    0.000000
   254  O2    s     0.687703    0.458379    0.347536    0.000000
   255  O2    s     0.534293    0.206511    0.679853    0.000000
   256  O2    s     0.227771    0.685537    0.516030    0.000000
   257  O2    s     0.321060    0.522629    0.850974    0.000000
   258  O2    s     0.471309    0.775144    0.181485    0.000000
   259  O2    s     0.314048    0.772354    0.320331    0.000000
   260  O2    s     0.469955    0.683894    0.988435    0.000000
   261  O2    s     0.224234    0.518777    0.653697    0.000000
   262  O2    s     0.690401    0.208732    0.818908    0.000000
   263  O2    s     0.538789    0.303748    0.486865    0.000000
   264  O2    s     0.783526    0.465450    0.154982    0.000000
   265  O2    s     0.793792    0.530235    0.031455    0.000000
   266  O2    s     0.467598    0.249894    0.366397    0.000000
   267  O2    s     0.741826    0.192608    0.696525    0.000000
   268  O2    s     0.215198    0.464924    0.531073    0.000000
   269  O2    s     0.536683    0.723185    0.869587    0.000000
   270  O2    s     0.263381    0.788261    0.198302    0.000000
   271  O2    s     0.535112    0.783882    0.303665    0.000000
   272  O2    s     0.268322    0.462978    0.971951    0.000000
   273  O2    s     0.212121    0.728396    0.638280    0.000000
   274  O2    s     0.470424    0.198586    0.801742    0.000000
   275  O2    s     0.745002    0.523691    0.469119    0.000000
   276  O2    s     0.795164    0.257506    0.137851    0.000000
   277  O2    s     0.250619    0.324638    0.901898    0.000000
   278  O2    s     0.670611    0.904568    0.233296    0.000000
   279  O2    s     0.094979    0.751117    0.568065    0.000000
   280  O2    s     0.758460    0.658648    0.398865    0.000000
   281  O2    s     0.334771    0.076729    0.732346    0.000000
   282  O2    s     0.913402    0.239869    0.067730    0.000000
   283  O2    s     0.332590    0.233833    0.437225    0.000000
   284  O2    s     0.910509    0.664036    0.102361    0.000000
   285  O2    s     0.761083    0.077595    0.767922    0.000000
   286  O2    s     0.674206    0.744795    0.938651    0.000000
   287  O2    s     0.097205    0.322982    0.600832    0.000000
   288  O2    s     0.245217    0.905329    0.268601    0.000000
   289  O3    s     0.597615    0.569994    0.998198    0.000000
   290  O2    s     0.443445    0.019020    0.321604    0.000000
   291  O2    s     0.976411    0.400740    0.653502    0.000000
   292  O2    s     0.420528    0.434989    0.489134    0.000000
   293  O2    s     0.563266    0.961389    0.821180    0.000000
   294  O2    s     0.030683    0.583326    0.155347    0.000000
   295  O2    s     0.558459    0.575286    0.347009    0.000000
   296  O2    s     0.026188    0.437624    0.014129    0.000000
   297  O2    s     0.419621    0.960145    0.680023    0.000000
   298  O2    s     0.450011    0.407301    0.850029    0.000000
   299  O2    s     0.979364    0.555156    0.514128    0.000000
   300  O2    s     0.586603    0.022010    0.180499    0.000000
   301  O2    s     0.580365    0.151116    0.251120    0.000000
   302  O2    s     0.846548    0.414850    0.583384    0.000000
   303  O3    s     0.598324    0.409068    0.913370    0.000000
   304  O2    s     0.425062    0.830164    0.751275    0.000000
   305  O2    s     0.160084    0.574969    0.084452    0.000000
   306  O2    s     0.423282    0.570602    0.418015    0.000000
   307  F     s     0.456425    0.900836    0.251601    0.000000
   308  F     s     0.098536    0.539099    0.584945    0.000000
   309  F     s     0.481712    0.509232    0.931320    0.000000
   310  F     s     0.548239    0.078573    0.750787    0.000000
   311  F     s     0.916590    0.454147    0.085663    0.000000
   312  F     s     0.547841    0.442939    0.418675    0.000000
--------------------------------------------------------------------------------

  Final Cartesian lattice vectors (Angstroms) :

       11.946347    0.001435    0.002989
       -5.915927   10.383293    0.000596
       -0.070077    0.219184   29.462798


  Final cell parameters and derivatives :

--------------------------------------------------------------------------------
       a           11.946348 Angstrom     dE/de1(xx)     0.004967 eV/strain
       b           11.950354 Angstrom     dE/de2(yy)     0.004657 eV/strain
       c           29.463697 Angstrom     dE/de3(zz)     0.006437 eV/strain
       alpha       89.559341 Degrees      dE/de4(yz)    -0.000208 eV/strain
       beta        90.121886 Degrees      dE/de5(xz)     0.000538 eV/strain
       gamma      119.665635 Degrees      dE/de6(xy)    -0.000502 eV/strain
--------------------------------------------------------------------------------

  Primitive cell volume =          3654.883552 Angs**3

  Density of cell =      1.730333 g/cm**3

  Non-primitive cell volume =          3654.883552 Angs**3


  Final internal derivatives :

--------------------------------------------------------------------------------
   No.  Atomic          a             b             c           Radius
        Label          (eV)          (eV)          (eV)        (eV/Angs)
--------------------------------------------------------------------------------
      1 Si    c       0.000000      0.000000      0.000000      0.000000
      2 Si    c      -0.000078      0.000050      0.000007      0.000000
      3 Si    c      -0.000089      0.000246      0.000014      0.000000
      4 Si    c      -0.000282      0.000437      0.000585      0.000000
      5 Si    c       0.000104      0.000016     -0.000849      0.000000
      6 Si    c      -0.000388      0.000448     -0.000052      0.000000
      7 Si    c      -0.000310      0.000391      0.000565      0.000000
      8 Si    c       0.000209     -0.000220      0.000686      0.000000
      9 Si    c      -0.000219      0.000427     -0.000238      0.000000
     10 Si    c      -0.000172      0.000514      0.000015      0.000000
     11 Si    c      -0.000358      0.000510     -0.000005      0.000000
     12 Si    c       0.000872     -0.000154      0.003915      0.000000
     13 Ge    c      -0.004962      0.005646     -0.005662      0.000000
     14 Si    c      -0.000052     -0.000082      0.000889      0.000000
     15 Si    c      -0.000021      0.000448     -0.000347      0.000000
     16 Si    c      -0.000135      0.000158      0.000211      0.000000
     17 Si    c      -0.000135      0.000279      0.000524      0.000000
     18 Si    c      -0.000394      0.000036     -0.000689      0.000000
     19 Si    c      -0.000276      0.000252      0.000048      0.000000
     20 Si    c       0.000831      0.000071      0.000642      0.000000
     21 Si    c      -0.000164      0.000505     -0.000254      0.000000
     22 Si    c      -0.000339      0.001019     -0.003993      0.000000
     23 Si    c      -0.000096      0.000481      0.000479      0.000000
     24 Si    c      -0.000136     -0.000905     -0.000565      0.000000
     25 Si    c      -0.000006      0.000643     -0.001654      0.000000
     26 Si    c      -0.000176      0.000409     -0.001290      0.000000
     27 Si    c      -0.000216      0.000404      0.000191      0.000000
     28 Si    c      -0.000303      0.000159     -0.000027      0.000000
     29 Si    c      -0.000091      0.000406     -0.000258      0.000000
     30 Si    c       0.001551     -0.002011     -0.002414      0.000000
     31 Si    c      -0.000143      0.000424      0.000588      0.000000
     32 Si    c       0.000113      0.000135      0.001374      0.000000
     33 Si    c      -0.000232      0.000399      0.000017      0.000000
     34 Si    c       0.000261      0.000778      0.001576      0.000000
     35 Si    c      -0.000184      0.000522      0.000112      0.000000
     36 Si    c      -0.000044      0.000019      0.000694      0.000000
     37 Si    c       0.001102      0.000120     -0.000489      0.000000
     38 Si    c      -0.000315      0.000390      0.000288      0.000000
     39 Si    c      -0.000078      0.000363      0.000042      0.000000
     40 Si    c      -0.000248      0.000318      0.000675      0.000000
     41 Si    c      -0.000147      0.000398      0.000024      0.000000
     42 Si    c       0.000130     -0.000134      0.002878      0.000000
     43 Si    c      -0.000278      0.000246      0.000136      0.000000
     44 Si    c      -0.001091      0.002489      0.001593      0.000000
     45 Si    c      -0.000183      0.000455     -0.000370      0.000000
     46 Si    c      -0.000226      0.000138      0.000319      0.000000
     47 Si    c      -0.000097      0.000381      0.000432      0.000000
     48 Si    c       0.000173     -0.000217     -0.000699      0.000000
     49 Si    c      -0.000216      0.000458      0.004095      0.000000
     50 Si    c      -0.001028      0.000466      0.003892      0.000000
     51 Si    c       0.000104      0.000252      0.000524      0.000000
     52 Si    c      -0.000157     -0.000594      0.000885      0.000000
     53 Si    c      -0.000127      0.000618      0.000274      0.000000
     54 Si    c      -0.000508     -0.000178     -0.000059      0.000000
     55 Si    c      -0.000026      0.000045     -0.000364      0.000000
     56 Si    c      -0.000805      0.000248      0.002793      0.000000
     57 Si    c      -0.000403      0.000696     -0.000772      0.000000
     58 Si    c      -0.000633     -0.000438     -0.007445      0.000000
     59 Ge    c      -0.000099      0.000610      0.000856      0.000000
     60 Si    c      -0.000191     -0.000267     -0.001277      0.000000
     61 O2    c       0.001115      0.001474     -0.005189      0.000000
     62 O2    c      -0.000072      0.000295      0.000148      0.000000
     63 O2    c      -0.000190      0.000327      0.000294      0.000000
     64 O3    c      -0.000967      0.001381      0.001771      0.000000
     65 O2    c      -0.000120      0.000281      0.000418      0.000000
     66 O2    c       0.000321     -0.000297      0.000812      0.000000
     67 O2    c      -0.000215      0.000117      0.000177      0.000000
     68 O2    c      -0.000099      0.000478      0.000182      0.000000
     69 O2    c      -0.000270      0.000390      0.000329      0.000000
     70 O2    c      -0.000097      0.000414      0.000030      0.000000
     71 O2    c      -0.001068      0.000478      0.000317      0.000000
     72 O2    c      -0.000136      0.000242      0.000063      0.000000
     73 O3    c      -0.001911     -0.003603     -0.003707      0.000000
     74 O2    c      -0.000233      0.000550      0.000003      0.000000
     75 O2    c      -0.000231      0.000283      0.000029      0.000000
     76 O2    c      -0.000153      0.000375      0.000283      0.000000
     77 O2    c      -0.000137     -0.000094     -0.000175      0.000000
     78 O2    c      -0.000275      0.000575     -0.000199      0.000000
     79 O2    c      -0.000493     -0.000859      0.001105      0.000000
     80 O2    c      -0.000217      0.000219      0.000014      0.000000
     81 O2    c      -0.000144      0.000275      0.000084      0.000000
     82 O2    c      -0.000399      0.000323      0.000447      0.000000
     83 O2    c      -0.000105      0.000323     -0.000011      0.000000
     84 O2    c      -0.000294      0.000829      0.000209      0.000000
     85 O2    c      -0.000207      0.000354      0.000239      0.000000
     86 O2    c       0.001665     -0.002101     -0.001565      0.000000
     87 O2    c      -0.000206      0.000422     -0.000145      0.000000
     88 O2    c      -0.000172      0.000342     -0.000242      0.000000
     89 O3    c      -0.000365      0.000551      0.000902      0.000000
     90 O2    c      -0.000510      0.000218     -0.000319      0.000000
     91 O2    c       0.000721     -0.000250     -0.005711      0.000000
     92 O3    c      -0.000670      0.000474     -0.001164      0.000000
     93 O2    c       0.000679      0.000414      0.006696      0.000000
     94 O2    c      -0.000097      0.000418      0.001318      0.000000
     95 O2    c       0.000119      0.000060     -0.000335      0.000000
     96 O2    c      -0.000145      0.000472     -0.002537      0.000000
     97 O2    c      -0.000399      0.000441      0.000320      0.000000
     98 O2    c      -0.000241     -0.000063     -0.000044      0.000000
     99 O2    c      -0.000135      0.000457      0.000089      0.000000
    100 O2    c       0.000129      0.000201      0.000092      0.000000
    101 O2    c      -0.000265      0.000357     -0.000188      0.000000
    102 O2    c      -0.000635      0.000234      0.000104      0.000000
    103 O2    c      -0.000304      0.000218      0.000286      0.000000
    104 O2    c      -0.001347      0.000026     -0.001506      0.000000
    105 O2    c      -0.000151      0.000688      0.000106      0.000000
    106 O2    c      -0.000626      0.000831     -0.000057      0.000000
    107 O3    c      -0.000212      0.000362      0.000994      0.000000
    108 O2    c      -0.000198     -0.000038      0.000048      0.000000
    109 O2    c      -0.000221     -0.000049      0.000099      0.000000
    110 O2    c      -0.000171      0.000459     -0.000074      0.000000
    111 O2    c      -0.000351      0.000660     -0.000901      0.000000
    112 O2    c      -0.000151      0.000490     -0.000173      0.000000
    113 O2    c      -0.001402      0.000274     -0.004652      0.000000
    114 O2    c      -0.000184      0.000182     -0.000010      0.000000
    115 O3    c      -0.000011      0.000307      0.000754      0.000000
    116 O2    c      -0.000254      0.000202     -0.000169      0.000000
    117 O2    c      -0.000164      0.000453     -0.000039      0.000000
    118 O2    c      -0.000158      0.000287      0.000142      0.000000
    119 O2    c      -0.000175      0.000394      0.000080      0.000000
    120 O2    c      -0.000138     -0.000076     -0.000026      0.000000
    121 O2    c      -0.000279      0.000289      0.000129      0.000000
    122 O2    c       0.000530      0.000271     -0.000457      0.000000
    123 O2    c      -0.000106      0.000435     -0.000174      0.000000
    124 O2    c      -0.000157      0.000338     -0.000071      0.000000
    125 O2    c      -0.000221      0.000451      0.000179      0.000000
    126 O2    c      -0.000264      0.000133     -0.000265      0.000000
    127 O2    c      -0.002634      0.000655     -0.002047      0.000000
    128 O2    c      -0.000227      0.000286     -0.000117      0.000000
    129 O2    c      -0.000185      0.000423     -0.000177      0.000000
    130 O2    c      -0.000133      0.000389      0.000134      0.000000
    131 O2    c      -0.000308      0.000624      0.000077      0.000000
    132 O2    c      -0.000472     -0.000135     -0.000165      0.000000
    133 O2    c      -0.000192      0.000139     -0.000050      0.000000
    134 O2    c      -0.001059      0.000721     -0.000202      0.000000
    135 O2    c      -0.000126      0.000477      0.000047      0.000000
    136 O2    c      -0.000058      0.000323      0.000199      0.000000
    137 O2    c      -0.000251      0.000309      0.000180      0.000000
    138 O2    c      -0.000271      0.000138      0.000707      0.000000
    139 O2    c      -0.002934      0.000429     -0.002379      0.000000
    140 O2    c      -0.000317      0.000153      0.000033      0.000000
    141 O2    c      -0.000155      0.000465     -0.000140      0.000000
    142 O2    c      -0.000147      0.000381      0.000314      0.000000
    143 O2    c      -0.000101      0.000318     -0.000199      0.000000
    144 O2    c      -0.000270      0.000163      0.000148      0.000000
    145 O2    c      -0.000309      0.000104      0.000221      0.000000
    146 O2    c      -0.000543      0.001274      0.001039      0.000000
    147 O2    c      -0.000150      0.000485     -0.000044      0.000000
    148 O2    c      -0.000274      0.000407      0.000048      0.000000
    149 O2    c      -0.000190      0.000244      0.000322      0.000000
    150 O2    c       0.000255     -0.000535      0.000332      0.000000
    151 O2    c      -0.000367     -0.000094      0.002183      0.000000
    152 O2    c       0.000103     -0.000033      0.000864      0.000000
    153 O2    c      -0.000131      0.000398     -0.000148      0.000000
    154 O2    c      -0.000231      0.000313     -0.000059      0.000000
    155 O2    c      -0.000247      0.000494     -0.000043      0.000000
    156 O2    c       0.000389     -0.000617     -0.002497      0.000000
    157 O2    c      -0.000312      0.000205     -0.000514      0.000000
    158 O2    c      -0.000426      0.000503     -0.000542      0.000000
    159 O2    c      -0.000035      0.000336      0.000005      0.000000
    160 O2    c       0.000376      0.000276     -0.002720      0.000000
    161 O2    c      -0.000191      0.000471     -0.000189      0.000000
    162 O2    c      -0.000562      0.000301      0.000017      0.000000
    163 O3    c       0.003050     -0.002157      0.004807      0.000000
    164 O2    c      -0.000221      0.000221     -0.000060      0.000000
    165 O2    c      -0.000129      0.000451      0.000085      0.000000
    166 O2    c      -0.000282      0.000421      0.000227      0.000000
    167 O2    c      -0.000085      0.000345      0.000099      0.000000
    168 O2    c      -0.000544      0.000288      0.000396      0.000000
    169 O2    c      -0.000217      0.000224      0.000034      0.000000
    170 O2    c       0.000470     -0.000068     -0.001107      0.000000
    171 O2    c      -0.000101      0.000370     -0.000061      0.000000
    172 O2    c       0.000007      0.000362     -0.000184      0.000000
    173 O2    c      -0.000227      0.000474      0.000111      0.000000
    174 O2    c      -0.000342      0.000420     -0.000278      0.000000
    175 O2    c      -0.000219      0.000530      0.000565      0.000000
    176 O2    c      -0.000155      0.000455      0.000068      0.000000
    177 O3    c       0.001481     -0.001384      0.000299      0.000000
    178 O2    c      -0.000100      0.000275     -0.000253      0.000000
    179 O2    c      -0.000002      0.000017      0.000855      0.000000
    180 O2    c      -0.000279      0.000304      0.000017      0.000000
    181 F     c      -0.000171      0.000195     -0.000461      0.000000
    182 F     c      -0.000144      0.000475     -0.000014      0.000000
    183 F     c      -0.000255      0.000424      0.001158      0.000000
    184 F     c      -0.000152      0.000450      0.000115      0.000000
    185 F     c      -0.000022     -0.000064      0.001152      0.000000
    186 F     c      -0.000259      0.000220      0.000114      0.000000
    187 O2    s       0.000229      0.000375      0.000182      0.000000
    188 O2    s      -0.000267      0.000563      0.000730      0.000000
    189 O2    s       0.000081      0.000283      0.000154      0.000000
    190 O3    s      -0.000147      0.000598     -0.001360      0.000000
    191 O2    s       0.000467     -0.000178     -0.001327      0.000000
    192 O2    s      -0.000006     -0.000052      0.000997      0.000000
    193 O2    s      -0.000226      0.000198      0.000078      0.000000
    194 O2    s      -0.000133      0.000426     -0.000119      0.000000
    195 O2    s      -0.000062      0.000238      0.000209      0.000000
    196 O2    s      -0.000105      0.000262      0.000219      0.000000
    197 O2    s      -0.000061     -0.000024      0.000869      0.000000
    198 O2    s      -0.000191      0.000400      0.000001      0.000000
    199 O3    s       0.000596      0.003758      0.002415      0.000000
    200 O2    s      -0.000129      0.000414      0.000005      0.000000
    201 O2    s      -0.000313      0.000223      0.000011      0.000000
    202 O2    s      -0.000271      0.000395     -0.000415      0.000000
    203 O2    s       0.000004      0.000033      0.000144      0.000000
    204 O2    s      -0.000153      0.000318     -0.000017      0.000000
    205 O2    s      -0.000083      0.000462      0.000440      0.000000
    206 O2    s      -0.000510      0.000755      0.000497      0.000000
    207 O2    s      -0.000069      0.000354      0.000024      0.000000
    208 O2    s      -0.000456      0.000122     -0.000679      0.000000
    209 O2    s      -0.000058      0.000272      0.000124      0.000000
    210 O2    s      -0.000011     -0.000083      0.000180      0.000000
    211 O2    s      -0.000244      0.000300     -0.000353      0.000000
    212 O2    s      -0.000141     -0.000002      0.002161      0.000000
    213 O2    s      -0.000357      0.000575      0.000142      0.000000
    214 O2    s       0.000193     -0.000622     -0.000406      0.000000
    215 O3    s      -0.000235      0.000505     -0.001363      0.000000
    216 O2    s      -0.000343      0.000182     -0.000035      0.000000
    217 O2    s      -0.000549      0.000217      0.000812      0.000000
    218 O3    s       0.000260      0.000355      0.000816      0.000000
    219 O2    s      -0.000195      0.000395     -0.000677      0.000000
    220 O2    s      -0.000019      0.000274     -0.000418      0.000000
    221 O2    s      -0.000681      0.000552      0.001511      0.000000
    222 O2    s      -0.000420      0.000431      0.000136      0.000000
    223 O2    s       0.000374     -0.000149     -0.001433      0.000000
    224 O2    s      -0.000271     -0.000208      0.000451      0.000000
    225 O2    s      -0.000162      0.000518     -0.000130      0.000000
    226 O2    s       0.000086     -0.000049      0.000452      0.000000
    227 O2    s       0.000045      0.000200     -0.000572      0.000000
    228 O2    s      -0.000337     -0.000110     -0.000323      0.000000
    229 O2    s      -0.000177      0.000313      0.000067      0.000000
    230 O2    s      -0.001215      0.000989      0.001946      0.000000
    231 O2    s      -0.000241      0.000610     -0.000544      0.000000
    232 O2    s      -0.000849      0.001000     -0.000425      0.000000
    233 O3    s      -0.000194      0.000202     -0.001237      0.000000
    234 O2    s      -0.000400      0.000156      0.000101      0.000000
    235 O2    s      -0.000190      0.000127      0.000318      0.000000
    236 O2    s      -0.000126      0.000453      0.000096      0.000000
    237 O2    s      -0.000330      0.000353     -0.000155      0.000000
    238 O2    s      -0.000146      0.000305      0.000471      0.000000
    239 O2    s       0.000132      0.000252     -0.000957      0.000000
    240 O2    s      -0.000320      0.000313     -0.000286      0.000000
    241 O3    s       0.000366     -0.000394     -0.000894      0.000000
    242 O2    s      -0.000177      0.000260      0.000344      0.000000
    243 O2    s      -0.000173      0.000521      0.000145      0.000000
    244 O2    s      -0.000288      0.000334     -0.000274      0.000000
    245 O2    s      -0.000112      0.000355     -0.000065      0.000000
    246 O2    s       0.000165     -0.000272      0.000610      0.000000
    247 O2    s      -0.000182      0.000176     -0.000170      0.000000
    248 O2    s      -0.000503     -0.000339     -0.000127      0.000000
    249 O2    s      -0.000194      0.000455      0.000371      0.000000
    250 O2    s       0.000072      0.000066     -0.000147      0.000000
    251 O2    s      -0.000123      0.000382     -0.000321      0.000000
    252 O2    s      -0.000401      0.000287      0.000593      0.000000
    253 O2    s      -0.000569      0.001877      0.003119      0.000000
    254 O2    s      -0.000276      0.000200      0.000196      0.000000
    255 O2    s      -0.000174      0.000474      0.000279      0.000000
    256 O2    s      -0.000211      0.000432     -0.000248      0.000000
    257 O2    s      -0.000493      0.000589     -0.000433      0.000000
    258 O2    s      -0.000061      0.000179      0.000069      0.000000
    259 O2    s      -0.000235      0.000102      0.000361      0.000000
    260 O2    s      -0.000098      0.000063      0.001330      0.000000
    261 O2    s      -0.000150      0.000439      0.000007      0.000000
    262 O2    s      -0.000224      0.000448     -0.000115      0.000000
    263 O2    s      -0.000285      0.000283     -0.000221      0.000000
    264 O2    s      -0.000858      0.000881      0.000402      0.000000
    265 O2    s       0.003499     -0.003988     -0.000145      0.000000
    266 O2    s      -0.000238      0.000374      0.000007      0.000000
    267 O2    s      -0.000113      0.000433      0.000335      0.000000
    268 O2    s      -0.000271      0.000439     -0.000498      0.000000
    269 O2    s      -0.000244      0.000411      0.000126      0.000000
    270 O2    s      -0.000374      0.000121     -0.000372      0.000000
    271 O2    s      -0.000178      0.000190      0.000192      0.000000
    272 O2    s      -0.000507      0.000067     -0.000107      0.000000
    273 O2    s      -0.000193      0.000484      0.000123      0.000000
    274 O2    s       0.000005      0.000264      0.000022      0.000000
    275 O2    s      -0.000210      0.000333     -0.000459      0.000000
    276 O2    s       0.000116     -0.000150     -0.000250      0.000000
    277 O2    s       0.000043      0.000253     -0.000692      0.000000
    278 O2    s      -0.000407      0.000291     -0.000431      0.000000
    279 O2    s      -0.000188      0.000537      0.000171      0.000000
    280 O2    s      -0.000200      0.000223      0.000080      0.000000
    281 O2    s      -0.000048      0.000280      0.000117      0.000000
    282 O2    s      -0.000539      0.000771      0.002149      0.000000
    283 O2    s      -0.000192      0.000336      0.000519      0.000000
    284 O2    s       0.000036     -0.000620      0.001320      0.000000
    285 O2    s      -0.000208      0.000512     -0.000001      0.000000
    286 O2    s      -0.000323      0.000832      0.000586      0.000000
    287 O2    s      -0.000170      0.000424      0.000277      0.000000
    288 O2    s      -0.000136      0.000164     -0.000042      0.000000
    289 O3    s      -0.002921      0.001085     -0.005180      0.000000
    290 O2    s      -0.000251      0.000394      0.000342      0.000000
    291 O2    s      -0.000145      0.000492     -0.000040      0.000000
    292 O2    s      -0.000194      0.000143     -0.000352      0.000000
    293 O2    s      -0.000234      0.000465     -0.000152      0.000000
    294 O2    s      -0.000329      0.000368      0.000560      0.000000
    295 O2    s      -0.000242      0.000221     -0.000055      0.000000
    296 O2    s      -0.000480      0.000609      0.000337      0.000000
    297 O2    s      -0.000234      0.000523      0.000195      0.000000
    298 O2    s       0.000470     -0.000116     -0.000081      0.000000
    299 O2    s      -0.000142      0.000376     -0.000166      0.000000
    300 O2    s      -0.000304     -0.000018      0.000395      0.000000
    301 O2    s      -0.000248     -0.000014      0.000019      0.000000
    302 O2    s      -0.000196      0.000443     -0.000016      0.000000
    303 O3    s      -0.000957      0.001288     -0.000053      0.000000
    304 O2    s      -0.000200      0.000538      0.000300      0.000000
    305 O2    s      -0.000007      0.000256     -0.000731      0.000000
    306 O2    s      -0.000221      0.000275     -0.000088      0.000000
    307 F     s      -0.000433      0.000054      0.000951      0.000000
    308 F     s      -0.000155      0.000510      0.000054      0.000000
    309 F     s       0.000936     -0.001089      0.000095      0.000000
    310 F     s      -0.000108      0.000421     -0.000061      0.000000
    311 F     s      -0.000560      0.000160     -0.002446      0.000000
    312 F     s      -0.000259      0.000251     -0.000159      0.000000
--------------------------------------------------------------------------------
  Maximum abs         0.004962      0.005646      0.007445      0.000000
--------------------------------------------------------------------------------


  Time to end of optimisation =      24.9457 seconds


  Peak dynamic memory used =      19.13 MB 


  Timing analysis for GULP :

--------------------------------------------------------------------------------
  Task / Subroutine                                          Time (Seconds)
--------------------------------------------------------------------------------
  Calculation of reciprocal space energy and derivatives          0.6710
  Calculation of real space energy and derivatives               21.5263
  Calculation of three-body energy and derivatives                2.3203
  Calculation of matrix inversion                                 0.3717
--------------------------------------------------------------------------------
  Total CPU time                                                 24.9457
--------------------------------------------------------------------------------


  Dump file written as out.res                                                 
  CIF file written as out.cif                                                 


  Job Finished at 05:54.57 23rd October    2016                               

