********************************************************************************
*                       GENERAL UTILITY LATTICE PROGRAM                        *
*                                 Julian Gale                                  *
*                      Nanochemistry Research Institute                        *
*                           Department of Chemistry                            *
*                    Curtin University, Western Australia                      *
********************************************************************************
* Version = 4.2.0 * Last modified =  20th January 2014                         *
********************************************************************************
*  optimise     - perform optimisation run                                     *
*  conp         - constant pressure calculation                                *
*  qok          - running with non charge neutral cell is OK                   *
********************************************************************************

  Job Started  at 05:24.25 23rd October    2016                               

  Number of CPUs =     1


  Total number of configurations input =   1

********************************************************************************
*  Input for Configuration =   1                                               *
********************************************************************************

  Formula = Si58Ge2O120F6                                               

  Number of irreducible atoms/shells =     312


  Total number atoms/shells =     312

  Dimensionality = 3               :  Bulk   


  Charge on solid   =  -6.000000 =>neutralising background added


  Cartesian lattice vectors (Angstroms) :

       11.960819    0.000000    0.000000
       -5.902204   10.369035    0.000000
       -0.154174    0.135074   29.475956

  Cell parameters (Angstroms/Degrees):

  a =      11.9608    alpha =  89.6236
  b =      11.9312    beta  =  90.2997
  c =      29.4767    gamma = 119.6492

  Initial cell volume =        3655.671411 Angs**3

  Temperature of configuration =  0.000     K 

  Pressure of configuration =         0.000 GPa 

  Fractional coordinates of asymmetric unit :

--------------------------------------------------------------------------------
   No.  Atomic       x           y          z         Charge      Occupancy
        Label      (Frac)      (Frac)     (Frac)        (e)         (Frac)  
--------------------------------------------------------------------------------
      1 Si    c    0.699600    0.375700    0.033890     4.00000    1.000000    
      2 Si    c    0.623136 *  0.321038 *  0.367544 *   4.00000    1.000000    
      3 Si    c    0.680679 *  0.287245 *  0.697328 *   4.00000    1.000000    
      4 Si    c    0.302073 *  0.616476 *  0.533986 *   4.00000    1.000000    
      5 Si    c    0.380251 *  0.667485 *  0.868130 *   4.00000    1.000000    
      6 Si    c    0.327533 *  0.702940 *  0.201032 *   4.00000    1.000000    
      7 Si    c    0.383243 *  0.702884 *  0.301785 *   4.00000    1.000000    
      8 Si    c    0.327303 *  0.619288 *  0.970598 *   4.00000    1.000000    
      9 Si    c    0.300699 *  0.668454 *  0.634726 *   4.00000    1.000000    
     10 Si    c    0.625174 *  0.291747 *  0.797334 *   4.00000    1.000000    
     11 Si    c    0.678752 *  0.374715 *  0.467937 *   4.00000    1.000000    
     12 Si    c    0.707106 *  0.325044 *  0.135722 *   4.00000    1.000000    
     13 Ge    c    0.532987 *  0.427891 *  0.966027 *   4.00000    1.000000    
     14 Si    c    0.585398 *  0.112028 *  0.302427 *   4.00000    1.000000    
     15 Si    c    0.890992 *  0.462996 *  0.633377 *   4.00000    1.000000    
     16 Si    c    0.474075 *  0.579299 *  0.469126 *   4.00000    1.000000    
     17 Si    c    0.423248 *  0.878312 *  0.801012 *   4.00000    1.000000    
     18 Si    c    0.117499 *  0.530995 *  0.135875 *   4.00000    1.000000    
     19 Si    c    0.420409 *  0.529625 *  0.367471 *   4.00000    1.000000    
     20 Si    c    0.114144 *  0.581065 *  0.034476 *   4.00000    1.000000    
     21 Si    c    0.475335 *  0.875954 *  0.699720 *   4.00000    1.000000    
     22 Si    c    0.592801 *  0.455993 *  0.866772 *   4.00000    1.000000    
     23 Si    c    0.890987 *  0.412584 *  0.531865 *   4.00000    1.000000    
     24 Si    c    0.533565 *  0.115104 *  0.200765 *   4.00000    1.000000    
     25 Si    c    0.306001 *  0.385791 *  0.854760 *   4.00000    1.000000    
     26 Si    c    0.604775 *  0.904754 *  0.186702 *   4.00000    1.000000    
     27 Si    c    0.100047 *  0.693235 *  0.518757 *   4.00000    1.000000    
     28 Si    c    0.700764 *  0.600243 *  0.353462 *   4.00000    1.000000    
     29 Si    c    0.402884 *  0.085053 *  0.683382 *   4.00000    1.000000    
     30 Si    c    0.905450 *  0.301792 *  0.020832 *   4.00000    1.000000    
     31 Si    c    0.401756 *  0.297869 *  0.483300 *   4.00000    1.000000    
     32 Si    c    0.908677 *  0.602814 *  0.150043 *   4.00000    1.000000    
     33 Si    c    0.700656 *  0.089474 *  0.814942 *   4.00000    1.000000    
     34 Si    c    0.611896 *  0.702347 *  0.987422 *   4.00000    1.000000    
     35 Si    c    0.099234 *  0.390500 *  0.648476 *   4.00000    1.000000    
     36 Si    c    0.306052 *  0.904450 *  0.316699 *   4.00000    1.000000    
     37 Si    c    0.253753 *  0.330792 *  0.957271 *   4.00000    1.000000    
     38 Si    c    0.663284 *  0.910533 *  0.287261 *   4.00000    1.000000    
     39 Si    c    0.091599 *  0.741212 *  0.619406 *   4.00000    1.000000    
     40 Si    c    0.752330 *  0.656861 *  0.454075 *   4.00000    1.000000    
     41 Si    c    0.346542 *  0.080491 *  0.783904 *   4.00000    1.000000    
     42 Si    c    0.916901 *  0.253367 *  0.121324 *   4.00000    1.000000    
     43 Si    c    0.342589 *  0.249835 *  0.382617 *   4.00000    1.000000    
     44 Si    c    0.911691 *  0.657129 *  0.049066 *   4.00000    1.000000    
     45 Si    c    0.753177 *  0.077363 *  0.715014 *   4.00000    1.000000    
     46 Si    c    0.665344 *  0.736389 *  0.884084 *   4.00000    1.000000    
     47 Si    c    0.093051 *  0.335372 *  0.547875 *   4.00000    1.000000    
     48 Si    c    0.256107 *  0.913466 *  0.216024 *   4.00000    1.000000    
     49 Si    c    0.971438 *  0.120437 *  0.971666 *   4.00000    1.000000    
     50 Si    c    0.881828 *  0.847988 *  0.302855 *   4.00000    1.000000    
     51 Si    c    0.154109 *  0.021146 *  0.634359 *   4.00000    1.000000    
     52 Si    c    0.031942 *  0.874611 *  0.468403 *   4.00000    1.000000    
     53 Si    c    0.128825 *  0.142140 *  0.801397 *   4.00000    1.000000    
     54 Si    c    0.853746 *  0.972835 *  0.137699 *   4.00000    1.000000    
     55 Si    c    0.125109 *  0.970630 *  0.367667 *   4.00000    1.000000    
     56 Si    c    0.854927 *  0.881474 *  0.037246 *   4.00000    1.000000    
     57 Si    c    0.033891 *  0.143103 *  0.700231 *   4.00000    1.000000    
     58 Ge    c    0.882091 *  0.021353 *  0.868045 *   4.00000    1.000000    
     59 Si    c    0.154498 *  0.116889 *  0.533525 *   4.00000    1.000000    
     60 Si    c    0.975744 *  0.849207 *  0.202093 *   4.00000    1.000000    
     61 O2    c    0.939006 *  0.005303 *  0.006514 *   0.87073    1.000000    
     62 O2    c    0.002363 *  0.928880 *  0.335696 *   0.87073    1.000000    
     63 O2    c    0.078513 *  0.063793 *  0.668634 *   0.87073    1.000000    
     64 O2    c    0.074125 *  0.995127 *  0.501412 *   0.87073    1.000000    
     65 O3    c    0.012539 *  0.058627 *  0.834325 *   1.33043    1.000000    
     66 O2    c    0.931888 *  0.932378 *  0.171916 *   0.87073    1.000000    
     67 O2    c    0.344423 *  0.579567 *  0.334849 *   0.87073    1.000000    
     68 O2    c    0.424025 *  0.749956 *  0.667666 *   0.87073    1.000000    
     69 O2    c    0.240003 *  0.656749 *  0.001673 *   0.87073    1.000000    
     70 O2    c    0.664307 *  0.417023 *  0.828338 *   0.87073    1.000000    
     71 O2    c    0.584086 *  0.241350 *  0.168523 *   0.87073    1.000000    
     72 O2    c    0.765442 *  0.335694 *  0.499854 *   0.87073    1.000000    
     73 O3    c    0.581344 *  0.340017 *  0.002313 *   1.33043    1.000000    
     74 O2    c    0.763633 *  0.410450 *  0.664776 *   0.87073    1.000000    
     75 O2    c    0.661830 *  0.237078 *  0.334837 *   0.87073    1.000000    
     76 O2    c    0.425382 *  0.655750 *  0.501732 *   0.87073    1.000000    
     77 O2    c    0.243522 *  0.580646 *  0.168307 *   0.87073    1.000000    
     78 O2    c    0.346290 *  0.753151 *  0.834105 *   0.87073    1.000000    
     79 O2    c    0.123081 *  0.214351 *  0.977102 *   0.87073    1.000000    
     80 O2    c    0.790503 *  0.911436 *  0.307182 *   0.87073    1.000000    
     81 O2    c    0.089794 *  0.866708 *  0.639509 *   0.87073    1.000000    
     82 O2    c    0.878268 *  0.783247 *  0.473939 *   0.87073    1.000000    
     83 O2    c    0.221222 *  0.079778 *  0.804268 *   0.87073    1.000000    
     84 O2    c    0.917248 *  0.127003 *  0.141907 *   0.87073    1.000000    
     85 O2    c    0.215677 *  0.124986 *  0.362602 *   0.87073    1.000000    
     86 O2    c    0.909741 *  0.783712 *  0.029250 *   0.87073    1.000000    
     87 O2    c    0.879420 *  0.076932 *  0.695241 *   0.87073    1.000000    
     88 O3    c    0.783588 *  0.857847 *  0.860777 *   1.33043    1.000000    
     89 O2    c    0.092481 *  0.209296 *  0.527449 *   0.87073    1.000000    
     90 O2    c    0.129457 *  0.913368 *  0.195986 *   0.87073    1.000000    
     91 O2    c    0.937329 *  0.857964 *  0.253145 *   0.87073    1.000000    
     92 O2    c    0.139103 *  0.064137 *  0.584402 *   0.87073    1.000000    
     93 O3    c    0.935384 *  0.059923 *  0.922384 *   1.33043    1.000000    
     94 O2    c    0.074465 *  0.135342 *  0.751279 *   0.87073    1.000000    
     95 O2    c    0.869392 *  0.927613 *  0.088535 *   0.87073    1.000000    
     96 O2    c    0.072270 *  0.929675 *  0.418175 *   0.87073    1.000000    
     97 O2    c    0.899830 *  0.201847 *  0.982129 *   0.87073    1.000000    
     98 O2    c    0.799241 *  0.696712 *  0.315360 *   0.87073    1.000000    
     99 O2    c    0.306198 *  0.086927 *  0.644972 *   0.87073    1.000000    
    100 O2    c    0.101994 *  0.792154 *  0.480318 *   0.87073    1.000000    
    101 O2    c    0.208917 *  0.292344 *  0.815941 *   0.87073    1.000000    
    102 O2    c    0.701755 *  0.904426 *  0.148422 *   0.87073    1.000000    
    103 O2    c    0.207770 *  0.901782 *  0.355187 *   0.87073    1.000000    
    104 O2    c    0.704807 *  0.813831 *  0.022994 *   0.87073    1.000000    
    105 O2    c    0.100773 *  0.293709 *  0.687121 *   0.87073    1.000000    
    106 O3    c    0.797836 *  0.098564 *  0.854356 *   1.33043    1.000000    
    107 O2    c    0.305838 *  0.198279 *  0.521639 *   0.87073    1.000000    
    108 O2    c    0.906604 *  0.699143 *  0.188362 *   0.87073    1.000000    
    109 O2    c    0.327150 *  0.645584 *  0.251532 *   0.87073    1.000000    
    110 O2    c    0.358223 *  0.670714 *  0.584532 *   0.87073    1.000000    
    111 O2    c    0.327444 *  0.667911 *  0.918626 *   0.87073    1.000000    
    112 O2    c    0.680811 *  0.346135 *  0.746954 *   0.87073    1.000000    
    113 O2    c    0.650673 *  0.324869 *  0.085675 *   0.87073    1.000000    
    114 O2    c    0.679337 *  0.318342 *  0.417820 *   0.87073    1.000000    
    115 O3    c    0.366952 *  0.312935 *  0.976427 *   1.33043    1.000000    
    116 O2    c    0.673040 *  0.042842 *  0.305732 *   0.87073    1.000000    
    117 O2    c    0.959194 *  0.619023 *  0.637605 *   0.87073    1.000000    
    118 O2    c    0.629876 *  0.666605 *  0.472544 *   0.87073    1.000000    
    119 O2    c    0.336979 *  0.948621 *  0.803646 *   0.87073    1.000000    
    120 O2    c    0.049425 *  0.374688 *  0.139895 *   0.87073    1.000000    
    121 O2    c    0.332952 *  0.373479 *  0.364683 *   0.87073    1.000000    
    122 O2    c    0.046035 *  0.669727 *  0.030920 *   0.87073    1.000000    
    123 O2    c    0.631381 *  0.944027 *  0.697168 *   0.87073    1.000000    
    124 O2    c    0.675433 *  0.613550 *  0.866984 *   0.87073    1.000000    
    125 O2    c    0.960823 *  0.325572 *  0.529329 *   0.87073    1.000000    
    126 O2    c    0.377491 *  0.046341 *  0.197700 *   0.87073    1.000000    
    127 O2    c    0.772007 *  0.301284 *  0.013716 *   0.87073    1.000000    
    128 O2    c    0.698831 *  0.465136 *  0.345759 *   0.87073    1.000000    
    129 O2    c    0.537112 *  0.217485 *  0.675463 *   0.87073    1.000000    
    130 O2    c    0.233901 *  0.692716 *  0.511836 *   0.87073    1.000000    
    131 O2    c    0.307833 *  0.521804 *  0.848833 *   0.87073    1.000000    
    132 O2    c    0.470955 *  0.771481 *  0.179096 *   0.87073    1.000000    
    133 O2    c    0.307590 *  0.770632 *  0.324160 *   0.87073    1.000000    
    134 O2    c    0.472730 *  0.696656 *  0.990120 *   0.87073    1.000000    
    135 O2    c    0.231948 *  0.524439 *  0.656759 *   0.87073    1.000000    
    136 O2    c    0.698611 *  0.222910 *  0.820758 *   0.87073    1.000000    
    137 O2    c    0.536570 *  0.298817 *  0.490862 *   0.87073    1.000000    
    138 O2    c    0.776650 *  0.468129 *  0.158079 *   0.87073    1.000000    
    139 O2    c    0.788646 *  0.532473 *  0.028977 *   0.87073    1.000000    
    140 O2    c    0.467436 *  0.248705 *  0.362835 *   0.87073    1.000000    
    141 O2    c    0.753550 *  0.203272 *  0.694468 *   0.87073    1.000000    
    142 O2    c    0.219437 *  0.460786 *  0.528901 *   0.87073    1.000000    
    143 O2    c    0.533430 *  0.728040 *  0.866758 *   0.87073    1.000000    
    144 O2    c    0.255038 *  0.787032 *  0.196533 *   0.87073    1.000000    
    145 O2    c    0.538984 *  0.783693 *  0.306877 *   0.87073    1.000000    
    146 O2    c    0.263999 *  0.465212 *  0.974020 *   0.87073    1.000000    
    147 O2    c    0.218386 *  0.742849 *  0.639465 *   0.87073    1.000000    
    148 O2    c    0.469725 *  0.209658 *  0.802292 *   0.87073    1.000000    
    149 O2    c    0.753664 *  0.530764 *  0.473519 *   0.87073    1.000000    
    150 O2    c    0.790025 *  0.251309 *  0.140717 *   0.87073    1.000000    
    151 O2    c    0.239513 *  0.317390 *  0.902045 *   0.87073    1.000000    
    152 O2    c    0.679985 *  0.908645 *  0.233017 *   0.87073    1.000000    
    153 O2    c    0.094027 *  0.762103 *  0.565159 *   0.87073    1.000000    
    154 O2    c    0.770825 *  0.674292 *  0.399820 *   0.87073    1.000000    
    155 O2    c    0.328258 *  0.080338 *  0.729620 *   0.87073    1.000000    
    156 O2    c    0.914578 *  0.232504 *  0.067108 *   0.87073    1.000000    
    157 O2    c    0.326620 *  0.229106 *  0.436949 *   0.87073    1.000000    
    158 O2    c    0.910410 *  0.675436 *  0.103346 *   0.87073    1.000000    
    159 O2    c    0.772929 *  0.080584 *  0.769534 *   0.87073    1.000000    
    160 O2    c    0.681694 *  0.759456 *  0.938231 *   0.87073    1.000000    
    161 O2    c    0.095324 *  0.316512 *  0.602189 *   0.87073    1.000000    
    162 O2    c    0.236546 *  0.910948 *  0.270320 *   0.87073    1.000000    
    163 O3    c    0.606008 *  0.571566 *  0.000493 *   1.33043    1.000000    
    164 O2    c    0.444860 *  0.029325 *  0.325827 *   0.87073    1.000000    
    165 O2    c    0.973139 *  0.403568 *  0.657126 *   0.87073    1.000000    
    166 O2    c    0.415817 *  0.437519 *  0.492362 *   0.87073    1.000000    
    167 O2    c    0.563924 *  0.960479 *  0.824433 *   0.87073    1.000000    
    168 O2    c    0.035575 *  0.590731 *  0.159007 *   0.87073    1.000000    
    169 O2    c    0.561468 *  0.586614 *  0.344722 *   0.87073    1.000000    
    170 O2    c    0.031864 *  0.440301 *  0.010977 *   0.87073    1.000000    
    171 O2    c    0.418398 *  0.959928 *  0.675720 *   0.87073    1.000000    
    172 O2    c    0.446560 *  0.403699 *  0.847435 *   0.87073    1.000000    
    173 O2    c    0.975780 *  0.554339 *  0.509226 *   0.87073    1.000000    
    174 O2    c    0.590019 *  0.030207 *  0.177858 *   0.87073    1.000000    
    175 O2    c    0.585611 *  0.166685 *  0.251745 *   0.87073    1.000000    
    176 O2    c    0.838132 *  0.412332 *  0.582575 *   0.87073    1.000000    
    177 O3    c    0.600135 *  0.400549 *  0.914909 *   1.33043    1.000000    
    178 O2    c    0.422219 *  0.822851 *  0.750678 *   0.87073    1.000000    
    179 O2    c    0.171594 *  0.583222 *  0.084896 *   0.87073    1.000000    
    180 O2    c    0.420831 *  0.581582 *  0.418439 *   0.87073    1.000000    
    181 F     c    0.456428 *  0.905426 *  0.252251 *   0.56000    1.000000    
    182 F     c    0.098484 *  0.541920 *  0.584367 *   0.56000    1.000000    
    183 F     c    0.477702 *  0.518540 *  0.928420 *   0.56000    1.000000    
    184 F     c    0.552368 *  0.083127 *  0.750241 *   0.56000    1.000000    
    185 F     c    0.915876 *  0.454769 *  0.085724 *   0.56000    1.000000    
    186 F     c    0.551343 *  0.449472 *  0.419040 *   0.56000    1.000000    
    187 O2    s    0.933007 *  0.004088 *  0.006102 *  -2.87073    1.000000    
    188 O2    s    0.002726 *  0.924568 *  0.335629 *  -2.87073    1.000000    
    189 O2    s    0.081935 *  0.067916 *  0.668350 *  -2.87073    1.000000    
    190 O2    s    0.078453 *  0.995352 *  0.501337 *  -2.87073    1.000000    
    191 O3    s    0.013901 *  0.064426 *  0.833664 *  -3.33043    1.000000    
    192 O2    s    0.928038 *  0.927510 *  0.171471 *  -2.87073    1.000000    
    193 O2    s    0.356272 *  0.586977 *  0.334846 *  -2.87073    1.000000    
    194 O2    s    0.416777 *  0.754679 *  0.667615 *  -2.87073    1.000000    
    195 O2    s    0.236828 *  0.645333 *  0.001605 *  -2.87073    1.000000    
    196 O2    s    0.652925 *  0.407830 *  0.828977 *  -2.87073    1.000000    
    197 O2    s    0.591326 *  0.236741 *  0.168534 *  -2.87073    1.000000    
    198 O2    s    0.769652 *  0.347693 *  0.499918 *  -2.87073    1.000000    
    199 O3    s    0.591069 *  0.350057 *  0.003283 *  -3.33043    1.000000    
    200 O2    s    0.768062 *  0.402954 *  0.664961 *  -2.87073    1.000000    
    201 O2    s    0.649956 *  0.232951 *  0.334916 *  -2.87073    1.000000    
    202 O2    s    0.417563 *  0.643845 *  0.501755 *  -2.87073    1.000000    
    203 O2    s    0.239421 *  0.588261 *  0.168409 *  -2.87073    1.000000    
    204 O2    s    0.357579 *  0.756640 *  0.834389 *  -2.87073    1.000000    
    205 O2    s    0.120622 *  0.216816 *  0.974310 *  -2.87073    1.000000    
    206 O2    s    0.787086 *  0.904569 *  0.304688 *  -2.87073    1.000000    
    207 O2    s    0.096825 *  0.870203 *  0.636915 *  -2.87073    1.000000    
    208 O2    s    0.881571 *  0.779917 *  0.471339 *  -2.87073    1.000000    
    209 O2    s    0.224650 *  0.086565 *  0.801809 *  -2.87073    1.000000    
    210 O2    s    0.910381 *  0.123492 *  0.139352 *  -2.87073    1.000000    
    211 O2    s    0.219199 *  0.121550 *  0.365179 *  -2.87073    1.000000    
    212 O2    s    0.904117 *  0.781129 *  0.032091 *  -2.87073    1.000000    
    213 O2    s    0.882686 *  0.083938 *  0.697785 *  -2.87073    1.000000    
    214 O3    s    0.779680 *  0.858950 *  0.863720 *  -3.33043    1.000000    
    215 O2    s    0.099164 *  0.212577 *  0.530200 *  -2.87073    1.000000    
    216 O2    s    0.126273 *  0.906573 *  0.198683 *  -2.87073    1.000000    
    217 O2    s    0.935317 *  0.855835 *  0.253059 *  -2.87073    1.000000    
    218 O2    s    0.142528 *  0.065162 *  0.584372 *  -2.87073    1.000000    
    219 O3    s    0.934442 *  0.062914 *  0.922756 *  -3.33043    1.000000    
    220 O2    s    0.075981 *  0.136972 *  0.751125 *  -2.87073    1.000000    
    221 O2    s    0.865949 *  0.927479 *  0.088249 *  -2.87073    1.000000    
    222 O2    s    0.073620 *  0.928015 *  0.418213 *  -2.87073    1.000000    
    223 O2    s    0.907974 *  0.203124 *  0.984835 *  -2.87073    1.000000    
    224 O2    s    0.797840 *  0.702843 *  0.317976 *  -2.87073    1.000000    
    225 O2    s    0.300108 *  0.079776 *  0.647818 *  -2.87073    1.000000    
    226 O2    s    0.094337 *  0.790728 *  0.483013 *  -2.87073    1.000000    
    227 O2    s    0.210634 *  0.286399 *  0.818462 *  -2.87073    1.000000    
    228 O2    s    0.707887 *  0.911700 *  0.151212 *  -2.87073    1.000000    
    229 O2    s    0.208948 *  0.909397 *  0.352608 *  -2.87073    1.000000    
    230 O2    s    0.711069 *  0.809655 *  0.020879 *  -2.87073    1.000000    
    231 O2    s    0.093420 *  0.287457 *  0.684554 *  -2.87073    1.000000    
    232 O3    s    0.795443 *  0.091226 *  0.851662 *  -3.33043    1.000000    
    233 O2    s    0.299498 *  0.199713 *  0.519027 *  -2.87073    1.000000    
    234 O2    s    0.914229 *  0.705395 *  0.185924 *  -2.87073    1.000000    
    235 O2    s    0.332913 *  0.657238 *  0.251542 *  -2.87073    1.000000    
    236 O2    s    0.346599 *  0.664957 *  0.584531 *  -2.87073    1.000000    
    237 O2    s    0.332900 *  0.663040 *  0.918550 *  -2.87073    1.000000    
    238 O2    s    0.675008 *  0.334375 *  0.747067 *  -2.87073    1.000000    
    239 O2    s    0.661480 *  0.329921 *  0.085841 *  -2.87073    1.000000    
    240 O2    s    0.673516 *  0.324416 *  0.417840 *  -2.87073    1.000000    
    241 O3    s    0.365865 *  0.322623 *  0.973615 *  -3.33043    1.000000    
    242 O2    s    0.662982 *  0.036121 *  0.303450 *  -2.87073    1.000000    
    243 O2    s    0.965962 *  0.615691 *  0.635272 *  -2.87073    1.000000    
    244 O2    s    0.626664 *  0.656620 *  0.470257 *  -2.87073    1.000000    
    245 O2    s    0.346975 *  0.954975 *  0.801311 *  -2.87073    1.000000    
    246 O2    s    0.042637 *  0.378108 *  0.137542 *  -2.87073    1.000000    
    247 O2    s    0.342958 *  0.376557 *  0.366866 *  -2.87073    1.000000    
    248 O2    s    0.039431 *  0.659344 *  0.033131 *  -2.87073    1.000000    
    249 O2    s    0.628014 *  0.950857 *  0.699293 *  -2.87073    1.000000    
    250 O2    s    0.666099 *  0.610933 *  0.868819 *  -2.87073    1.000000    
    251 O2    s    0.967542 *  0.335600 *  0.531556 *  -2.87073    1.000000    
    252 O2    s    0.380805 *  0.039527 *  0.199934 *  -2.87073    1.000000    
    253 O2    s    0.779408 *  0.308810 *  0.016560 *  -2.87073    1.000000    
    254 O2    s    0.691210 *  0.464541 *  0.348860 *  -2.87073    1.000000    
    255 O2    s    0.537759 *  0.210678 *  0.678589 *  -2.87073    1.000000    
    256 O2    s    0.226781 *  0.684890 *  0.514894 *  -2.87073    1.000000    
    257 O2    s    0.315230 *  0.522979 *  0.851491 *  -2.87073    1.000000    
    258 O2    s    0.470328 *  0.778473 *  0.182178 *  -2.87073    1.000000    
    259 O2    s    0.315214 *  0.777780 *  0.321037 *  -2.87073    1.000000    
    260 O2    s    0.471360 *  0.689101 *  0.987767 *  -2.87073    1.000000    
    261 O2    s    0.225058 *  0.525177 *  0.653589 *  -2.87073    1.000000    
    262 O2    s    0.691075 *  0.215845 *  0.817627 *  -2.87073    1.000000    
    263 O2    s    0.536993 *  0.306493 *  0.487692 *  -2.87073    1.000000    
    264 O2    s    0.783440 *  0.467644 *  0.154914 *  -2.87073    1.000000    
    265 O2    s    0.793720 *  0.530784 *  0.031673 *  -2.87073    1.000000    
    266 O2    s    0.470098 *  0.256462 *  0.365448 *  -2.87073    1.000000    
    267 O2    s    0.745774 *  0.198363 *  0.696966 *  -2.87073    1.000000    
    268 O2    s    0.214238 *  0.463446 *  0.531475 *  -2.87073    1.000000    
    269 O2    s    0.530705 *  0.722200 *  0.868764 *  -2.87073    1.000000    
    270 O2    s    0.262876 *  0.792062 *  0.199104 *  -2.87073    1.000000    
    271 O2    s    0.536216 *  0.789072 *  0.304261 *  -2.87073    1.000000    
    272 O2    s    0.270037 *  0.468245 *  0.971925 *  -2.87073    1.000000    
    273 O2    s    0.213234 *  0.734849 *  0.636850 *  -2.87073    1.000000    
    274 O2    s    0.472568 *  0.204100 *  0.799800 *  -2.87073    1.000000    
    275 O2    s    0.745689 *  0.528250 *  0.470880 *  -2.87073    1.000000    
    276 O2    s    0.795191 *  0.259307 *  0.138131 *  -2.87073    1.000000    
    277 O2    s    0.247992 *  0.325988 *  0.902430 *  -2.87073    1.000000    
    278 O2    s    0.670329 *  0.908442 *  0.233946 *  -2.87073    1.000000    
    279 O2    s    0.094394 *  0.752689 *  0.566080 *  -2.87073    1.000000    
    280 O2    s    0.761506 *  0.664674 *  0.400755 *  -2.87073    1.000000    
    281 O2    s    0.338029 *  0.080825 *  0.730557 *  -2.87073    1.000000    
    282 O2    s    0.913909 *  0.241911 *  0.068010 *  -2.87073    1.000000    
    283 O2    s    0.336189 *  0.238510 *  0.436077 *  -2.87073    1.000000    
    284 O2    s    0.910378 *  0.665833 *  0.102566 *  -2.87073    1.000000    
    285 O2    s    0.763570 *  0.081080 *  0.768472 *  -2.87073    1.000000    
    286 O2    s    0.673259 *  0.751530 *  0.937270 *  -2.87073    1.000000    
    287 O2    s    0.095496 *  0.326285 *  0.601334 *  -2.87073    1.000000    
    288 O2    s    0.245946 *  0.910542 *  0.269471 *  -2.87073    1.000000    
    289 O3    s    0.601620 *  0.576281 *  0.996804 *  -3.33043    1.000000    
    290 O2    s    0.444536 *  0.024315 *  0.322410 *  -2.87073    1.000000    
    291 O2    s    0.978306 *  0.408527 *  0.653718 *  -2.87073    1.000000    
    292 O2    s    0.420521 *  0.437220 *  0.488976 *  -2.87073    1.000000    
    293 O2    s    0.563548 *  0.965467 *  0.821002 *  -2.87073    1.000000    
    294 O2    s    0.030333 *  0.585649 *  0.155633 *  -2.87073    1.000000    
    295 O2    s    0.561761 *  0.581944 *  0.348058 *  -2.87073    1.000000    
    296 O2    s    0.027012 *  0.440345 *  0.014433 *  -2.87073    1.000000    
    297 O2    s    0.422858 *  0.964885 *  0.679070 *  -2.87073    1.000000    
    298 O2    s    0.445390 *  0.406996 *  0.850186 *  -2.87073    1.000000    
    299 O2    s    0.980474 *  0.554464 *  0.512632 *  -2.87073    1.000000    
    300 O2    s    0.585520 *  0.025352 *  0.181223 *  -2.87073    1.000000    
    301 O2    s    0.580195 *  0.155660 *  0.251742 *  -2.87073    1.000000    
    302 O2    s    0.849204 *  0.417701 *  0.582638 *  -2.87073    1.000000    
    303 O3    s    0.595067 *  0.408148 *  0.913106 *  -3.33043    1.000000    
    304 O2    s    0.427756 *  0.834024 *  0.750704 *  -2.87073    1.000000    
    305 O2    s    0.160172 *  0.577666 *  0.084900 *  -2.87073    1.000000    
    306 O2    s    0.426306 *  0.575983 *  0.418435 *  -2.87073    1.000000    
    307 F     s    0.456310 *  0.905107 *  0.252328 *  -1.56000    1.000000    
    308 F     s    0.098731 *  0.542090 *  0.584454 *  -1.56000    1.000000    
    309 F     s    0.481732 *  0.512429 *  0.930955 *  -1.56000    1.000000    
    310 F     s    0.552514 *  0.083165 *  0.750376 *  -1.56000    1.000000    
    311 F     s    0.916513 *  0.454905 *  0.085787 *  -1.56000    1.000000    
    312 F     s    0.551604 *  0.449264 *  0.419135 *  -1.56000    1.000000    
--------------------------------------------------------------------------------



********************************************************************************
*  General input information                                                   *
********************************************************************************

  Species output for all configurations : 

--------------------------------------------------------------------------------
  Species    Type    Atomic    Atomic    Charge       Radii (Angs)     Library
                     Number     Mass       (e)     Cova   Ionic  VDW   Symbol
--------------------------------------------------------------------------------
    Si       Core       14      28.09   4.000000   1.200  0.000  2.100          
    O1       Core        8      16.00   1.733957   0.730  0.000  1.360          
    O1       Shell       8       0.00  -3.733957   0.730  0.000  1.360          
    O2       Core        8      16.00   0.870733   0.730  0.000  1.360          
    O2       Shell       8       0.00  -2.870733   0.730  0.000  1.360          
    O3       Core        8      16.00   1.330431   0.730  0.000  1.360          
    O3       Shell       8       0.00  -3.330431   0.730  0.000  1.360          
    F        Core        9      19.00   0.560000   0.710  0.000  1.300          
    F        Shell       9       0.00  -1.560000   0.710  0.000  1.300          
    Ge       Core       32      72.61   4.000000   1.170  0.000  1.750          
--------------------------------------------------------------------------------


  Lattice summation method               =    Ewald          (3-D)
                                         =    Parry          (2-D)
                                         =    Saunders et al (1-D)
  Accuracy factor for lattice sums       =   12.000


  Time limit = Infinity

  Maximum range for interatomic potentials =        16.000000 Angstroms

  Taper potentials to zero over   1.0000 Angstroms using polynomial

  General interatomic potentials :

--------------------------------------------------------------------------------
Atom  Types   Potential         A         B         C         D     Cutoffs(Ang)
  1     2                                                            Min    Max 
--------------------------------------------------------------------------------
Si   c O1   s Buckingham    0.132E+04 0.318      10.1      0.00     0.000 16.000
Si   c O2   s Buckingham    0.132E+04 0.318      10.1      0.00     0.000 16.000
Si   c O3   s Buckingham    0.132E+04 0.318      10.1      0.00     0.000 16.000
Ge   c O1   s Buckingham    0.150E+04 0.326      16.8      0.00     0.000 16.000
Ge   c O2   s Buckingham    0.150E+04 0.326      16.8      0.00     0.000 16.000
Ge   c O3   s Buckingham    0.150E+04 0.326      16.8      0.00     0.000 16.000
O1   s O1   s Buckingham    0.228E+05 0.149      10.9      0.00     0.000 16.000
O1   s O2   s Buckingham    0.228E+05 0.149      10.9      0.00     0.000 16.000
O1   s O3   s Buckingham    0.228E+05 0.149      10.9      0.00     0.000 16.000
O2   s O2   s Buckingham    0.228E+05 0.149      10.9      0.00     0.000 16.000
O2   s O3   s Buckingham    0.228E+05 0.149      10.9      0.00     0.000 16.000
O3   s O3   s Buckingham    0.228E+05 0.149      10.9      0.00     0.000 16.000
Si   c F    s Buckingham     977.     0.282      0.00      0.00     0.000 16.000
Ge   c F    s Buckingham     681.     0.320      0.00      0.00     0.000 16.000
F    s F    s Buckingham     540.     0.262      0.00      0.00     0.000 16.000
O1   s F    s Buckingham    0.168E+04 0.268      0.00      0.00     0.000 16.000
O2   s F    s Buckingham    0.168E+04 0.268      0.00      0.00     0.000 16.000
O3   s F    s Buckingham    0.168E+04 0.268      0.00      0.00     0.000 16.000
O2   c O2   s Spring (c-s)   76.0      0.00      0.00      0.00     0.000  0.800
O3   c O3   s Spring (c-s)   128.      0.00      0.00      0.00     0.000  0.800
O1   c O1   s Spring (c-s)   180.      0.00      0.00      0.00     0.000  0.800
F    c F    s Spring (c-s)   33.5      0.00      0.00      0.00     0.000  0.800
--------------------------------------------------------------------------------

  General Three-body potentials :

  Harmonic form:

--------------------------------------------------------------------------------
Atom    Atom    Atom           Force Constants            Theta     Cutoffs  
  1       2       3     (eVrad**-2/eVrad**-3/eVrad**-4)   (deg)  1-2  1-3  2-3
--------------------------------------------------------------------------------
Si    c O1    s O1    s  1.261        0.0000    0.0000   109.470 0.00 0.00 0.00
                                                                 1.90 1.90 3.50
Si    c O1    s O2    s  1.261        0.0000    0.0000   109.470 0.00 0.00 0.00
                                                                 1.90 1.90 3.50
Si    c O2    s O2    s  1.261        0.0000    0.0000   109.470 0.00 0.00 0.00
                                                                 1.90 1.90 3.50
--------------------------------------------------------------------------------

********************************************************************************
*  Output for configuration   1                                                *
********************************************************************************


  Components of energy : 

--------------------------------------------------------------------------------
  Interatomic potentials     =        2063.34887447 eV
  Three-body potentials      =           0.46818056 eV
  Monopole - monopole (real) =       -6641.89951539 eV
  Monopole - monopole (recip)=       -3148.37336382 eV
  Monopole - monopole (total)=       -9790.27287921 eV
  Neutralising energy        =          -6.46069979 eV
--------------------------------------------------------------------------------
  Total lattice energy       =       -7732.91652397 eV
--------------------------------------------------------------------------------
  Total lattice energy       =         -746108.2361 kJ/(mole unit cells)
--------------------------------------------------------------------------------


  Number of variables =      939

  Maximum number of calculations  =          5000
  Maximum Hessian update interval =            10
  Maximum step size               =   0.100000000
  Maximum parameter tolerance     =   0.000010000
  Maximum function  tolerance     =   0.000010000
  Maximum gradient  tolerance     =   0.001000000
  Maximum gradient  component     =   0.010000000

  Symmetry not applied to optimisation

  Cell parameters to be optimised using strains

  Newton-Raphson optimiser to be used

  BFGS hessian update to be used

  Dumpfile to be written after every cycle

  Start of bulk optimisation :

  Cycle:      0 Energy:     -7732.916524  Gnorm:      0.000312  CPU:    2.048
  ** Hessian calculated **
  Cycle:      1 Energy:     -7732.919966  Gnorm:      0.000182  CPU:    6.664
  Cycle:      2 Energy:     -7732.920829  Gnorm:      0.000150  CPU:   10.904
  Cycle:      3 Energy:     -7732.921047  Gnorm:      0.000093  CPU:   15.142
  Cycle:      4 Energy:     -7732.921093  Gnorm:      0.000060  CPU:   18.693
  Cycle:      5 Energy:     -7732.921107  Gnorm:      0.000043  CPU:   21.555
  Cycle:      6 Energy:     -7732.921113  Gnorm:      0.000030  CPU:   24.418


  **** Optimisation achieved ****


  Final energy =   -7732.92111666 eV
  Final Gnorm  =       0.00002117

  Components of energy : 

--------------------------------------------------------------------------------
  Interatomic potentials     =        2063.33366556 eV
  Three-body potentials      =           0.46833148 eV
  Monopole - monopole (real) =       -6642.03472606 eV
  Monopole - monopole (recip)=       -3148.22798605 eV
  Monopole - monopole (total)=       -9790.26271211 eV
  Neutralising energy        =          -6.46040159 eV
--------------------------------------------------------------------------------
  Total lattice energy       =       -7732.92111666 eV
--------------------------------------------------------------------------------
  Total lattice energy       =         -746108.6792 kJ/(mole unit cells)
--------------------------------------------------------------------------------

  Final fractional coordinates of atoms :

--------------------------------------------------------------------------------
   No.  Atomic        x           y          z          Radius
        Label       (Frac)      (Frac)     (Frac)       (Angs) 
--------------------------------------------------------------------------------
     1  Si    c     0.699600    0.375700    0.033890    0.000000
     2  Si    c     0.623240    0.317042    0.367237    0.000000
     3  Si    c     0.679793    0.282221    0.696948    0.000000
     4  Si    c     0.301427    0.611293    0.533501    0.000000
     5  Si    c     0.379438    0.662677    0.867558    0.000000
     6  Si    c     0.327848    0.700115    0.200568    0.000000
     7  Si    c     0.383245    0.698908    0.301313    0.000000
     8  Si    c     0.326631    0.615799    0.970072    0.000000
     9  Si    c     0.300057    0.663167    0.634236    0.000000
    10  Si    c     0.623826    0.286559    0.796943    0.000000
    11  Si    c     0.678397    0.370203    0.467626    0.000000
    12  Si    c     0.707549    0.323553    0.135605    0.000000
    13  Ge    c     0.531188    0.423967    0.965676    0.000000
    14  Si    c     0.585537    0.108184    0.302206    0.000000
    15  Si    c     0.890445    0.457893    0.633059    0.000000
    16  Si    c     0.473681    0.574582    0.468604    0.000000
    17  Si    c     0.422142    0.873148    0.800362    0.000000
    18  Si    c     0.117912    0.528682    0.135362    0.000000
    19  Si    c     0.420405    0.525354    0.366928    0.000000
    20  Si    c     0.114044    0.578837    0.034005    0.000000
    21  Si    c     0.474559    0.870834    0.699115    0.000000
    22  Si    c     0.591499    0.450819    0.866472    0.000000
    23  Si    c     0.890378    0.407555    0.531554    0.000000
    24  Si    c     0.534282    0.112642    0.200552    0.000000
    25  Si    c     0.304783    0.380865    0.854360    0.000000
    26  Si    c     0.605105    0.902031    0.186507    0.000000
    27  Si    c     0.099405    0.688144    0.518351    0.000000
    28  Si    c     0.700912    0.596178    0.352983    0.000000
    29  Si    c     0.402180    0.080040    0.682896    0.000000
    30  Si    c     0.904458    0.300081    0.020413    0.000000
    31  Si    c     0.401269    0.293149    0.482903    0.000000
    32  Si    c     0.909641    0.601019    0.149785    0.000000
    33  Si    c     0.699324    0.084164    0.814368    0.000000
    34  Si    c     0.611039    0.698596    0.987118    0.000000
    35  Si    c     0.098651    0.385291    0.648075    0.000000
    36  Si    c     0.306214    0.900552    0.316362    0.000000
    37  Si    c     0.252171    0.326942    0.956937    0.000000
    38  Si    c     0.663317    0.906685    0.287007    0.000000
    39  Si    c     0.091030    0.736102    0.619007    0.000000
    40  Si    c     0.751985    0.652301    0.453637    0.000000
    41  Si    c     0.345312    0.075264    0.783381    0.000000
    42  Si    c     0.916844    0.251149    0.120847    0.000000
    43  Si    c     0.342603    0.245575    0.382185    0.000000
    44  Si    c     0.912668    0.656165    0.048890    0.000000
    45  Si    c     0.752306    0.072237    0.714488    0.000000
    46  Si    c     0.664440    0.731466    0.883720    0.000000
    47  Si    c     0.092399    0.330278    0.547479    0.000000
    48  Si    c     0.256716    0.910826    0.215710    0.000000
    49  Si    c     0.969366    0.117939    0.971248    0.000000
    50  Si    c     0.881947    0.844300    0.302543    0.000000
    51  Si    c     0.153403    0.016028    0.633993    0.000000
    52  Si    c     0.031574    0.869831    0.468029    0.000000
    53  Si    c     0.127651    0.136963    0.801087    0.000000
    54  Si    c     0.854068    0.970589    0.137388    0.000000
    55  Si    c     0.125128    0.966407    0.367346    0.000000
    56  Si    c     0.854030    0.878923    0.036914    0.000000
    57  Si    c     0.033019    0.137824    0.699870    0.000000
    58  Ge    c     0.880874    0.016600    0.867730    0.000000
    59  Si    c     0.153951    0.111939    0.533162    0.000000
    60  Si    c     0.976570    0.847290    0.201756    0.000000
    61  O2    c     0.936663    0.002981    0.006175    0.000000
    62  O2    c     0.002292    0.924721    0.335462    0.000000
    63  O2    c     0.077826    0.058403    0.668404    0.000000
    64  O2    c     0.073747    0.990078    0.501131    0.000000
    65  O3    c     0.011792    0.053739    0.834244    0.000000
    66  O2    c     0.932928    0.930618    0.171500    0.000000
    67  O2    c     0.344456    0.575321    0.334272    0.000000
    68  O2    c     0.423449    0.744867    0.667097    0.000000
    69  O2    c     0.239634    0.653911    0.001038    0.000000
    70  O2    c     0.662857    0.411596    0.828051    0.000000
    71  O2    c     0.584770    0.239285    0.168477    0.000000
    72  O2    c     0.764813    0.330908    0.499578    0.000000
    73  O3    c     0.580795    0.338248    0.002426    0.000000
    74  O2    c     0.763077    0.405543    0.664462    0.000000
    75  O2    c     0.662063    0.233036    0.334632    0.000000
    76  O2    c     0.424722    0.650787    0.501209    0.000000
    77  O2    c     0.244023    0.578135    0.167724    0.000000
    78  O2    c     0.345256    0.747942    0.833430    0.000000
    79  O2    c     0.121065    0.211242    0.976743    0.000000
    80  O2    c     0.790323    0.907371    0.307023    0.000000
    81  O2    c     0.089241    0.861593    0.639099    0.000000
    82  O2    c     0.877870    0.778647    0.473493    0.000000
    83  O2    c     0.219957    0.074467    0.803765    0.000000
    84  O2    c     0.917310    0.124775    0.141385    0.000000
    85  O2    c     0.215751    0.120724    0.362199    0.000000
    86  O2    c     0.910644    0.782624    0.028979    0.000000
    87  O2    c     0.878613    0.071877    0.694724    0.000000
    88  O3    c     0.783029    0.852994    0.860537    0.000000
    89  O2    c     0.091813    0.204233    0.527036    0.000000
    90  O2    c     0.130317    0.911374    0.195736    0.000000
    91  O2    c     0.937763    0.855646    0.252798    0.000000
    92  O2    c     0.138363    0.059242    0.584069    0.000000
    93  O3    c     0.933309    0.056835    0.922071    0.000000
    94  O2    c     0.072842    0.129978    0.751029    0.000000
    95  O2    c     0.868697    0.924917    0.088202    0.000000
    96  O2    c     0.072369    0.925419    0.417872    0.000000
    97  O2    c     0.898268    0.199907    0.981655    0.000000
    98  O2    c     0.799490    0.692840    0.314892    0.000000
    99  O2    c     0.305528    0.081915    0.644486    0.000000
   100  O2    c     0.101336    0.787056    0.479899    0.000000
   101  O2    c     0.207859    0.287164    0.815586    0.000000
   102  O2    c     0.702230    0.901933    0.148260    0.000000
   103  O2    c     0.207713    0.897484    0.354850    0.000000
   104  O2    c     0.703846    0.809939    0.022708    0.000000
   105  O2    c     0.100209    0.288423    0.686712    0.000000
   106  O3    c     0.796413    0.093378    0.853787    0.000000
   107  O2    c     0.305277    0.193450    0.521231    0.000000
   108  O2    c     0.907616    0.697263    0.188111    0.000000
   109  O2    c     0.327307    0.642213    0.251004    0.000000
   110  O2    c     0.357561    0.665385    0.584042    0.000000
   111  O2    c     0.326539    0.663557    0.917990    0.000000
   112  O2    c     0.679608    0.340987    0.746562    0.000000
   113  O2    c     0.651012    0.324614    0.085708    0.000000
   114  O2    c     0.679274    0.314118    0.417508    0.000000
   115  O3    c     0.365196    0.308737    0.976089    0.000000
   116  O2    c     0.673089    0.038913    0.305518    0.000000
   117  O2    c     0.958692    0.613905    0.637251    0.000000
   118  O2    c     0.629443    0.661968    0.472071    0.000000
   119  O2    c     0.335759    0.943333    0.803062    0.000000
   120  O2    c     0.049543    0.372355    0.139314    0.000000
   121  O2    c     0.333001    0.369217    0.364187    0.000000
   122  O2    c     0.046520    0.668118    0.030520    0.000000
   123  O2    c     0.630611    0.938977    0.696605    0.000000
   124  O2    c     0.674267    0.608427    0.866673    0.000000
   125  O2    c     0.960138    0.320469    0.528979    0.000000
   126  O2    c     0.378222    0.043724    0.197458    0.000000
   127  O2    c     0.771654    0.300836    0.013595    0.000000
   128  O2    c     0.699026    0.461076    0.345364    0.000000
   129  O2    c     0.536353    0.212549    0.675018    0.000000
   130  O2    c     0.233209    0.687559    0.511402    0.000000
   131  O2    c     0.307035    0.517029    0.848280    0.000000
   132  O2    c     0.471359    0.768915    0.178691    0.000000
   133  O2    c     0.307576    0.766593    0.323718    0.000000
   134  O2    c     0.472044    0.693412    0.989531    0.000000
   135  O2    c     0.231379    0.519190    0.656330    0.000000
   136  O2    c     0.697168    0.217522    0.820270    0.000000
   137  O2    c     0.536122    0.294214    0.490496    0.000000
   138  O2    c     0.777579    0.466493    0.158024    0.000000
   139  O2    c     0.788841    0.532094    0.028902    0.000000
   140  O2    c     0.467559    0.244588    0.362438    0.000000
   141  O2    c     0.752660    0.198242    0.694040    0.000000
   142  O2    c     0.218769    0.455628    0.528444    0.000000
   143  O2    c     0.532647    0.723198    0.866285    0.000000
   144  O2    c     0.255519    0.784411    0.196149    0.000000
   145  O2    c     0.538928    0.779657    0.306486    0.000000
   146  O2    c     0.263336    0.461753    0.973678    0.000000
   147  O2    c     0.217790    0.737611    0.639008    0.000000
   148  O2    c     0.468383    0.204385    0.801800    0.000000
   149  O2    c     0.753282    0.526234    0.473169    0.000000
   150  O2    c     0.790266    0.249538    0.140314    0.000000
   151  O2    c     0.238124    0.313187    0.901719    0.000000
   152  O2    c     0.680252    0.905296    0.232762    0.000000
   153  O2    c     0.093404    0.756947    0.564758    0.000000
   154  O2    c     0.770711    0.669944    0.399386    0.000000
   155  O2    c     0.327274    0.075205    0.729094    0.000000
   156  O2    c     0.913886    0.230583    0.066618    0.000000
   157  O2    c     0.326428    0.224643    0.436513    0.000000
   158  O2    c     0.911600    0.674259    0.103175    0.000000
   159  O2    c     0.771810    0.075319    0.769008    0.000000
   160  O2    c     0.680922    0.754884    0.937849    0.000000
   161  O2    c     0.094730    0.311328    0.601793    0.000000
   162  O2    c     0.237005    0.907709    0.270009    0.000000
   163  O3    c     0.604216    0.567540    0.000233    0.000000
   164  O2    c     0.444968    0.025292    0.325590    0.000000
   165  O2    c     0.972565    0.398374    0.656787    0.000000
   166  O2    c     0.415332    0.432810    0.491883    0.000000
   167  O2    c     0.562686    0.955107    0.823845    0.000000
   168  O2    c     0.036449    0.588719    0.158662    0.000000
   169  O2    c     0.561553    0.582397    0.344223    0.000000
   170  O2    c     0.031291    0.438235    0.010515    0.000000
   171  O2    c     0.417737    0.954971    0.675148    0.000000
   172  O2    c     0.445270    0.398476    0.847151    0.000000
   173  O2    c     0.975162    0.549280    0.508882    0.000000
   174  O2    c     0.590839    0.027819    0.177669    0.000000
   175  O2    c     0.585981    0.163433    0.251597    0.000000
   176  O2    c     0.837563    0.407237    0.582277    0.000000
   177  O3    c     0.598410    0.395650    0.914701    0.000000
   178  O2    c     0.421236    0.817682    0.750056    0.000000
   179  O2    c     0.171849    0.580921    0.084352    0.000000
   180  O2    c     0.420647    0.577105    0.417905    0.000000
   181  F     c     0.456878    0.902068    0.251919    0.000000
   182  F     c     0.097868    0.536610    0.583991    0.000000
   183  F     c     0.476468    0.514338    0.927978    0.000000
   184  F     c     0.551221    0.077845    0.749726    0.000000
   185  F     c     0.916369    0.453831    0.085417    0.000000
   186  F     c     0.551244    0.445105    0.418603    0.000000
   187  O2    s     0.930822    0.001694    0.005759    0.000000
   188  O2    s     0.002683    0.920450    0.335376    0.000000
   189  O2    s     0.081218    0.062569    0.668093    0.000000
   190  O2    s     0.078063    0.990351    0.501037    0.000000
   191  O3    s     0.013075    0.059517    0.833539    0.000000
   192  O2    s     0.928986    0.925693    0.171079    0.000000
   193  O2    s     0.356287    0.582752    0.334283    0.000000
   194  O2    s     0.416178    0.749571    0.667052    0.000000
   195  O2    s     0.236448    0.642484    0.000999    0.000000
   196  O2    s     0.651507    0.402467    0.828679    0.000000
   197  O2    s     0.591984    0.234700    0.168462    0.000000
   198  O2    s     0.769058    0.342914    0.499635    0.000000
   199  O3    s     0.590468    0.348370    0.003336    0.000000
   200  O2    s     0.767466    0.398011    0.664641    0.000000
   201  O2    s     0.650153    0.228930    0.334698    0.000000
   202  O2    s     0.416926    0.638883    0.501238    0.000000
   203  O2    s     0.239897    0.585732    0.167847    0.000000
   204  O2    s     0.356582    0.751490    0.833726    0.000000
   205  O2    s     0.118698    0.213736    0.973940    0.000000
   206  O2    s     0.786959    0.900563    0.304502    0.000000
   207  O2    s     0.096252    0.865084    0.636511    0.000000
   208  O2    s     0.881185    0.775307    0.470902    0.000000
   209  O2    s     0.223397    0.081282    0.801325    0.000000
   210  O2    s     0.910462    0.121275    0.138857    0.000000
   211  O2    s     0.219261    0.117295    0.364782    0.000000
   212  O2    s     0.904843    0.779887    0.031823    0.000000
   213  O2    s     0.881861    0.078850    0.697283    0.000000
   214  O3    s     0.779045    0.854109    0.863458    0.000000
   215  O2    s     0.098512    0.207519    0.529793    0.000000
   216  O2    s     0.127103    0.904525    0.198415    0.000000
   217  O2    s     0.935757    0.853406    0.252720    0.000000
   218  O2    s     0.141812    0.060233    0.584035    0.000000
   219  O3    s     0.932446    0.059741    0.922432    0.000000
   220  O2    s     0.074495    0.131639    0.750859    0.000000
   221  O2    s     0.865343    0.924854    0.087921    0.000000
   222  O2    s     0.073655    0.923702    0.417901    0.000000
   223  O2    s     0.906404    0.201116    0.984357    0.000000
   224  O2    s     0.798068    0.698957    0.317517    0.000000
   225  O2    s     0.299430    0.074753    0.647345    0.000000
   226  O2    s     0.093711    0.785661    0.482602    0.000000
   227  O2    s     0.209552    0.281255    0.818106    0.000000
   228  O2    s     0.708355    0.909231    0.151036    0.000000
   229  O2    s     0.208920    0.905149    0.352273    0.000000
   230  O2    s     0.710127    0.805916    0.020586    0.000000
   231  O2    s     0.092822    0.282176    0.684154    0.000000
   232  O3    s     0.794031    0.086047    0.851103    0.000000
   233  O2    s     0.298950    0.194884    0.518627    0.000000
   234  O2    s     0.915227    0.703532    0.185659    0.000000
   235  O2    s     0.333067    0.653851    0.251030    0.000000
   236  O2    s     0.345937    0.659647    0.584044    0.000000
   237  O2    s     0.332036    0.658721    0.917932    0.000000
   238  O2    s     0.673824    0.329246    0.746679    0.000000
   239  O2    s     0.661796    0.329561    0.085868    0.000000
   240  O2    s     0.673436    0.320196    0.417530    0.000000
   241  O3    s     0.364127    0.318456    0.973282    0.000000
   242  O2    s     0.663029    0.032201    0.303228    0.000000
   243  O2    s     0.965451    0.610579    0.634917    0.000000
   244  O2    s     0.626245    0.651985    0.469783    0.000000
   245  O2    s     0.345768    0.949716    0.800725    0.000000
   246  O2    s     0.042776    0.375798    0.136980    0.000000
   247  O2    s     0.342995    0.372297    0.366370    0.000000
   248  O2    s     0.039872    0.657754    0.032751    0.000000
   249  O2    s     0.627236    0.945795    0.698729    0.000000
   250  O2    s     0.664971    0.605855    0.868500    0.000000
   251  O2    s     0.966867    0.330507    0.531206    0.000000
   252  O2    s     0.381521    0.036921    0.199687    0.000000
   253  O2    s     0.779146    0.308218    0.016407    0.000000
   254  O2    s     0.691397    0.460502    0.348463    0.000000
   255  O2    s     0.536993    0.205727    0.678146    0.000000
   256  O2    s     0.226093    0.679737    0.514459    0.000000
   257  O2    s     0.314386    0.518172    0.850951    0.000000
   258  O2    s     0.470710    0.775864    0.181790    0.000000
   259  O2    s     0.315221    0.773755    0.320604    0.000000
   260  O2    s     0.470641    0.685783    0.987212    0.000000
   261  O2    s     0.224486    0.519932    0.653159    0.000000
   262  O2    s     0.689642    0.210505    0.817136    0.000000
   263  O2    s     0.536547    0.301887    0.487329    0.000000
   264  O2    s     0.784306    0.465986    0.154831    0.000000
   265  O2    s     0.793868    0.530189    0.031597    0.000000
   266  O2    s     0.470192    0.252338    0.365056    0.000000
   267  O2    s     0.744888    0.193320    0.696533    0.000000
   268  O2    s     0.213576    0.458297    0.531021    0.000000
   269  O2    s     0.529921    0.717363    0.868291    0.000000
   270  O2    s     0.263348    0.789419    0.198719    0.000000
   271  O2    s     0.536168    0.785059    0.303877    0.000000
   272  O2    s     0.269281    0.464746    0.971565    0.000000
   273  O2    s     0.212633    0.729623    0.636396    0.000000
   274  O2    s     0.471252    0.198852    0.799315    0.000000
   275  O2    s     0.745314    0.523715    0.470526    0.000000
   276  O2    s     0.795429    0.257516    0.137748    0.000000
   277  O2    s     0.246608    0.321752    0.902091    0.000000
   278  O2    s     0.670581    0.905105    0.233702    0.000000
   279  O2    s     0.093774    0.747546    0.565680    0.000000
   280  O2    s     0.761396    0.660335    0.400314    0.000000
   281  O2    s     0.337043    0.075695    0.730040    0.000000
   282  O2    s     0.913255    0.239969    0.067543    0.000000
   283  O2    s     0.335991    0.234046    0.435651    0.000000
   284  O2    s     0.911524    0.664626    0.102367    0.000000
   285  O2    s     0.762454    0.075827    0.767936    0.000000
   286  O2    s     0.672478    0.747014    0.936897    0.000000
   287  O2    s     0.094898    0.321108    0.600938    0.000000
   288  O2    s     0.246388    0.907297    0.269155    0.000000
   289  O3    s     0.599954    0.572404    0.996537    0.000000
   290  O2    s     0.444644    0.020310    0.322166    0.000000
   291  O2    s     0.977729    0.403340    0.653376    0.000000
   292  O2    s     0.420042    0.432499    0.488503    0.000000
   293  O2    s     0.562324    0.960135    0.820408    0.000000
   294  O2    s     0.031160    0.583632    0.155281    0.000000
   295  O2    s     0.561840    0.577739    0.347555    0.000000
   296  O2    s     0.026461    0.438322    0.013976    0.000000
   297  O2    s     0.422183    0.959900    0.678504    0.000000
   298  O2    s     0.444109    0.401812    0.849886    0.000000
   299  O2    s     0.979858    0.549409    0.512286    0.000000
   300  O2    s     0.586271    0.022943    0.181031    0.000000
   301  O2    s     0.580569    0.152423    0.251572    0.000000
   302  O2    s     0.848636    0.412613    0.582336    0.000000
   303  O3    s     0.593401    0.403280    0.912856    0.000000
   304  O2    s     0.426785    0.828870    0.750080    0.000000
   305  O2    s     0.160411    0.575375    0.084369    0.000000
   306  O2    s     0.426118    0.571504    0.417902    0.000000
   307  F     s     0.456778    0.901746    0.251994    0.000000
   308  F     s     0.098115    0.536767    0.584081    0.000000
   309  F     s     0.480521    0.508135    0.930560    0.000000
   310  F     s     0.551357    0.077867    0.749863    0.000000
   311  F     s     0.917037    0.454048    0.085479    0.000000
   312  F     s     0.551511    0.444898    0.418697    0.000000
--------------------------------------------------------------------------------

  Final Cartesian lattice vectors (Angstroms) :

       11.960652    0.001258    0.001486
       -5.901030   10.369783    0.002861
       -0.150494    0.145293   29.476589


  Final cell parameters and derivatives :

--------------------------------------------------------------------------------
       a           11.960652 Angstrom     dE/de1(xx)     0.002659 eV/strain
       b           11.931244 Angstrom     dE/de2(yy)     0.002148 eV/strain
       c           29.477331 Angstrom     dE/de3(zz)     0.003059 eV/strain
       alpha       89.596134 Degrees      dE/de4(yz)    -0.000126 eV/strain
       beta        90.285370 Degrees      dE/de5(xz)     0.000398 eV/strain
       gamma      119.636448 Degrees      dE/de6(xy)    -0.000243 eV/strain
--------------------------------------------------------------------------------

  Primitive cell volume =          3656.177651 Angs**3

  Density of cell =      1.729720 g/cm**3

  Non-primitive cell volume =          3656.177651 Angs**3


  Final internal derivatives :

--------------------------------------------------------------------------------
   No.  Atomic          a             b             c           Radius
        Label          (eV)          (eV)          (eV)        (eV/Angs)
--------------------------------------------------------------------------------
      1 Si    c       0.000000      0.000000      0.000000      0.000000
      2 Si    c      -0.000028      0.000087      0.000222      0.000000
      3 Si    c      -0.000064      0.000131      0.000043      0.000000
      4 Si    c      -0.000128      0.000202      0.000103      0.000000
      5 Si    c       0.000102      0.000132     -0.000504      0.000000
      6 Si    c      -0.000192      0.000112     -0.000033      0.000000
      7 Si    c      -0.000154      0.000219      0.000191      0.000000
      8 Si    c       0.000329     -0.000136      0.000535      0.000000
      9 Si    c      -0.000121      0.000197     -0.000122      0.000000
     10 Si    c       0.000005      0.000321     -0.000364      0.000000
     11 Si    c      -0.000099      0.000206     -0.000056      0.000000
     12 Si    c       0.000165     -0.000051      0.001827      0.000000
     13 Ge    c      -0.002612      0.003087     -0.004179      0.000000
     14 Si    c      -0.000034      0.000052      0.000369      0.000000
     15 Si    c      -0.000027      0.000194     -0.000196      0.000000
     16 Si    c      -0.000111      0.000147      0.000061      0.000000
     17 Si    c       0.000010      0.000179     -0.000057      0.000000
     18 Si    c      -0.000098     -0.000065     -0.000226      0.000000
     19 Si    c      -0.000158      0.000160      0.000016      0.000000
     20 Si    c       0.000314     -0.000041      0.000662      0.000000
     21 Si    c      -0.000087      0.000199      0.000046      0.000000
     22 Si    c      -0.000096      0.000659     -0.002168      0.000000
     23 Si    c      -0.000010      0.000215      0.000100      0.000000
     24 Si    c      -0.000080     -0.000220     -0.000365      0.000000
     25 Si    c       0.000000      0.000385     -0.001292      0.000000
     26 Si    c      -0.000010      0.000146     -0.000405      0.000000
     27 Si    c      -0.000104      0.000203     -0.000002      0.000000
     28 Si    c      -0.000105      0.000117     -0.000060      0.000000
     29 Si    c      -0.000081      0.000171      0.000072      0.000000
     30 Si    c       0.000920     -0.000804     -0.000531      0.000000
     31 Si    c      -0.000114      0.000186      0.000002      0.000000
     32 Si    c      -0.000090      0.000131      0.000733      0.000000
     33 Si    c      -0.000024      0.000204     -0.000107      0.000000
     34 Si    c       0.000263      0.000201      0.000836      0.000000
     35 Si    c      -0.000095      0.000216      0.000044      0.000000
     36 Si    c      -0.000109      0.000110      0.000251      0.000000
     37 Si    c       0.000662      0.000261      0.000264      0.000000
     38 Si    c      -0.000084      0.000172      0.000156      0.000000
     39 Si    c      -0.000103      0.000186     -0.000035      0.000000
     40 Si    c      -0.000091      0.000163      0.000007      0.000000
     41 Si    c      -0.000088      0.000280     -0.000115      0.000000
     42 Si    c       0.000167     -0.000139      0.001270      0.000000
     43 Si    c      -0.000159      0.000162      0.000028      0.000000
     44 Si    c      -0.000600      0.000885      0.000758      0.000000
     45 Si    c      -0.000052      0.000145      0.000142      0.000000
     46 Si    c      -0.000109      0.000234     -0.000048      0.000000
     47 Si    c      -0.000101      0.000247      0.000093      0.000000
     48 Si    c      -0.000033     -0.000009     -0.000190      0.000000
     49 Si    c      -0.000161      0.000250      0.002495      0.000000
     50 Si    c      -0.000380      0.000258      0.001760      0.000000
     51 Si    c      -0.000021      0.000143     -0.000266      0.000000
     52 Si    c      -0.000112      0.000134      0.000327      0.000000
     53 Si    c      -0.000116      0.000506     -0.000230      0.000000
     54 Si    c      -0.000404      0.000191      0.000639      0.000000
     55 Si    c      -0.000092      0.000100     -0.000045      0.000000
     56 Si    c      -0.000575      0.000636      0.002416      0.000000
     57 Si    c      -0.000078      0.000246     -0.000480      0.000000
     58 Ge    c      -0.000820      0.000056     -0.006453      0.000000
     59 Si    c      -0.000051      0.000176      0.000037      0.000000
     60 Si    c      -0.000146      0.000024     -0.000564      0.000000
     61 O2    c       0.000836      0.000822     -0.002206      0.000000
     62 O2    c      -0.000073      0.000124      0.000007      0.000000
     63 O2    c      -0.000125      0.000209      0.000256      0.000000
     64 O2    c      -0.000134      0.000223      0.000124      0.000000
     65 O3    c       0.000084      0.000198     -0.000387      0.000000
     66 O2    c       0.000141     -0.000185      0.000662      0.000000
     67 O2    c      -0.000101      0.000069      0.000289      0.000000
     68 O2    c      -0.000066      0.000198      0.000230      0.000000
     69 O2    c      -0.000078      0.000358      0.000166      0.000000
     70 O2    c      -0.000000      0.000351      0.000095      0.000000
     71 O2    c      -0.000352      0.000106      0.000502      0.000000
     72 O2    c      -0.000091      0.000150     -0.000441      0.000000
     73 O3    c      -0.000797     -0.002988     -0.002415      0.000000
     74 O2    c      -0.000142      0.000234      0.000178      0.000000
     75 O2    c      -0.000108      0.000133     -0.000368      0.000000
     76 O2    c      -0.000052      0.000182     -0.000137      0.000000
     77 O2    c      -0.000118     -0.000001      0.000335      0.000000
     78 O2    c      -0.000114      0.000386     -0.000197      0.000000
     79 O2    c       0.000065     -0.000225      0.001310      0.000000
     80 O2    c      -0.000193      0.000218     -0.000499      0.000000
     81 O2    c      -0.000101      0.000170      0.000429      0.000000
     82 O2    c      -0.000140      0.000156      0.000295      0.000000
     83 O2    c       0.000157      0.000129     -0.000352      0.000000
     84 O2    c      -0.000138      0.000180      0.000332      0.000000
     85 O2    c      -0.000116      0.000139      0.000232      0.000000
     86 O2    c       0.001466     -0.001692     -0.001358      0.000000
     87 O2    c      -0.000162      0.000176      0.000238      0.000000
     88 O3    c      -0.000028      0.000290     -0.000323      0.000000
     89 O2    c      -0.000069      0.000202     -0.000476      0.000000
     90 O2    c      -0.000274      0.000102      0.000324      0.000000
     91 O2    c       0.000292     -0.000057     -0.002339      0.000000
     92 O2    c      -0.000091      0.000181      0.000080      0.000000
     93 O3    c       0.001290      0.000232      0.009437      0.000000
     94 O2    c       0.000052      0.000197      0.000930      0.000000
     95 O2    c       0.000298     -0.000270     -0.001650      0.000000
     96 O2    c      -0.000094      0.000176     -0.000398      0.000000
     97 O2    c      -0.000206      0.000257     -0.000029      0.000000
     98 O2    c      -0.000159      0.000017      0.000789      0.000000
     99 O2    c      -0.000087      0.000179     -0.000817      0.000000
    100 O2    c      -0.000023      0.000135      0.000180      0.000000
    101 O2    c      -0.000024      0.000271      0.000191      0.000000
    102 O2    c      -0.000182      0.000081     -0.000437      0.000000
    103 O2    c      -0.000156      0.000173     -0.000111      0.000000
    104 O2    c      -0.000893      0.000206     -0.000292      0.000000
    105 O2    c      -0.000096      0.000260     -0.000338      0.000000
    106 O3    c      -0.000121      0.000390      0.000596      0.000000
    107 O2    c      -0.000084      0.000145      0.000507      0.000000
    108 O2    c      -0.000133     -0.000055     -0.000828      0.000000
    109 O2    c      -0.000084     -0.000011      0.000189      0.000000
    110 O2    c      -0.000099      0.000235      0.000060      0.000000
    111 O2    c      -0.000165      0.000486     -0.000893      0.000000
    112 O2    c      -0.000058      0.000240      0.000543      0.000000
    113 O2    c      -0.000517      0.000056     -0.001835      0.000000
    114 O2    c      -0.000127      0.000123     -0.000558      0.000000
    115 O3    c       0.000140      0.000256      0.000944      0.000000
    116 O2    c      -0.000124      0.000161      0.000091      0.000000
    117 O2    c      -0.000105      0.000194     -0.000249      0.000000
    118 O2    c      -0.000044      0.000160      0.000035      0.000000
    119 O2    c      -0.000046      0.000258     -0.000026      0.000000
    120 O2    c      -0.000097     -0.000004     -0.000121      0.000000
    121 O2    c      -0.000156      0.000203      0.000003      0.000000
    122 O2    c       0.000195      0.000252     -0.000053      0.000000
    123 O2    c      -0.000065      0.000189      0.000135      0.000000
    124 O2    c       0.000043      0.000262     -0.000177      0.000000
    125 O2    c      -0.000033      0.000169      0.000227      0.000000
    126 O2    c      -0.000132      0.000076     -0.000220      0.000000
    127 O2    c      -0.001116      0.000200     -0.000985      0.000000
    128 O2    c      -0.000138      0.000164     -0.000084      0.000000
    129 O2    c      -0.000067      0.000193      0.000216      0.000000
    130 O2    c      -0.000068      0.000210     -0.000041      0.000000
    131 O2    c      -0.000095      0.000397     -0.000379      0.000000
    132 O2    c      -0.000202     -0.000085      0.000039      0.000000
    133 O2    c      -0.000070      0.000070      0.000050      0.000000
    134 O2    c      -0.000403      0.000363     -0.000007      0.000000
    135 O2    c      -0.000120      0.000230     -0.000028      0.000000
    136 O2    c      -0.000002      0.000289      0.000046      0.000000
    137 O2    c      -0.000093      0.000143     -0.000141      0.000000
    138 O2    c      -0.000168      0.000093      0.000260      0.000000
    139 O2    c      -0.001308      0.000275     -0.001185      0.000000
    140 O2    c      -0.000163      0.000103     -0.000043      0.000000
    141 O2    c      -0.000101      0.000254     -0.000296      0.000000
    142 O2    c      -0.000062      0.000215     -0.000051      0.000000
    143 O2    c       0.000023      0.000252      0.000230      0.000000
    144 O2    c      -0.000124      0.000044     -0.000072      0.000000
    145 O2    c      -0.000118      0.000067      0.000092      0.000000
    146 O2    c      -0.000118      0.000550      0.000606      0.000000
    147 O2    c      -0.000099      0.000234      0.000025      0.000000
    148 O2    c      -0.000083      0.000295      0.000007      0.000000
    149 O2    c      -0.000069      0.000120      0.000281      0.000000
    150 O2    c       0.000065     -0.000232      0.000417      0.000000
    151 O2    c      -0.000118      0.000034      0.000934      0.000000
    152 O2    c      -0.000000      0.000011     -0.000203      0.000000
    153 O2    c      -0.000098      0.000201      0.000219      0.000000
    154 O2    c      -0.000083      0.000171      0.000820      0.000000
    155 O2    c      -0.000073      0.000232     -0.000562      0.000000
    156 O2    c       0.000153     -0.000202     -0.000918      0.000000
    157 O2    c      -0.000104      0.000138      0.000524      0.000000
    158 O2    c      -0.000225      0.000291     -0.001125      0.000000
    159 O2    c      -0.000058      0.000239     -0.000108      0.000000
    160 O2    c       0.000241      0.000278     -0.000633      0.000000
    161 O2    c      -0.000096      0.000211     -0.000516      0.000000
    162 O2    c      -0.000265      0.000173      0.000219      0.000000
    163 O3    c       0.001342     -0.000524      0.001978      0.000000
    164 O2    c      -0.000100      0.000155      0.000105      0.000000
    165 O2    c      -0.000122      0.000207      0.000098      0.000000
    166 O2    c      -0.000094      0.000172      0.000187      0.000000
    167 O2    c       0.000012      0.000231      0.000110      0.000000
    168 O2    c      -0.000295      0.000164      0.000428      0.000000
    169 O2    c      -0.000179      0.000190     -0.000057      0.000000
    170 O2    c       0.000217     -0.000005     -0.000429      0.000000
    171 O2    c      -0.000083      0.000157     -0.000090      0.000000
    172 O2    c       0.000085      0.000284     -0.000169      0.000000
    173 O2    c      -0.000089      0.000225      0.000116      0.000000
    174 O2    c      -0.000213      0.000222      0.000001      0.000000
    175 O2    c      -0.000098      0.000244      0.000101      0.000000
    176 O2    c      -0.000071      0.000200      0.000241      0.000000
    177 O3    c       0.000739     -0.000622      0.002422      0.000000
    178 O2    c      -0.000042      0.000208      0.000038      0.000000
    179 O2    c      -0.000028      0.000026      0.000569      0.000000
    180 O2    c      -0.000142      0.000176     -0.000004      0.000000
    181 F     c      -0.000090      0.000105     -0.000167      0.000000
    182 F     c      -0.000088      0.000207      0.000017      0.000000
    183 F     c      -0.000025      0.000331      0.000597      0.000000
    184 F     c      -0.000046      0.000209      0.000073      0.000000
    185 F     c      -0.000006     -0.000048      0.000506      0.000000
    186 F     c      -0.000109      0.000138      0.000034      0.000000
    187 O2    s       0.000185      0.000451     -0.000499      0.000000
    188 O2    s      -0.000126      0.000292      0.000433      0.000000
    189 O2    s       0.000004      0.000190     -0.000152      0.000000
    190 O2    s      -0.000092      0.000235     -0.000085      0.000000
    191 O3    s       0.000343      0.000030      0.000001      0.000000
    192 O2    s       0.000007     -0.000022      0.000175      0.000000
    193 O2    s      -0.000103      0.000130     -0.000031      0.000000
    194 O2    s      -0.000119      0.000213     -0.000108      0.000000
    195 O2    s       0.000023      0.000105      0.000118      0.000000
    196 O2    s       0.000026      0.000234      0.000198      0.000000
    197 O2    s      -0.000182      0.000059     -0.000174      0.000000
    198 O2    s      -0.000097      0.000197      0.000549      0.000000
    199 O3    s      -0.000073      0.003286      0.002176      0.000000
    200 O2    s      -0.000096      0.000170     -0.000239      0.000000
    201 O2    s      -0.000144      0.000145      0.000382      0.000000
    202 O2    s      -0.000063      0.000197      0.000238      0.000000
    203 O2    s      -0.000032      0.000036     -0.000392      0.000000
    204 O2    s      -0.000023      0.000272      0.000157      0.000000
    205 O2    s      -0.000079      0.000199     -0.000903      0.000000
    206 O2    s      -0.000207      0.000364      0.000907      0.000000
    207 O2    s      -0.000119      0.000199     -0.000465      0.000000
    208 O2    s      -0.000106      0.000161     -0.000329      0.000000
    209 O2    s       0.000038      0.000224      0.000647      0.000000
    210 O2    s      -0.000028      0.000059     -0.000256      0.000000
    211 O2    s      -0.000145      0.000197     -0.000247      0.000000
    212 O2    s      -0.000107      0.000002      0.001520      0.000000
    213 O2    s      -0.000154      0.000259     -0.000338      0.000000
    214 O3    s       0.000215     -0.000278     -0.000148      0.000000
    215 O2    s      -0.000085      0.000185      0.000652      0.000000
    216 O2    s      -0.000159      0.000040     -0.000638      0.000000
    217 O2    s      -0.000223      0.000003      0.000442      0.000000
    218 O2    s      -0.000108      0.000241     -0.000039      0.000000
    219 O3    s      -0.000499      0.000205     -0.003520      0.000000
    220 O2    s      -0.000009      0.000300     -0.000499      0.000000
    221 O2    s      -0.000350      0.000617      0.001544      0.000000
    222 O2    s      -0.000141      0.000207      0.000107      0.000000
    223 O2    s       0.000362     -0.000120     -0.000538      0.000000
    224 O2    s      -0.000103     -0.000091     -0.000719      0.000000
    225 O2    s      -0.000142      0.000225      0.001086      0.000000
    226 O2    s      -0.000037      0.000159     -0.000068      0.000000
    227 O2    s       0.000103      0.000232     -0.000431      0.000000
    228 O2    s      -0.000233      0.000005      0.000375      0.000000
    229 O2    s      -0.000107      0.000178      0.000442      0.000000
    230 O2    s      -0.000692      0.000568     -0.000115      0.000000
    231 O2    s      -0.000114      0.000298      0.000280      0.000000
    232 O3    s      -0.000378      0.000675     -0.000788      0.000000
    233 O2    s      -0.000116      0.000177     -0.000525      0.000000
    234 O2    s      -0.000209      0.000052      0.001068      0.000000
    235 O2    s      -0.000135      0.000121     -0.000013      0.000000
    236 O2    s      -0.000058      0.000203      0.000008      0.000000
    237 O2    s      -0.000003      0.000155      0.000244      0.000000
    238 O2    s      -0.000057      0.000209     -0.000263      0.000000
    239 O2    s      -0.000060      0.000139     -0.000400      0.000000
    240 O2    s      -0.000143      0.000156      0.000344      0.000000
    241 O3    s       0.000131     -0.000114     -0.001244      0.000000
    242 O2    s      -0.000081      0.000138     -0.000047      0.000000
    243 O2    s      -0.000112      0.000209      0.000419      0.000000
    244 O2    s      -0.000149      0.000184      0.000042      0.000000
    245 O2    s      -0.000023      0.000262      0.000206      0.000000
    246 O2    s       0.000059     -0.000094      0.000461      0.000000
    247 O2    s      -0.000080      0.000091      0.000073      0.000000
    248 O2    s      -0.000218     -0.000175     -0.000226      0.000000
    249 O2    s      -0.000081      0.000193     -0.000121      0.000000
    250 O2    s       0.000078      0.000105      0.000126      0.000000
    251 O2    s      -0.000127      0.000232     -0.000307      0.000000
    252 O2    s      -0.000213      0.000116      0.000337      0.000000
    253 O2    s      -0.000102      0.000731      0.001222      0.000000
    254 O2    s      -0.000139      0.000141      0.000111      0.000000
    255 O2    s      -0.000114      0.000205     -0.000272      0.000000
    256 O2    s      -0.000089      0.000219      0.000097      0.000000
    257 O2    s      -0.000091      0.000317      0.000518      0.000000
    258 O2    s      -0.000098      0.000106     -0.000162      0.000000
    259 O2    s      -0.000132      0.000131      0.000143      0.000000
    260 O2    s       0.000051      0.000181      0.000541      0.000000
    261 O2    s      -0.000073      0.000184      0.000146      0.000000
    262 O2    s      -0.000016      0.000236      0.000114      0.000000
    263 O2    s      -0.000094      0.000165      0.000291      0.000000
    264 O2    s      -0.000400      0.000365      0.000181      0.000000
    265 O2    s       0.001718     -0.002077      0.000348      0.000000
    266 O2    s      -0.000157      0.000217      0.000082      0.000000
    267 O2    s      -0.000054      0.000174      0.000389      0.000000
    268 O2    s      -0.000081      0.000216      0.000112      0.000000
    269 O2    s      -0.000088      0.000273     -0.000307      0.000000
    270 O2    s      -0.000169      0.000042      0.000003      0.000000
    271 O2    s      -0.000087      0.000175      0.000147      0.000000
    272 O2    s      -0.000138      0.000138     -0.000351      0.000000
    273 O2    s      -0.000099      0.000171      0.000080      0.000000
    274 O2    s       0.000038      0.000166      0.000118      0.000000
    275 O2    s      -0.000108      0.000155     -0.000298      0.000000
    276 O2    s       0.000007     -0.000025     -0.000481      0.000000
    277 O2    s       0.000126      0.000268     -0.000240      0.000000
    278 O2    s      -0.000182      0.000175      0.000277      0.000000
    279 O2    s      -0.000077      0.000207     -0.000144      0.000000
    280 O2    s      -0.000130      0.000151     -0.000588      0.000000
    281 O2    s      -0.000015      0.000195      0.000437      0.000000
    282 O2    s      -0.000235      0.000316      0.000732      0.000000
    283 O2    s      -0.000119      0.000200     -0.000372      0.000000
    284 O2    s       0.000020     -0.000316      0.001126      0.000000
    285 O2    s      -0.000026      0.000242      0.000207      0.000000
    286 O2    s      -0.000134      0.000379      0.000042      0.000000
    287 O2    s      -0.000060      0.000167      0.000457      0.000000
    288 O2    s      -0.000052      0.000064     -0.000158      0.000000
    289 O3    s      -0.001143      0.000285     -0.002243      0.000000
    290 O2    s      -0.000128      0.000229      0.000030      0.000000
    291 O2    s      -0.000091      0.000205     -0.000068      0.000000
    292 O2    s      -0.000087      0.000157     -0.000168      0.000000
    293 O2    s      -0.000097      0.000336     -0.000048      0.000000
    294 O2    s      -0.000158      0.000143     -0.000061      0.000000
    295 O2    s      -0.000077      0.000100      0.000159      0.000000
    296 O2    s      -0.000188      0.000319      0.000090      0.000000
    297 O2    s      -0.000101      0.000201      0.000183      0.000000
    298 O2    s       0.000258      0.000106      0.000330      0.000000
    299 O2    s      -0.000055      0.000160     -0.000111      0.000000
    300 O2    s      -0.000140     -0.000028     -0.000067      0.000000
    301 O2    s      -0.000164      0.000040      0.000140      0.000000
    302 O2    s      -0.000144      0.000205     -0.000189      0.000000
    303 O3    s      -0.000335      0.000866     -0.002264      0.000000
    304 O2    s      -0.000081      0.000240      0.000181      0.000000
    305 O2    s       0.000022      0.000154     -0.000299      0.000000
    306 O2    s      -0.000074      0.000140      0.000030      0.000000
    307 F     s      -0.000206      0.000069      0.000344      0.000000
    308 F     s      -0.000099      0.000223      0.000025      0.000000
    309 F     s       0.000373     -0.000301     -0.000328      0.000000
    310 F     s      -0.000081      0.000240      0.000043      0.000000
    311 F     s      -0.000267      0.000092     -0.000943      0.000000
    312 F     s      -0.000145      0.000160      0.000004      0.000000
--------------------------------------------------------------------------------
  Maximum abs         0.002612      0.003286      0.009437      0.000000
--------------------------------------------------------------------------------


  Time to end of optimisation =      27.2828 seconds


  Peak dynamic memory used =      19.13 MB 


  Timing analysis for GULP :

--------------------------------------------------------------------------------
  Task / Subroutine                                          Time (Seconds)
--------------------------------------------------------------------------------
  Calculation of reciprocal space energy and derivatives          0.7089
  Calculation of real space energy and derivatives               23.6004
  Calculation of three-body energy and derivatives                2.5212
  Calculation of matrix inversion                                 0.3732
--------------------------------------------------------------------------------
  Total CPU time                                                 27.2829
--------------------------------------------------------------------------------


  Dump file written as out.res                                                 
  CIF file written as out.cif                                                 


  Job Finished at 05:24.52 23rd October    2016                               

