********************************************************************************
*                       GENERAL UTILITY LATTICE PROGRAM                        *
*                                 Julian Gale                                  *
*                      Nanochemistry Research Institute                        *
*                           Department of Chemistry                            *
*                    Curtin University, Western Australia                      *
********************************************************************************
* Version = 4.2.0 * Last modified =  20th January 2014                         *
********************************************************************************
*  optimise     - perform optimisation run                                     *
*  conp         - constant pressure calculation                                *
*  qok          - running with non charge neutral cell is OK                   *
********************************************************************************

  Job Started  at 03:44.48 24th October    2016                               

  Number of CPUs =     1


  Total number of configurations input =   1

********************************************************************************
*  Input for Configuration =   1                                               *
********************************************************************************

  Formula = Si58Ge2O120F6                                               

  Number of irreducible atoms/shells =     312


  Total number atoms/shells =     312

  Dimensionality = 3               :  Bulk   


  Charge on solid   =  -6.000000 =>neutralising background added


  Cartesian lattice vectors (Angstroms) :

       11.976696    0.000000    0.000000
       -6.025458   10.332975    0.000000
        0.083146    0.179669   29.494423

  Cell parameters (Angstroms/Degrees):

  a =      11.9767    alpha =  89.7799
  b =      11.9615    beta  =  89.8385
  c =      29.4951    gamma = 120.2477

  Initial cell volume =        3650.079435 Angs**3

  Temperature of configuration =  0.000     K 

  Pressure of configuration =         0.000 GPa 

  Fractional coordinates of asymmetric unit :

--------------------------------------------------------------------------------
   No.  Atomic       x           y          z         Charge      Occupancy
        Label      (Frac)      (Frac)     (Frac)        (e)         (Frac)  
--------------------------------------------------------------------------------
      1 Si    c    0.699600    0.375700    0.033890     4.00000    1.000000    
      2 Si    c    0.619278 *  0.322809 *  0.365725 *   4.00000    1.000000    
      3 Si    c    0.674338 *  0.296822 *  0.699252 *   4.00000    1.000000    
      4 Si    c    0.299842 *  0.627152 *  0.532267 *   4.00000    1.000000    
      5 Si    c    0.373353 *  0.675731 *  0.866063 *   4.00000    1.000000    
      6 Si    c    0.323180 *  0.702712 *  0.199629 *   4.00000    1.000000    
      7 Si    c    0.377360 *  0.701614 *  0.300078 *   4.00000    1.000000    
      8 Si    c    0.316921 *  0.625233 *  0.968688 *   4.00000    1.000000    
      9 Si    c    0.297773 *  0.675347 *  0.633244 *   4.00000    1.000000    
     10 Si    c    0.618541 *  0.296303 *  0.799653 *   4.00000    1.000000    
     11 Si    c    0.677780 *  0.379891 *  0.465690 *   4.00000    1.000000    
     12 Si    c    0.702525 *  0.323692 *  0.134056 *   4.00000    1.000000    
     13 Si    c    0.526915 *  0.410111 *  0.968604 *   4.00000    1.000000    
     14 Si    c    0.582377 *  0.113210 *  0.300596 *   4.00000    1.000000    
     15 Si    c    0.885803 *  0.467524 *  0.633802 *   4.00000    1.000000    
     16 Si    c    0.468899 *  0.585788 *  0.466838 *   4.00000    1.000000    
     17 Si    c    0.415642 *  0.887644 *  0.800144 *   4.00000    1.000000    
     18 Si    c    0.112234 *  0.533561 *  0.134631 *   4.00000    1.000000    
     19 Si    c    0.414845 *  0.529770 *  0.365507 *   4.00000    1.000000    
     20 Si    c    0.111273 *  0.589538 *  0.033250 *   4.00000    1.000000    
     21 Si    c    0.466894 *  0.885083 *  0.698621 *   4.00000    1.000000    
     22 Si    c    0.580104 *  0.466811 *  0.865248 *   4.00000    1.000000    
     23 Si    c    0.885482 *  0.421099 *  0.532049 *   4.00000    1.000000    
     24 Si    c    0.530209 *  0.112978 *  0.199168 *   4.00000    1.000000    
     25 Si    c    0.294987 *  0.394506 *  0.848670 *   4.00000    1.000000    
     26 Si    c    0.602474 *  0.904550 *  0.184953 *   4.00000    1.000000    
     27 Si    c    0.097561 *  0.703264 *  0.518940 *   4.00000    1.000000    
     28 Si    c    0.695804 *  0.601908 *  0.349998 *   4.00000    1.000000    
     29 Si    c    0.395813 *  0.095091 *  0.684348 *   4.00000    1.000000    
     30 Si    c    0.906034 *  0.305434 *  0.018174 *   4.00000    1.000000    
     31 Si    c    0.401690 *  0.306346 *  0.481827 *   4.00000    1.000000    
     32 Si    c    0.901649 *  0.602419 *  0.148766 *   4.00000    1.000000    
     33 Si    c    0.696984 *  0.096074 *  0.814348 *   4.00000    1.000000    
     34 Si    c    0.598145 *  0.695523 *  0.983140 *   4.00000    1.000000    
     35 Si    c    0.095184 *  0.395419 *  0.646989 *   4.00000    1.000000    
     36 Si    c    0.301024 *  0.902873 *  0.314274 *   4.00000    1.000000    
     37 Ge    c    0.262686 *  0.356970 *  0.948454 *   4.00000    1.000000    
     38 Si    c    0.659436 *  0.911877 *  0.285532 *   4.00000    1.000000    
     39 Si    c    0.089247 *  0.747402 *  0.619884 *   4.00000    1.000000    
     40 Si    c    0.746222 *  0.659542 *  0.450364 *   4.00000    1.000000    
     41 Si    c    0.336807 *  0.087739 *  0.784998 *   4.00000    1.000000    
     42 Si    c    0.912181 *  0.253634 *  0.118937 *   4.00000    1.000000    
     43 Si    c    0.337715 *  0.250554 *  0.382143 *   4.00000    1.000000    
     44 Si    c    0.905817 *  0.660386 *  0.048468 *   4.00000    1.000000    
     45 Si    c    0.746306 *  0.087701 *  0.713726 *   4.00000    1.000000    
     46 Si    c    0.659797 *  0.748495 *  0.881156 *   4.00000    1.000000    
     47 Si    c    0.087954 *  0.345490 *  0.545994 *   4.00000    1.000000    
     48 Si    c    0.250173 *  0.911203 *  0.213938 *   4.00000    1.000000    
     49 Si    c    0.976814 *  0.127757 *  0.966789 *   4.00000    1.000000    
     50 Si    c    0.877806 *  0.851189 *  0.299459 *   4.00000    1.000000    
     51 Si    c    0.146809 *  0.024372 *  0.634837 *   4.00000    1.000000    
     52 Si    c    0.025488 *  0.876928 *  0.465672 *   4.00000    1.000000    
     53 Si    c    0.118694 *  0.149361 *  0.799123 *   4.00000    1.000000    
     54 Si    c    0.850164 *  0.973124 *  0.133383 *   4.00000    1.000000    
     55 Si    c    0.120267 *  0.969810 *  0.364683 *   4.00000    1.000000    
     56 Si    c    0.847364 *  0.880723 *  0.032165 *   4.00000    1.000000    
     57 Si    c    0.024803 *  0.146945 *  0.698749 *   4.00000    1.000000    
     58 Si    c    0.877998 *  0.031939 *  0.866353 *   4.00000    1.000000    
     59 Ge    c    0.149003 *  0.123609 *  0.531891 *   4.00000    1.000000    
     60 Si    c    0.970773 *  0.850930 *  0.198556 *   4.00000    1.000000    
     61 O2    c    0.924709 *  0.000526 *  0.998741 *   0.87073    1.000000    
     62 O2    c    0.000570 *  0.930884 *  0.331489 *   0.87073    1.000000    
     63 O2    c    0.066871 *  0.065477 *  0.667652 *   0.87073    1.000000    
     64 O3    c    0.060125 *  0.998871 *  0.495701 *   1.33043    1.000000    
     65 O2    c    0.999709 *  0.073093 *  0.833554 *   0.87073    1.000000    
     66 O2    c    0.931365 *  0.930927 *  0.165028 *   0.87073    1.000000    
     67 O2    c    0.338059 *  0.577798 *  0.332945 *   0.87073    1.000000    
     68 O2    c    0.419821 *  0.759722 *  0.666427 *   0.87073    1.000000    
     69 O2    c    0.237984 *  0.672387 *  0.001007 *   0.87073    1.000000    
     70 O2    c    0.656740 *  0.419104 *  0.832595 *   0.87073    1.000000    
     71 O2    c    0.579097 *  0.238912 *  0.166907 *   0.87073    1.000000    
     72 O2    c    0.762337 *  0.343372 *  0.498978 *   0.87073    1.000000    
     73 O2    c    0.580834 *  0.336505 *  0.999869 *   0.87073    1.000000    
     74 O2    c    0.760603 *  0.420030 *  0.666502 *   0.87073    1.000000    
     75 O2    c    0.657773 *  0.238863 *  0.332949 *   0.87073    1.000000    
     76 O2    c    0.422405 *  0.664915 *  0.499065 *   0.87073    1.000000    
     77 O2    c    0.237826 *  0.580618 *  0.166760 *   0.87073    1.000000    
     78 O2    c    0.339041 *  0.762381 *  0.833240 *   0.87073    1.000000    
     79 O3    c    0.126189 *  0.213140 *  0.970901 *   1.33043    1.000000    
     80 O2    c    0.786235 *  0.913319 *  0.305666 *   0.87073    1.000000    
     81 O2    c    0.087950 *  0.870605 *  0.641891 *   0.87073    1.000000    
     82 O2    c    0.871609 *  0.783700 *  0.471063 *   0.87073    1.000000    
     83 O2    c    0.209174 *  0.085432 *  0.804754 *   0.87073    1.000000    
     84 O2    c    0.913467 *  0.127530 *  0.138943 *   0.87073    1.000000    
     85 O2    c    0.211523 *  0.125103 *  0.361640 *   0.87073    1.000000    
     86 O2    c    0.906923 *  0.786604 *  0.027518 *   0.87073    1.000000    
     87 O2    c    0.870899 *  0.086285 *  0.692808 *   0.87073    1.000000    
     88 O2    c    0.784664 *  0.876025 *  0.861210 *   0.87073    1.000000    
     89 O3    c    0.083941 *  0.221699 *  0.524273 *   1.33043    1.000000    
     90 O2    c    0.125259 *  0.912826 *  0.193641 *   0.87073    1.000000    
     91 O2    c    0.930174 *  0.866427 *  0.248721 *   0.87073    1.000000    
     92 O3    c    0.124855 *  0.057362 *  0.584981 *   1.33043    1.000000    
     93 O2    c    0.926302 *  0.070591 *  0.916782 *   0.87073    1.000000    
     94 O2    c    0.059617 *  0.130911 *  0.749555 *   0.87073    1.000000    
     95 O2    c    0.860371 *  0.934246 *  0.082515 *   0.87073    1.000000    
     96 O2    c    0.064666 *  0.923587 *  0.414458 *   0.87073    1.000000    
     97 O2    c    0.907346 *  0.210994 *  0.979426 *   0.87073    1.000000    
     98 O2    c    0.794694 *  0.698539 *  0.311377 *   0.87073    1.000000    
     99 O2    c    0.299988 *  0.097465 *  0.645915 *   0.87073    1.000000    
    100 O2    c    0.100517 *  0.802192 *  0.480676 *   0.87073    1.000000    
    101 O2    c    0.206253 *  0.303505 *  0.807112 *   0.87073    1.000000    
    102 O2    c    0.698747 *  0.902546 *  0.146537 *   0.87073    1.000000    
    103 O2    c    0.202609 *  0.901172 *  0.352513 *   0.87073    1.000000    
    104 O2    c    0.694422 *  0.795263 *  0.020644 *   0.87073    1.000000    
    105 O2    c    0.096957 *  0.298567 *  0.685421 *   0.87073    1.000000    
    106 O2    c    0.794951 *  0.099262 *  0.852787 *   0.87073    1.000000    
    107 O3    c    0.312116 *  0.210847 *  0.521711 *   1.33043    1.000000    
    108 O2    c    0.900089 *  0.698607 *  0.187320 *   0.87073    1.000000    
    109 O2    c    0.321015 *  0.644112 *  0.249921 *   0.87073    1.000000    
    110 O2    c    0.356844 *  0.680391 *  0.582828 *   0.87073    1.000000    
    111 O2    c    0.319685 *  0.676289 *  0.916676 *   0.87073    1.000000    
    112 O2    c    0.675961 *  0.354876 *  0.749434 *   0.87073    1.000000    
    113 O2    c    0.641598 *  0.320021 *  0.084202 *   0.87073    1.000000    
    114 O2    c    0.678469 *  0.323206 *  0.415566 *   0.87073    1.000000    
    115 O3    c    0.375011 *  0.319974 *  0.973078 *   1.33043    1.000000    
    116 O2    c    0.669517 *  0.044286 *  0.303947 *   0.87073    1.000000    
    117 O2    c    0.956125 *  0.623804 *  0.637650 *   0.87073    1.000000    
    118 O2    c    0.625435 *  0.671773 *  0.469072 *   0.87073    1.000000    
    119 O2    c    0.328219 *  0.955964 *  0.803846 *   0.87073    1.000000    
    120 O2    c    0.043435 *  0.376879 *  0.137710 *   0.87073    1.000000    
    121 O2    c    0.327716 *  0.372913 *  0.363461 *   0.87073    1.000000    
    122 O2    c    0.040227 *  0.674352 *  0.030572 *   0.87073    1.000000    
    123 O2    c    0.623358 *  0.954509 *  0.696126 *   0.87073    1.000000    
    124 O2    c    0.665764 *  0.623921 *  0.863331 *   0.87073    1.000000    
    125 O2    c    0.954947 *  0.335403 *  0.528989 *   0.87073    1.000000    
    126 O2    c    0.373909 *  0.044449 *  0.196116 *   0.87073    1.000000    
    127 O2    c    0.770262 *  0.302691 *  0.012102 *   0.87073    1.000000    
    128 O2    c    0.693361 *  0.466520 *  0.343042 *   0.87073    1.000000    
    129 O2    c    0.530968 *  0.229354 *  0.677089 *   0.87073    1.000000    
    130 O2    c    0.231676 *  0.703465 *  0.511072 *   0.87073    1.000000    
    131 O2    c    0.299426 *  0.532504 *  0.843955 *   0.87073    1.000000    
    132 O2    c    0.467433 *  0.770556 *  0.177636 *   0.87073    1.000000    
    133 O2    c    0.301666 *  0.769155 *  0.322349 *   0.87073    1.000000    
    134 O2    c    0.463805 *  0.695407 *  0.988393 *   0.87073    1.000000    
    135 O2    c    0.228975 *  0.530485 *  0.654942 *   0.87073    1.000000    
    136 O2    c    0.693719 *  0.228495 *  0.822063 *   0.87073    1.000000    
    137 O2    c    0.534990 *  0.305012 *  0.488388 *   0.87073    1.000000    
    138 O2    c    0.768715 *  0.466512 *  0.156900 *   0.87073    1.000000    
    139 O2    c    0.780014 *  0.533351 *  0.029289 *   0.87073    1.000000    
    140 O2    c    0.462721 *  0.248158 *  0.362786 *   0.87073    1.000000    
    141 O2    c    0.747301 *  0.214166 *  0.694202 *   0.87073    1.000000    
    142 O2    c    0.216126 *  0.471475 *  0.526877 *   0.87073    1.000000    
    143 O2    c    0.528632 *  0.739904 *  0.863888 *   0.87073    1.000000    
    144 O2    c    0.249926 *  0.785232 *  0.194624 *   0.87073    1.000000    
    145 O2    c    0.533762 *  0.784100 *  0.305067 *   0.87073    1.000000    
    146 O3    c    0.235106 *  0.472011 *  0.975638 *   1.33043    1.000000    
    147 O2    c    0.216071 *  0.749011 *  0.638923 *   0.87073    1.000000    
    148 O2    c    0.461961 *  0.215214 *  0.804489 *   0.87073    1.000000    
    149 O2    c    0.750527 *  0.535835 *  0.469846 *   0.87073    1.000000    
    150 O2    c    0.783905 *  0.248969 *  0.138550 *   0.87073    1.000000    
    151 O3    c    0.214287 *  0.311256 *  0.891447 *   1.33043    1.000000    
    152 O2    c    0.677225 *  0.909975 *  0.231286 *   0.87073    1.000000    
    153 O2    c    0.093827 *  0.772236 *  0.565703 *   0.87073    1.000000    
    154 O2    c    0.765580 *  0.677294 *  0.396084 *   0.87073    1.000000    
    155 O2    c    0.320456 *  0.089433 *  0.730710 *   0.87073    1.000000    
    156 O2    c    0.912822 *  0.236647 *  0.064720 *   0.87073    1.000000    
    157 O2    c    0.319563 *  0.231810 *  0.436733 *   0.87073    1.000000    
    158 O2    c    0.903861 *  0.678001 *  0.102744 *   0.87073    1.000000    
    159 O2    c    0.767300 *  0.092068 *  0.767943 *   0.87073    1.000000    
    160 O2    c    0.668806 *  0.757668 *  0.935363 *   0.87073    1.000000    
    161 O2    c    0.092780 *  0.323372 *  0.600272 *   0.87073    1.000000    
    162 O2    c    0.230248 *  0.907577 *  0.268219 *   0.87073    1.000000    
    163 O2    c    0.578854 *  0.553548 *  0.990467 *   0.87073    1.000000    
    164 O2    c    0.440222 *  0.029018 *  0.323442 *   0.87073    1.000000    
    165 O2    c    0.968387 *  0.407228 *  0.655788 *   0.87073    1.000000    
    166 O2    c    0.412637 *  0.444828 *  0.490607 *   0.87073    1.000000    
    167 O2    c    0.557548 *  0.968434 *  0.823076 *   0.87073    1.000000    
    168 O2    c    0.028640 *  0.591175 *  0.157673 *   0.87073    1.000000    
    169 O2    c    0.555845 *  0.586734 *  0.341886 *   0.87073    1.000000    
    170 O2    c    0.027616 *  0.448854 *  0.009982 *   0.87073    1.000000    
    171 O2    c    0.410984 *  0.970301 *  0.675645 *   0.87073    1.000000    
    172 O2    c    0.439083 *  0.414991 *  0.843203 *   0.87073    1.000000    
    173 O2    c    0.970654 *  0.564528 *  0.510109 *   0.87073    1.000000    
    174 O2    c    0.587789 *  0.029500 *  0.176088 *   0.87073    1.000000    
    175 O2    c    0.583661 *  0.166597 *  0.249777 *   0.87073    1.000000    
    176 O2    c    0.831192 *  0.417825 *  0.582995 *   0.87073    1.000000    
    177 O2    c    0.578404 *  0.416282 *  0.916450 *   0.87073    1.000000    
    178 O2    c    0.413091 *  0.832428 *  0.749621 *   0.87073    1.000000    
    179 O2    c    0.164880 *  0.588032 *  0.083775 *   0.87073    1.000000    
    180 O2    c    0.415288 *  0.584235 *  0.416081 *   0.87073    1.000000    
    181 F     c    0.451544 *  0.903945 *  0.250266 *   0.56000    1.000000    
    182 F     c    0.095856 *  0.549293 *  0.583320 *   0.56000    1.000000    
    183 F     c    0.412725 *  0.509049 *  0.921740 *   0.56000    1.000000    
    184 F     c    0.545318 *  0.095087 *  0.750273 *   0.56000    1.000000    
    185 F     c    0.900831 *  0.454327 *  0.085216 *   0.56000    1.000000    
    186 F     c    0.544583 *  0.451066 *  0.416864 *   0.56000    1.000000    
    187 O2    s    0.921239 *  0.000072 *  0.999236 *  -2.87073    1.000000    
    188 O2    s    0.000184 *  0.926329 *  0.331605 *  -2.87073    1.000000    
    189 O2    s    0.070968 *  0.070181 *  0.667552 *  -2.87073    1.000000    
    190 O3    s    0.064140 *  0.996471 *  0.495595 *  -3.33043    1.000000    
    191 O2    s    0.999360 *  0.076950 *  0.833367 *  -2.87073    1.000000    
    192 O2    s    0.926719 *  0.926714 *  0.165243 *  -2.87073    1.000000    
    193 O2    s    0.349987 *  0.585504 *  0.332931 *  -2.87073    1.000000    
    194 O2    s    0.412230 *  0.764042 *  0.666355 *  -2.87073    1.000000    
    195 O2    s    0.233333 *  0.659493 *  0.000964 *  -2.87073    1.000000    
    196 O2    s    0.644884 *  0.411613 *  0.832638 *  -2.87073    1.000000    
    197 O2    s    0.586747 *  0.234489 *  0.166878 *  -2.87073    1.000000    
    198 O2    s    0.766357 *  0.355209 *  0.498954 *  -2.87073    1.000000    
    199 O2    s    0.588006 *  0.348475 *  0.000251 *  -2.87073    1.000000    
    200 O2    s    0.764519 *  0.412088 *  0.666550 *  -2.87073    1.000000    
    201 O2    s    0.646027 *  0.234620 *  0.333023 *  -2.87073    1.000000    
    202 O2    s    0.414592 *  0.653025 *  0.499197 *  -2.87073    1.000000    
    203 O2    s    0.233767 *  0.588404 *  0.166869 *  -2.87073    1.000000    
    204 O2    s    0.350509 *  0.766006 *  0.833333 *  -2.87073    1.000000    
    205 O3    s    0.118305 *  0.213028 *  0.968961 *  -3.33043    1.000000    
    206 O2    s    0.782867 *  0.906583 *  0.302963 *  -2.87073    1.000000    
    207 O2    s    0.094303 *  0.873976 *  0.638883 *  -2.87073    1.000000    
    208 O2    s    0.874748 *  0.780427 *  0.468290 *  -2.87073    1.000000    
    209 O2    s    0.212951 *  0.092354 *  0.802138 *  -2.87073    1.000000    
    210 O2    s    0.906602 *  0.124064 *  0.136322 *  -2.87073    1.000000    
    211 O2    s    0.214924 *  0.121614 *  0.364074 *  -2.87073    1.000000    
    212 O2    s    0.900432 *  0.783552 *  0.030153 *  -2.87073    1.000000    
    213 O2    s    0.874229 *  0.092857 *  0.695584 *  -2.87073    1.000000    
    214 O2    s    0.780745 *  0.878169 *  0.863841 *  -2.87073    1.000000    
    215 O3    s    0.089756 *  0.226133 *  0.527095 *  -3.33043    1.000000    
    216 O2    s    0.121849 *  0.906100 *  0.196244 *  -2.87073    1.000000    
    217 O2    s    0.928821 *  0.862960 *  0.248817 *  -2.87073    1.000000    
    218 O3    s    0.129366 *  0.059566 *  0.585779 *  -3.33043    1.000000    
    219 O2    s    0.925953 *  0.072072 *  0.916144 *  -2.87073    1.000000    
    220 O2    s    0.062375 *  0.134829 *  0.749417 *  -2.87073    1.000000    
    221 O2    s    0.857741 *  0.932597 *  0.082598 *  -2.87073    1.000000    
    222 O2    s    0.066641 *  0.923625 *  0.414519 *  -2.87073    1.000000    
    223 O2    s    0.914136 *  0.212557 *  0.982222 *  -2.87073    1.000000    
    224 O2    s    0.793329 *  0.704733 *  0.314075 *  -2.87073    1.000000    
    225 O2    s    0.293894 *  0.089679 *  0.648663 *  -2.87073    1.000000    
    226 O2    s    0.092344 *  0.799818 *  0.483083 *  -2.87073    1.000000    
    227 O2    s    0.205942 *  0.296457 *  0.810372 *  -2.87073    1.000000    
    228 O2    s    0.704925 *  0.910243 *  0.149094 *  -2.87073    1.000000    
    229 O2    s    0.203934 *  0.908714 *  0.349862 *  -2.87073    1.000000    
    230 O2    s    0.699953 *  0.793482 *  0.017871 *  -2.87073    1.000000    
    231 O2    s    0.089112 *  0.292357 *  0.682915 *  -2.87073    1.000000    
    232 O2    s    0.793576 *  0.091768 *  0.850226 *  -2.87073    1.000000    
    233 O3    s    0.307093 *  0.212722 *  0.518738 *  -3.33043    1.000000    
    234 O2    s    0.907780 *  0.705097 *  0.184613 *  -2.87073    1.000000    
    235 O2    s    0.326969 *  0.655914 *  0.249923 *  -2.87073    1.000000    
    236 O2    s    0.345115 *  0.674516 *  0.582837 *  -2.87073    1.000000    
    237 O2    s    0.324940 *  0.671186 *  0.916530 *  -2.87073    1.000000    
    238 O2    s    0.669916 *  0.343000 *  0.749488 *  -2.87073    1.000000    
    239 O2    s    0.653739 *  0.326156 *  0.084039 *  -2.87073    1.000000    
    240 O2    s    0.672411 *  0.328946 *  0.415639 *  -2.87073    1.000000    
    241 O3    s    0.382749 *  0.332108 *  0.970790 *  -3.33043    1.000000    
    242 O2    s    0.659500 *  0.037555 *  0.301673 *  -2.87073    1.000000    
    243 O2    s    0.962928 *  0.620618 *  0.635349 *  -2.87073    1.000000    
    244 O2    s    0.621819 *  0.661556 *  0.466867 *  -2.87073    1.000000    
    245 O2    s    0.338179 *  0.962633 *  0.801486 *  -2.87073    1.000000    
    246 O2    s    0.036751 *  0.380111 *  0.135416 *  -2.87073    1.000000    
    247 O2    s    0.337767 *  0.376326 *  0.365642 *  -2.87073    1.000000    
    248 O2    s    0.033471 *  0.664014 *  0.032752 *  -2.87073    1.000000    
    249 O2    s    0.620084 *  0.961339 *  0.698253 *  -2.87073    1.000000    
    250 O2    s    0.656389 *  0.620995 *  0.865403 *  -2.87073    1.000000    
    251 O2    s    0.961667 *  0.345627 *  0.531141 *  -2.87073    1.000000    
    252 O2    s    0.377011 *  0.037474 *  0.198325 *  -2.87073    1.000000    
    253 O2    s    0.777201 *  0.310512 *  0.015030 *  -2.87073    1.000000    
    254 O2    s    0.685969 *  0.465994 *  0.346146 *  -2.87073    1.000000    
    255 O2    s    0.531486 *  0.222149 *  0.680173 *  -2.87073    1.000000    
    256 O2    s    0.224693 *  0.695581 *  0.514123 *  -2.87073    1.000000    
    257 O2    s    0.306648 *  0.533359 *  0.846773 *  -2.87073    1.000000    
    258 O2    s    0.466762 *  0.777647 *  0.180708 *  -2.87073    1.000000    
    259 O2    s    0.309382 *  0.776279 *  0.319175 *  -2.87073    1.000000    
    260 O2    s    0.463206 *  0.688284 *  0.985810 *  -2.87073    1.000000    
    261 O2    s    0.222078 *  0.531303 *  0.651836 *  -2.87073    1.000000    
    262 O2    s    0.686269 *  0.221588 *  0.818902 *  -2.87073    1.000000    
    263 O2    s    0.535881 *  0.313045 *  0.485252 *  -2.87073    1.000000    
    264 O2    s    0.775985 *  0.466225 *  0.153659 *  -2.87073    1.000000    
    265 O2    s    0.785514 *  0.531131 *  0.031802 *  -2.87073    1.000000    
    266 O2    s    0.465664 *  0.256347 *  0.365171 *  -2.87073    1.000000    
    267 O2    s    0.739432 *  0.208942 *  0.696835 *  -2.87073    1.000000    
    268 O2    s    0.211109 *  0.474419 *  0.529489 *  -2.87073    1.000000    
    269 O2    s    0.526526 *  0.733952 *  0.865998 *  -2.87073    1.000000    
    270 O2    s    0.257700 *  0.790418 *  0.197222 *  -2.87073    1.000000    
    271 O2    s    0.531099 *  0.789435 *  0.302467 *  -2.87073    1.000000    
    272 O3    s    0.245614 *  0.478974 *  0.972931 *  -3.33043    1.000000    
    273 O2    s    0.210799 *  0.740991 *  0.636284 *  -2.87073    1.000000    
    274 O2    s    0.464797 *  0.209885 *  0.801931 *  -2.87073    1.000000    
    275 O2    s    0.742205 *  0.532711 *  0.467296 *  -2.87073    1.000000    
    276 O2    s    0.789376 *  0.257342 *  0.135992 *  -2.87073    1.000000    
    277 O3    s    0.225941 *  0.322995 *  0.891116 *  -3.33043    1.000000    
    278 O2    s    0.667508 *  0.909610 *  0.232193 *  -2.87073    1.000000    
    279 O2    s    0.093769 *  0.762547 *  0.566510 *  -2.87073    1.000000    
    280 O2    s    0.756163 *  0.667477 *  0.396996 *  -2.87073    1.000000    
    281 O2    s    0.330092 *  0.089832 *  0.731609 *  -2.87073    1.000000    
    282 O2    s    0.912061 *  0.245627 *  0.065667 *  -2.87073    1.000000    
    283 O2    s    0.329556 *  0.241171 *  0.435641 *  -2.87073    1.000000    
    284 O2    s    0.903827 *  0.668268 *  0.101813 *  -2.87073    1.000000    
    285 O2    s    0.757688 *  0.092030 *  0.767080 *  -2.87073    1.000000    
    286 O2    s    0.660341 *  0.750068 *  0.934467 *  -2.87073    1.000000    
    287 O2    s    0.092593 *  0.333081 *  0.599617 *  -2.87073    1.000000    
    288 O2    s    0.239773 *  0.907468 *  0.267282 *  -2.87073    1.000000    
    289 O2    s    0.575594 *  0.554738 *  0.987490 *  -2.87073    1.000000    
    290 O2    s    0.440144 *  0.024091 *  0.320048 *  -2.87073    1.000000    
    291 O2    s    0.973535 *  0.412398 *  0.652549 *  -2.87073    1.000000    
    292 O2    s    0.417496 *  0.444828 *  0.487182 *  -2.87073    1.000000    
    293 O2    s    0.557643 *  0.973744 *  0.819759 *  -2.87073    1.000000    
    294 O2    s    0.023609 *  0.586194 *  0.154309 *  -2.87073    1.000000    
    295 O2    s    0.556259 *  0.582252 *  0.345234 *  -2.87073    1.000000    
    296 O2    s    0.023142 *  0.448289 *  0.013330 *  -2.87073    1.000000    
    297 O2    s    0.415370 *  0.974974 *  0.678985 *  -2.87073    1.000000    
    298 O2    s    0.439045 *  0.418495 *  0.846138 *  -2.87073    1.000000    
    299 O2    s    0.975599 *  0.564476 *  0.513382 *  -2.87073    1.000000    
    300 O2    s    0.583182 *  0.024501 *  0.179468 *  -2.87073    1.000000    
    301 O2    s    0.578003 *  0.155470 *  0.249860 *  -2.87073    1.000000    
    302 O2    s    0.842406 *  0.423292 *  0.582992 *  -2.87073    1.000000    
    303 O2    s    0.573499 *  0.420982 *  0.916187 *  -2.87073    1.000000    
    304 O2    s    0.418871 *  0.843554 *  0.749612 *  -2.87073    1.000000    
    305 O2    s    0.153917 *  0.582550 *  0.083835 *  -2.87073    1.000000    
    306 O2    s    0.420777 *  0.578798 *  0.416136 *  -2.87073    1.000000    
    307 F     s    0.451318 *  0.903523 *  0.250323 *  -1.56000    1.000000    
    308 F     s    0.096248 *  0.549472 *  0.583363 *  -1.56000    1.000000    
    309 F     s    0.404571 *  0.501011 *  0.923080 *  -1.56000    1.000000    
    310 F     s    0.545483 *  0.095489 *  0.750365 *  -1.56000    1.000000    
    311 F     s    0.900175 *  0.454169 *  0.085394 *  -1.56000    1.000000    
    312 F     s    0.544557 *  0.450692 *  0.416981 *  -1.56000    1.000000    
--------------------------------------------------------------------------------



********************************************************************************
*  General input information                                                   *
********************************************************************************

  Species output for all configurations : 

--------------------------------------------------------------------------------
  Species    Type    Atomic    Atomic    Charge       Radii (Angs)     Library
                     Number     Mass       (e)     Cova   Ionic  VDW   Symbol
--------------------------------------------------------------------------------
    Si       Core       14      28.09   4.000000   1.200  0.000  2.100          
    O1       Core        8      16.00   1.733957   0.730  0.000  1.360          
    O1       Shell       8       0.00  -3.733957   0.730  0.000  1.360          
    O2       Core        8      16.00   0.870733   0.730  0.000  1.360          
    O2       Shell       8       0.00  -2.870733   0.730  0.000  1.360          
    O3       Core        8      16.00   1.330431   0.730  0.000  1.360          
    O3       Shell       8       0.00  -3.330431   0.730  0.000  1.360          
    F        Core        9      19.00   0.560000   0.710  0.000  1.300          
    F        Shell       9       0.00  -1.560000   0.710  0.000  1.300          
    Ge       Core       32      72.61   4.000000   1.170  0.000  1.750          
--------------------------------------------------------------------------------


  Lattice summation method               =    Ewald          (3-D)
                                         =    Parry          (2-D)
                                         =    Saunders et al (1-D)
  Accuracy factor for lattice sums       =   12.000


  Time limit = Infinity

  Maximum range for interatomic potentials =        16.000000 Angstroms

  Taper potentials to zero over   1.0000 Angstroms using polynomial

  General interatomic potentials :

--------------------------------------------------------------------------------
Atom  Types   Potential         A         B         C         D     Cutoffs(Ang)
  1     2                                                            Min    Max 
--------------------------------------------------------------------------------
Si   c O1   s Buckingham    0.132E+04 0.318      10.1      0.00     0.000 16.000
Si   c O2   s Buckingham    0.132E+04 0.318      10.1      0.00     0.000 16.000
Si   c O3   s Buckingham    0.132E+04 0.318      10.1      0.00     0.000 16.000
Ge   c O1   s Buckingham    0.150E+04 0.326      16.8      0.00     0.000 16.000
Ge   c O2   s Buckingham    0.150E+04 0.326      16.8      0.00     0.000 16.000
Ge   c O3   s Buckingham    0.150E+04 0.326      16.8      0.00     0.000 16.000
O1   s O1   s Buckingham    0.228E+05 0.149      10.9      0.00     0.000 16.000
O1   s O2   s Buckingham    0.228E+05 0.149      10.9      0.00     0.000 16.000
O1   s O3   s Buckingham    0.228E+05 0.149      10.9      0.00     0.000 16.000
O2   s O2   s Buckingham    0.228E+05 0.149      10.9      0.00     0.000 16.000
O2   s O3   s Buckingham    0.228E+05 0.149      10.9      0.00     0.000 16.000
O3   s O3   s Buckingham    0.228E+05 0.149      10.9      0.00     0.000 16.000
Si   c F    s Buckingham     977.     0.282      0.00      0.00     0.000 16.000
Ge   c F    s Buckingham     681.     0.320      0.00      0.00     0.000 16.000
F    s F    s Buckingham     540.     0.262      0.00      0.00     0.000 16.000
O1   s F    s Buckingham    0.168E+04 0.268      0.00      0.00     0.000 16.000
O2   s F    s Buckingham    0.168E+04 0.268      0.00      0.00     0.000 16.000
O3   s F    s Buckingham    0.168E+04 0.268      0.00      0.00     0.000 16.000
O2   c O2   s Spring (c-s)   76.0      0.00      0.00      0.00     0.000  0.800
O3   c O3   s Spring (c-s)   128.      0.00      0.00      0.00     0.000  0.800
O1   c O1   s Spring (c-s)   180.      0.00      0.00      0.00     0.000  0.800
F    c F    s Spring (c-s)   33.5      0.00      0.00      0.00     0.000  0.800
--------------------------------------------------------------------------------

  General Three-body potentials :

  Harmonic form:

--------------------------------------------------------------------------------
Atom    Atom    Atom           Force Constants            Theta     Cutoffs  
  1       2       3     (eVrad**-2/eVrad**-3/eVrad**-4)   (deg)  1-2  1-3  2-3
--------------------------------------------------------------------------------
Si    c O1    s O1    s  1.261        0.0000    0.0000   109.470 0.00 0.00 0.00
                                                                 1.90 1.90 3.50
Si    c O1    s O2    s  1.261        0.0000    0.0000   109.470 0.00 0.00 0.00
                                                                 1.90 1.90 3.50
Si    c O2    s O2    s  1.261        0.0000    0.0000   109.470 0.00 0.00 0.00
                                                                 1.90 1.90 3.50
--------------------------------------------------------------------------------

********************************************************************************
*  Output for configuration   1                                                *
********************************************************************************


  Components of energy : 

--------------------------------------------------------------------------------
  Interatomic potentials     =        2062.79782908 eV
  Three-body potentials      =           0.48115216 eV
  Monopole - monopole (real) =       -6639.40640677 eV
  Monopole - monopole (recip)=       -3149.98110654 eV
  Monopole - monopole (total)=       -9789.38751331 eV
  Neutralising energy        =          -6.46399740 eV
--------------------------------------------------------------------------------
  Total lattice energy       =       -7732.57252947 eV
--------------------------------------------------------------------------------
  Total lattice energy       =         -746075.0459 kJ/(mole unit cells)
--------------------------------------------------------------------------------


  Number of variables =      939

  Maximum number of calculations  =          5000
  Maximum Hessian update interval =            10
  Maximum step size               =   0.100000000
  Maximum parameter tolerance     =   0.000010000
  Maximum function  tolerance     =   0.000010000
  Maximum gradient  tolerance     =   0.001000000
  Maximum gradient  component     =   0.010000000

  Symmetry not applied to optimisation

  Cell parameters to be optimised using strains

  Newton-Raphson optimiser to be used

  BFGS hessian update to be used

  Dumpfile to be written after every cycle

  Start of bulk optimisation :

  Cycle:      0 Energy:     -7732.572529  Gnorm:      0.002345  CPU:    2.043
  ** Hessian calculated **
  Cycle:      1 Energy:     -7732.587238  Gnorm:      0.002021  CPU:    6.688
  Cycle:      2 Energy:     -7732.604139  Gnorm:      0.001607  CPU:   10.958
  Cycle:      3 Energy:     -7732.621126  Gnorm:      0.001236  CPU:   15.231
  Cycle:      4 Energy:     -7732.627363  Gnorm:      0.000956  CPU:   19.504
  Cycle:      5 Energy:     -7732.628963  Gnorm:      0.000598  CPU:   23.778
  Cycle:      6 Energy:     -7732.629376  Gnorm:      0.000337  CPU:   28.051
  Cycle:      7 Energy:     -7732.629482  Gnorm:      0.000180  CPU:   32.324
  Cycle:      8 Energy:     -7732.629500  Gnorm:      0.000128  CPU:   35.208
  Cycle:      9 Energy:     -7732.629509  Gnorm:      0.000090  CPU:   38.092
  Cycle:     10 Energy:     -7732.629514  Gnorm:      0.000063  CPU:   40.976
  ** Hessian calculated **


  **** Optimisation achieved ****


  Final energy =   -7732.62951376 eV
  Final Gnorm  =       0.00003511

  Components of energy : 

--------------------------------------------------------------------------------
  Interatomic potentials     =        2062.67201141 eV
  Three-body potentials      =           0.48337593 eV
  Monopole - monopole (real) =       -6640.43503318 eV
  Monopole - monopole (recip)=       -3148.88811418 eV
  Monopole - monopole (total)=       -9789.32314736 eV
  Neutralising energy        =          -6.46175374 eV
--------------------------------------------------------------------------------
  Total lattice energy       =       -7732.62951376 eV
--------------------------------------------------------------------------------
  Total lattice energy       =         -746080.5440 kJ/(mole unit cells)
--------------------------------------------------------------------------------

  Final fractional coordinates of atoms :

--------------------------------------------------------------------------------
   No.  Atomic        x           y          z          Radius
        Label       (Frac)      (Frac)     (Frac)       (Angs) 
--------------------------------------------------------------------------------
     1  Si    c     0.699600    0.375700    0.033890    0.000000
     2  Si    c     0.601574    0.315769    0.366224    0.000000
     3  Si    c     0.652545    0.280965    0.699514    0.000000
     4  Si    c     0.281552    0.616417    0.533798    0.000000
     5  Si    c     0.355725    0.661680    0.867616    0.000000
     6  Si    c     0.309771    0.696921    0.201505    0.000000
     7  Si    c     0.363180    0.696746    0.302058    0.000000
     8  Si    c     0.304687    0.612341    0.970708    0.000000
     9  Si    c     0.275929    0.661432    0.634859    0.000000
    10  Si    c     0.597974    0.281818    0.800006    0.000000
    11  Si    c     0.660050    0.370458    0.466287    0.000000
    12  Si    c     0.691659    0.317535    0.134168    0.000000
    13  Si    c     0.517270    0.398885    0.969279    0.000000
    14  Si    c     0.567254    0.108016    0.300801    0.000000
    15  Si    c     0.864276    0.453097    0.634111    0.000000
    16  Si    c     0.452221    0.576796    0.468790    0.000000
    17  Si    c     0.394962    0.873253    0.801894    0.000000
    18  Si    c     0.100506    0.526457    0.136800    0.000000
    19  Si    c     0.398302    0.522921    0.367434    0.000000
    20  Si    c     0.104383    0.585461    0.035665    0.000000
    21  Si    c     0.444983    0.869932    0.700369    0.000000
    22  Si    c     0.563155    0.454415    0.865355    0.000000
    23  Si    c     0.867559    0.410025    0.532284    0.000000
    24  Si    c     0.516008    0.106792    0.199197    0.000000
    25  Si    c     0.277422    0.380767    0.849586    0.000000
    26  Si    c     0.588399    0.898353    0.185997    0.000000
    27  Si    c     0.079518    0.692381    0.519860    0.000000
    28  Si    c     0.678736    0.595481    0.351248    0.000000
    29  Si    c     0.373732    0.079332    0.685433    0.000000
    30  Si    c     0.902409    0.301964    0.018810    0.000000
    31  Si    c     0.384527    0.296977    0.483305    0.000000
    32  Si    c     0.890337    0.595784    0.150195    0.000000
    33  Si    c     0.676293    0.081776    0.815575    0.000000
    34  Si    c     0.586523    0.683564    0.983923    0.000000
    35  Si    c     0.073424    0.381136    0.647754    0.000000
    36  Si    c     0.286400    0.897942    0.315175    0.000000
    37  Ge    c     0.252881    0.345589    0.949622    0.000000
    38  Si    c     0.644837    0.906987    0.286689    0.000000
    39  Si    c     0.067642    0.733286    0.620872    0.000000
    40  Si    c     0.729126    0.650651    0.451743    0.000000
    41  Si    c     0.316139    0.073042    0.786164    0.000000
    42  Si    c     0.901684    0.247151    0.119831    0.000000
    43  Si    c     0.320539    0.243448    0.383499    0.000000
    44  Si    c     0.901262    0.658867    0.049882    0.000000
    45  Si    c     0.724473    0.072094    0.714892    0.000000
    46  Si    c     0.642933    0.735728    0.881641    0.000000
    47  Si    c     0.069649    0.334406    0.546659    0.000000
    48  Si    c     0.236232    0.905143    0.214658    0.000000
    49  Si    c     0.965950    0.119348    0.967011    0.000000
    50  Si    c     0.862010    0.844778    0.300390    0.000000
    51  Si    c     0.125053    0.009928    0.635758    0.000000
    52  Si    c     0.008686    0.867182    0.466576    0.000000
    53  Si    c     0.099557    0.136523    0.799955    0.000000
    54  Si    c     0.835546    0.965275    0.134287    0.000000
    55  Si    c     0.104028    0.962638    0.365713    0.000000
    56  Si    c     0.835174    0.873138    0.033166    0.000000
    57  Si    c     0.003164    0.132180    0.699684    0.000000
    58  Si    c     0.859432    0.020171    0.867408    0.000000
    59  Ge    c     0.131486    0.113124    0.532936    0.000000
    60  Si    c     0.956199    0.843147    0.199675    0.000000
    61  O2    c     0.909553    0.993039    0.999653    0.000000
    62  O2    c     0.985101    0.923958    0.332218    0.000000
    63  O2    c     0.044881    0.050920    0.668413    0.000000
    64  O3    c     0.044369    0.989875    0.496135    0.000000
    65  O2    c     0.980412    0.061734    0.834336    0.000000
    66  O2    c     0.915981    0.921726    0.165737    0.000000
    67  O2    c     0.322655    0.572982    0.335144    0.000000
    68  O2    c     0.397119    0.744305    0.668405    0.000000
    69  O2    c     0.231368    0.664811    0.003332    0.000000
    70  O2    c     0.637998    0.405956    0.832257    0.000000
    71  O2    c     0.566312    0.231971    0.166235    0.000000
    72  O2    c     0.745046    0.333024    0.498990    0.000000
    73  O2    c     0.579805    0.332425    0.999658    0.000000
    74  O2    c     0.738125    0.403787    0.666420    0.000000
    75  O2    c     0.641206    0.233831    0.333017    0.000000
    76  O2    c     0.405414    0.655142    0.501171    0.000000
    77  O2    c     0.224682    0.573096    0.169472    0.000000
    78  O2    c     0.319691    0.748265    0.835307    0.000000
    79  O3    c     0.115527    0.199607    0.970911    0.000000
    80  O2    c     0.771892    0.908459    0.306565    0.000000
    81  O2    c     0.065273    0.855991    0.642704    0.000000
    82  O2    c     0.854940    0.774157    0.472414    0.000000
    83  O2    c     0.188846    0.071408    0.805834    0.000000
    84  O2    c     0.900483    0.119803    0.139872    0.000000
    85  O2    c     0.193914    0.118115    0.363270    0.000000
    86  O2    c     0.901614    0.784996    0.029333    0.000000
    87  O2    c     0.849099    0.070490    0.694210    0.000000
    88  O2    c     0.767136    0.864361    0.861951    0.000000
    89  O3    c     0.066768    0.211344    0.524961    0.000000
    90  O2    c     0.110721    0.906054    0.194608    0.000000
    91  O2    c     0.914325    0.858585    0.249646    0.000000
    92  O3    c     0.104950    0.044677    0.585815    0.000000
    93  O2    c     0.909323    0.060232    0.917672    0.000000
    94  O2    c     0.040452    0.117907    0.750361    0.000000
    95  O2    c     0.843914    0.926096    0.083350    0.000000
    96  O2    c     0.046945    0.912799    0.415153    0.000000
    97  O2    c     0.903857    0.209090    0.979749    0.000000
    98  O2    c     0.777553    0.692435    0.312627    0.000000
    99  O2    c     0.277855    0.081925    0.647067    0.000000
   100  O2    c     0.083580    0.792407    0.481709    0.000000
   101  O2    c     0.187901    0.290453    0.808058    0.000000
   102  O2    c     0.684525    0.895911    0.147707    0.000000
   103  O2    c     0.188023    0.896179    0.353323    0.000000
   104  O2    c     0.683347    0.782923    0.021282    0.000000
   105  O2    c     0.074253    0.283528    0.686107    0.000000
   106  O2    c     0.774741    0.085911    0.854040    0.000000
   107  O3    c     0.294813    0.200934    0.523144    0.000000
   108  O2    c     0.886964    0.690731    0.188778    0.000000
   109  O2    c     0.307532    0.639150    0.251957    0.000000
   110  O2    c     0.336535    0.668089    0.584608    0.000000
   111  O2    c     0.303672    0.660989    0.918522    0.000000
   112  O2    c     0.654545    0.339243    0.749576    0.000000
   113  O2    c     0.636727    0.318353    0.083761    0.000000
   114  O2    c     0.660293    0.314780    0.416020    0.000000
   115  O3    c     0.365444    0.308102    0.974309    0.000000
   116  O2    c     0.654880    0.039712    0.304593    0.000000
   117  O2    c     0.934288    0.609234    0.638305    0.000000
   118  O2    c     0.608716    0.662732    0.470861    0.000000
   119  O2    c     0.307439    0.941457    0.805475    0.000000
   120  O2    c     0.031649    0.369720    0.139518    0.000000
   121  O2    c     0.310598    0.366169    0.365031    0.000000
   122  O2    c     0.036421    0.673251    0.032731    0.000000
   123  O2    c     0.601317    0.938839    0.697597    0.000000
   124  O2    c     0.648436    0.611608    0.863159    0.000000
   125  O2    c     0.937089    0.324476    0.529272    0.000000
   126  O2    c     0.359689    0.038191    0.196274    0.000000
   127  O2    c     0.767950    0.301023    0.012287    0.000000
   128  O2    c     0.675651    0.460054    0.343934    0.000000
   129  O2    c     0.508928    0.213190    0.677681    0.000000
   130  O2    c     0.213975    0.693161    0.512429    0.000000
   131  O2    c     0.281882    0.518916    0.845340    0.000000
   132  O2    c     0.453470    0.764263    0.179149    0.000000
   133  O2    c     0.287541    0.764724    0.323789    0.000000
   134  O2    c     0.452420    0.683124    0.989418    0.000000
   135  O2    c     0.206584    0.516085    0.656234    0.000000
   136  O2    c     0.672897    0.214133    0.822708    0.000000
   137  O2    c     0.517731    0.295362    0.489334    0.000000
   138  O2    c     0.757555    0.459473    0.157525    0.000000
   139  O2    c     0.777686    0.532716    0.029143    0.000000
   140  O2    c     0.445062    0.241265    0.363586    0.000000
   141  O2    c     0.725202    0.198066    0.694863    0.000000
   142  O2    c     0.198077    0.460960    0.527959    0.000000
   143  O2    c     0.511020    0.726576    0.865061    0.000000
   144  O2    c     0.236188    0.779012    0.195782    0.000000
   145  O2    c     0.519512    0.779836    0.306830    0.000000
   146  O3    c     0.224706    0.459195    0.977932    0.000000
   147  O2    c     0.193886    0.734696    0.640364    0.000000
   148  O2    c     0.441541    0.200812    0.805225    0.000000
   149  O2    c     0.732979    0.526260    0.470801    0.000000
   150  O2    c     0.772959    0.242867    0.138560    0.000000
   151  O3    c     0.199740    0.298378    0.892836    0.000000
   152  O2    c     0.662682    0.904295    0.232487    0.000000
   153  O2    c     0.073924    0.759616    0.566715    0.000000
   154  O2    c     0.748262    0.669651    0.397458    0.000000
   155  O2    c     0.298974    0.074026    0.731873    0.000000
   156  O2    c     0.906550    0.232417    0.065632    0.000000
   157  O2    c     0.302609    0.223698    0.438087    0.000000
   158  O2    c     0.894948    0.672947    0.104172    0.000000
   159  O2    c     0.745797    0.077084    0.769098    0.000000
   160  O2    c     0.654939    0.744807    0.935773    0.000000
   161  O2    c     0.072841    0.310723    0.600939    0.000000
   162  O2    c     0.216156    0.902145    0.268914    0.000000
   163  O2    c     0.567349    0.541858    0.991095    0.000000
   164  O2    c     0.425439    0.024325    0.323886    0.000000
   165  O2    c     0.946225    0.392236    0.656184    0.000000
   166  O2    c     0.396216    0.435541    0.492403    0.000000
   167  O2    c     0.536980    0.954399    0.824620    0.000000
   168  O2    c     0.016334    0.583518    0.159613    0.000000
   169  O2    c     0.538872    0.580515    0.343455    0.000000
   170  O2    c     0.022982    0.446104    0.011521    0.000000
   171  O2    c     0.388596    0.954389    0.677017    0.000000
   172  O2    c     0.421677    0.402082    0.843727    0.000000
   173  O2    c     0.953187    0.553789    0.510520    0.000000
   174  O2    c     0.573628    0.023034    0.176613    0.000000
   175  O2    c     0.568952    0.161065    0.249783    0.000000
   176  O2    c     0.811588    0.405269    0.583047    0.000000
   177  O2    c     0.564074    0.404530    0.916438    0.000000
   178  O2    c     0.391574    0.817421    0.751456    0.000000
   179  O2    c     0.156329    0.582869    0.086342    0.000000
   180  O2    c     0.398557    0.576254    0.418111    0.000000
   181  F     c     0.437486    0.898915    0.251135    0.000000
   182  F     c     0.075767    0.536678    0.584169    0.000000
   183  F     c     0.398847    0.495512    0.922662    0.000000
   184  F     c     0.523218    0.079101    0.751276    0.000000
   185  F     c     0.894666    0.451679    0.085662    0.000000
   186  F     c     0.526942    0.443124    0.418086    0.000000
   187  O2    s     0.906818    0.992403    0.000108    0.000000
   188  O2    s     0.984581    0.919421    0.332387    0.000000
   189  O2    s     0.049051    0.055601    0.668347    0.000000
   190  O3    s     0.048107    0.987224    0.496127    0.000000
   191  O2    s     0.980189    0.065428    0.834184    0.000000
   192  O2    s     0.911492    0.917815    0.166019    0.000000
   193  O2    s     0.334608    0.580513    0.335069    0.000000
   194  O2    s     0.389669    0.748796    0.668266    0.000000
   195  O2    s     0.226054    0.651654    0.003275    0.000000
   196  O2    s     0.626139    0.398384    0.832406    0.000000
   197  O2    s     0.573976    0.227737    0.166356    0.000000
   198  O2    s     0.748952    0.344888    0.499049    0.000000
   199  O2    s     0.585677    0.344128    0.999996    0.000000
   200  O2    s     0.742234    0.396091    0.666539    0.000000
   201  O2    s     0.629482    0.229346    0.333147    0.000000
   202  O2    s     0.397520    0.643249    0.501226    0.000000
   203  O2    s     0.220687    0.581097    0.169427    0.000000
   204  O2    s     0.331192    0.751907    0.835312    0.000000
   205  O3    s     0.107549    0.200074    0.969100    0.000000
   206  O2    s     0.768356    0.901577    0.303898    0.000000
   207  O2    s     0.071834    0.859459    0.639730    0.000000
   208  O2    s     0.857994    0.770922    0.469602    0.000000
   209  O2    s     0.192705    0.078386    0.803206    0.000000
   210  O2    s     0.893713    0.116509    0.137241    0.000000
   211  O2    s     0.197486    0.114575    0.365609    0.000000
   212  O2    s     0.894511    0.781208    0.031857    0.000000
   213  O2    s     0.852459    0.077187    0.696909    0.000000
   214  O2    s     0.763183    0.866381    0.864591    0.000000
   215  O3    s     0.072435    0.215701    0.527814    0.000000
   216  O2    s     0.107385    0.899311    0.197195    0.000000
   217  O2    s     0.913142    0.855300    0.249753    0.000000
   218  O3    s     0.109461    0.046898    0.586618    0.000000
   219  O2    s     0.909466    0.061764    0.916989    0.000000
   220  O2    s     0.042931    0.121649    0.750231    0.000000
   221  O2    s     0.841984    0.924561    0.083476    0.000000
   222  O2    s     0.049211    0.913391    0.415269    0.000000
   223  O2    s     0.909908    0.209957    0.982615    0.000000
   224  O2    s     0.776340    0.698583    0.315294    0.000000
   225  O2    s     0.271783    0.074215    0.649785    0.000000
   226  O2    s     0.075311    0.789927    0.484086    0.000000
   227  O2    s     0.187568    0.283349    0.811286    0.000000
   228  O2    s     0.690685    0.903540    0.150230    0.000000
   229  O2    s     0.189199    0.903523    0.350691    0.000000
   230  O2    s     0.688819    0.781721    0.018559    0.000000
   231  O2    s     0.066590    0.277413    0.683622    0.000000
   232  O2    s     0.773497    0.078510    0.851463    0.000000
   233  O3    s     0.289838    0.202830    0.520153    0.000000
   234  O2    s     0.894658    0.697309    0.186034    0.000000
   235  O2    s     0.313471    0.650961    0.251938    0.000000
   236  O2    s     0.324831    0.662190    0.584555    0.000000
   237  O2    s     0.309171    0.656264    0.918309    0.000000
   238  O2    s     0.648543    0.327427    0.749650    0.000000
   239  O2    s     0.648780    0.324139    0.083868    0.000000
   240  O2    s     0.654310    0.320568    0.416113    0.000000
   241  O3    s     0.373191    0.320172    0.972019    0.000000
   242  O2    s     0.644855    0.032900    0.302333    0.000000
   243  O2    s     0.941133    0.606114    0.636009    0.000000
   244  O2    s     0.605070    0.652561    0.468637    0.000000
   245  O2    s     0.317392    0.948100    0.803089    0.000000
   246  O2    s     0.025102    0.373003    0.137168    0.000000
   247  O2    s     0.320678    0.369534    0.367220    0.000000
   248  O2    s     0.029265    0.662642    0.034854    0.000000
   249  O2    s     0.598115    0.945742    0.699719    0.000000
   250  O2    s     0.639205    0.608682    0.865320    0.000000
   251  O2    s     0.943750    0.334652    0.531458    0.000000
   252  O2    s     0.362862    0.031333    0.198511    0.000000
   253  O2    s     0.774991    0.308988    0.015294    0.000000
   254  O2    s     0.668317    0.459477    0.347040    0.000000
   255  O2    s     0.509502    0.206081    0.680783    0.000000
   256  O2    s     0.206906    0.685177    0.515447    0.000000
   257  O2    s     0.289111    0.519774    0.848123    0.000000
   258  O2    s     0.452877    0.771454    0.182211    0.000000
   259  O2    s     0.295223    0.771759    0.320610    0.000000
   260  O2    s     0.451815    0.675971    0.986900    0.000000
   261  O2    s     0.199788    0.516954    0.653101    0.000000
   262  O2    s     0.665488    0.207184    0.819574    0.000000
   263  O2    s     0.518553    0.303431    0.486225    0.000000
   264  O2    s     0.764888    0.459383    0.154324    0.000000
   265  O2    s     0.782981    0.530085    0.031838    0.000000
   266  O2    s     0.448069    0.249407    0.365994    0.000000
   267  O2    s     0.717399    0.192949    0.697506    0.000000
   268  O2    s     0.193010    0.463813    0.530570    0.000000
   269  O2    s     0.509051    0.720644    0.867132    0.000000
   270  O2    s     0.243939    0.784287    0.198396    0.000000
   271  O2    s     0.516813    0.785030    0.304192    0.000000
   272  O3    s     0.235039    0.466412    0.975153    0.000000
   273  O2    s     0.188699    0.726748    0.637695    0.000000
   274  O2    s     0.444326    0.195442    0.802675    0.000000
   275  O2    s     0.724695    0.523251    0.468262    0.000000
   276  O2    s     0.778470    0.251198    0.136106    0.000000
   277  O3    s     0.211440    0.310181    0.892293    0.000000
   278  O2    s     0.652983    0.903958    0.233366    0.000000
   279  O2    s     0.073883    0.749939    0.567504    0.000000
   280  O2    s     0.738880    0.659815    0.398346    0.000000
   281  O2    s     0.308651    0.074470    0.732756    0.000000
   282  O2    s     0.905618    0.241234    0.066546    0.000000
   283  O2    s     0.312569    0.233043    0.437007    0.000000
   284  O2    s     0.895135    0.663436    0.103217    0.000000
   285  O2    s     0.736238    0.077055    0.768239    0.000000
   286  O2    s     0.646360    0.737292    0.934936    0.000000
   287  O2    s     0.072632    0.320431    0.600297    0.000000
   288  O2    s     0.225670    0.902024    0.268008    0.000000
   289  O2    s     0.564306    0.543249    0.988141    0.000000
   290  O2    s     0.425315    0.019292    0.320514    0.000000
   291  O2    s     0.951474    0.397546    0.652974    0.000000
   292  O2    s     0.400973    0.435571    0.488964    0.000000
   293  O2    s     0.537088    0.959671    0.821292    0.000000
   294  O2    s     0.011410    0.578711    0.156216    0.000000
   295  O2    s     0.539350    0.575956    0.346801    0.000000
   296  O2    s     0.018290    0.445228    0.014870    0.000000
   297  O2    s     0.393056    0.959192    0.680360    0.000000
   298  O2    s     0.421710    0.405567    0.846652    0.000000
   299  O2    s     0.958029    0.553698    0.513826    0.000000
   300  O2    s     0.569020    0.018118    0.180003    0.000000
   301  O2    s     0.563323    0.149942    0.249881    0.000000
   302  O2    s     0.822796    0.410713    0.583106    0.000000
   303  O2    s     0.559364    0.409256    0.916199    0.000000
   304  O2    s     0.397415    0.828607    0.751421    0.000000
   305  O2    s     0.145160    0.577298    0.086316    0.000000
   306  O2    s     0.404075    0.570810    0.418138    0.000000
   307  F     s     0.437293    0.898545    0.251175    0.000000
   308  F     s     0.076130    0.536839    0.584210    0.000000
   309  F     s     0.390169    0.486806    0.924151    0.000000
   310  F     s     0.523309    0.079408    0.751359    0.000000
   311  F     s     0.894145    0.451706    0.085730    0.000000
   312  F     s     0.526876    0.442772    0.418191    0.000000
--------------------------------------------------------------------------------

  Final Cartesian lattice vectors (Angstroms) :

       11.987412    0.000478   -0.004991
       -6.030437   10.336812    0.016444
        0.070936    0.219513   29.487392


  Final cell parameters and derivatives :

--------------------------------------------------------------------------------
       a           11.987413 Angstrom     dE/de1(xx)     0.006273 eV/strain
       b           11.967294 Angstrom     dE/de2(yy)     0.005255 eV/strain
       c           29.488295 Angstrom     dE/de3(zz)     0.007027 eV/strain
       alpha       89.622319 Degrees      dE/de4(yz)    -0.000555 eV/strain
       beta        89.886012 Degrees      dE/de5(xz)     0.000043 eV/strain
       gamma      120.256757 Degrees      dE/de6(xy)     0.000979 eV/strain
--------------------------------------------------------------------------------

  Primitive cell volume =          3653.882906 Angs**3

  Density of cell =      1.730806 g/cm**3

  Non-primitive cell volume =          3653.882906 Angs**3


  Final internal derivatives :

--------------------------------------------------------------------------------
   No.  Atomic          a             b             c           Radius
        Label          (eV)          (eV)          (eV)        (eV/Angs)
--------------------------------------------------------------------------------
      1 Si    c       0.000000      0.000000      0.000000      0.000000
      2 Si    c      -0.000166      0.000161      0.000960      0.000000
      3 Si    c       0.000298      0.000032     -0.000175      0.000000
      4 Si    c      -0.000211      0.000024     -0.000280      0.000000
      5 Si    c       0.000401      0.000141     -0.000576      0.000000
      6 Si    c       0.000321      0.000009      0.000822      0.000000
      7 Si    c       0.000278     -0.000027     -0.000559      0.000000
      8 Si    c       0.002387     -0.000833     -0.004764      0.000000
      9 Si    c      -0.000072      0.000159      0.000009      0.000000
     10 Si    c       0.000268     -0.000391     -0.000281      0.000000
     11 Si    c      -0.000088      0.000007     -0.000234      0.000000
     12 Si    c       0.001388     -0.001188      0.007843      0.000000
     13 Si    c      -0.004379      0.002868     -0.006245      0.000000
     14 Si    c      -0.000116     -0.000187     -0.000467      0.000000
     15 Si    c       0.000286     -0.000064      0.000492      0.000000
     16 Si    c       0.000149     -0.000080     -0.000112      0.000000
     17 Si    c       0.000342      0.000467      0.000173      0.000000
     18 Si    c      -0.000489     -0.000005     -0.000043      0.000000
     19 Si    c       0.000205      0.000080      0.000500      0.000000
     20 Si    c      -0.001333     -0.001550      0.004561      0.000000
     21 Si    c       0.000145      0.000082      0.000231      0.000000
     22 Si    c      -0.000040      0.000253     -0.001976      0.000000
     23 Si    c       0.000112     -0.000143     -0.000491      0.000000
     24 Si    c      -0.000335     -0.000483      0.000683      0.000000
     25 Si    c       0.000655      0.000125     -0.003722      0.000000
     26 Si    c       0.000200     -0.000259     -0.000208      0.000000
     27 Si    c       0.000078     -0.000081     -0.000508      0.000000
     28 Si    c       0.000012      0.000314     -0.000124      0.000000
     29 Si    c       0.000092      0.000016      0.000149      0.000000
     30 Si    c      -0.000637      0.001182      0.000922      0.000000
     31 Si    c      -0.000063     -0.000160      0.000393      0.000000
     32 Si    c       0.000856      0.000020      0.000090      0.000000
     33 Si    c       0.000193      0.000067      0.000130      0.000000
     34 Si    c       0.000805      0.000095      0.001208      0.000000
     35 Si    c      -0.000078     -0.000121      0.000491      0.000000
     36 Si    c       0.000039      0.000204     -0.000069      0.000000
     37 Ge    c       0.001042      0.000898      0.000999      0.000000
     38 Si    c       0.000209     -0.000171     -0.000205      0.000000
     39 Si    c       0.000170     -0.000002      0.000141      0.000000
     40 Si    c       0.000048      0.000125     -0.000141      0.000000
     41 Si    c       0.000294      0.000170      0.000221      0.000000
     42 Si    c       0.000101      0.000038      0.001902      0.000000
     43 Si    c       0.000054     -0.000107      0.000324      0.000000
     44 Si    c       0.001050     -0.000344     -0.000901      0.000000
     45 Si    c       0.000228      0.000022      0.000284      0.000000
     46 Si    c       0.000440      0.000423     -0.002017      0.000000
     47 Si    c      -0.000187     -0.000076     -0.000080      0.000000
     48 Si    c       0.000015      0.000034     -0.000194      0.000000
     49 Si    c       0.000058     -0.000696     -0.000845      0.000000
     50 Si    c       0.000138     -0.000020      0.000426      0.000000
     51 Si    c       0.000261     -0.000015      0.000855      0.000000
     52 Si    c       0.000184     -0.000337      0.000084      0.000000
     53 Si    c       0.000326      0.000182      0.000448      0.000000
     54 Si    c       0.000201     -0.000338      0.000269      0.000000
     55 Si    c       0.000007     -0.000017     -0.001233      0.000000
     56 Si    c       0.000067      0.001921      0.001324      0.000000
     57 Si    c       0.000085      0.000259     -0.001019      0.000000
     58 Si    c       0.000417      0.000216     -0.001297      0.000000
     59 Ge    c       0.000353      0.000359     -0.000116      0.000000
     60 Si    c       0.000067     -0.000002     -0.000632      0.000000
     61 O2    c       0.001483     -0.002018      0.001903      0.000000
     62 O2    c       0.000008     -0.000131      0.000040      0.000000
     63 O2    c       0.000321      0.000039     -0.000029      0.000000
     64 O3    c      -0.000131     -0.000411     -0.000974      0.000000
     65 O2    c       0.000364      0.000024      0.000533      0.000000
     66 O2    c       0.000002     -0.000064      0.000084      0.000000
     67 O2    c       0.000046      0.000033     -0.000315      0.000000
     68 O2    c       0.000110      0.000160      0.000087      0.000000
     69 O2    c      -0.000129      0.001533      0.000587      0.000000
     70 O2    c       0.000435      0.000272      0.000726      0.000000
     71 O2    c      -0.000519      0.000049     -0.000160      0.000000
     72 O2    c       0.000150     -0.000092      0.000644      0.000000
     73 O2    c      -0.000336     -0.004798      0.005590      0.000000
     74 O2    c       0.000117     -0.000099      0.000314      0.000000
     75 O2    c       0.000241     -0.000006     -0.000059      0.000000
     76 O2    c       0.000141     -0.000118     -0.000272      0.000000
     77 O2    c       0.000013     -0.000569     -0.001395      0.000000
     78 O2    c       0.000071      0.000549      0.001261      0.000000
     79 O3    c       0.004860      0.000466      0.002214      0.000000
     80 O2    c      -0.000016      0.000090     -0.000141      0.000000
     81 O2    c       0.000087      0.000072     -0.000136      0.000000
     82 O2    c       0.000150     -0.000053     -0.000096      0.000000
     83 O2    c       0.000422      0.000141     -0.000174      0.000000
     84 O2    c       0.000238     -0.000425      0.000241      0.000000
     85 O2    c       0.000200      0.000484      0.000151      0.000000
     86 O2    c       0.002769     -0.003502     -0.001944      0.000000
     87 O2    c       0.000027      0.000087      0.000292      0.000000
     88 O2    c       0.000434      0.000226      0.000151      0.000000
     89 O3    c       0.000061     -0.000214      0.000672      0.000000
     90 O2    c       0.000026     -0.000085      0.000153      0.000000
     91 O2    c       0.000187     -0.000075     -0.000598      0.000000
     92 O3    c       0.000316      0.000028     -0.000397      0.000000
     93 O2    c      -0.000025     -0.000518     -0.006229      0.000000
     94 O2    c       0.000363      0.000079      0.001753      0.000000
     95 O2    c       0.000323      0.000329      0.004665      0.000000
     96 O2    c       0.000024     -0.000031      0.002085      0.000000
     97 O2    c      -0.004098      0.003675      0.001051      0.000000
     98 O2    c      -0.000045     -0.000236      0.000426      0.000000
     99 O2    c       0.000335     -0.000070      0.000328      0.000000
    100 O2    c      -0.000113     -0.000153      0.000170      0.000000
    101 O2    c       0.000219      0.000101     -0.000256      0.000000
    102 O2    c       0.000046     -0.000003      0.000054      0.000000
    103 O2    c       0.000489     -0.000290     -0.000212      0.000000
    104 O2    c      -0.002819     -0.000107     -0.001794      0.000000
    105 O2    c       0.000103      0.000142     -0.000101      0.000000
    106 O2    c       0.000070      0.000348     -0.000104      0.000000
    107 O3    c       0.000048      0.000050      0.000087      0.000000
    108 O2    c      -0.000014      0.000041      0.000035      0.000000
    109 O2    c       0.000092      0.000041     -0.000126      0.000000
    110 O2    c       0.000107     -0.000017      0.000150      0.000000
    111 O2    c      -0.000420      0.000944     -0.001853      0.000000
    112 O2    c       0.000235      0.000012     -0.000157      0.000000
    113 O2    c      -0.002077     -0.001218      0.000808      0.000000
    114 O2    c       0.000016      0.000069     -0.000103      0.000000
    115 O3    c       0.000103     -0.000783      0.003362      0.000000
    116 O2    c       0.000072      0.000076      0.000043      0.000000
    117 O2    c       0.000096      0.000030     -0.000172      0.000000
    118 O2    c      -0.000105     -0.000091      0.000020      0.000000
    119 O2    c       0.000311      0.000183     -0.000152      0.000000
    120 O2    c       0.000690      0.000278      0.000444      0.000000
    121 O2    c       0.000116     -0.000162      0.000026      0.000000
    122 O2    c       0.000216      0.000340     -0.001413      0.000000
    123 O2    c       0.000048      0.000179      0.000193      0.000000
    124 O2    c       0.000641     -0.000461     -0.000108      0.000000
    125 O2    c       0.000028     -0.000036      0.000314      0.000000
    126 O2    c       0.000220     -0.000123     -0.000097      0.000000
    127 O2    c       0.000029      0.000274      0.000309      0.000000
    128 O2    c       0.000051     -0.000010     -0.000017      0.000000
    129 O2    c       0.000332     -0.000096      0.000260      0.000000
    130 O2    c       0.000006     -0.000217      0.000232      0.000000
    131 O2    c       0.000233      0.000380      0.000347      0.000000
    132 O2    c      -0.000006     -0.000004     -0.000031      0.000000
    133 O2    c       0.000157      0.000053     -0.000005      0.000000
    134 O2    c       0.000892      0.000559      0.001276      0.000000
    135 O2    c       0.000156      0.000146     -0.000136      0.000000
    136 O2    c       0.000197      0.000246      0.000033      0.000000
    137 O2    c       0.000207      0.000035     -0.000087      0.000000
    138 O2    c      -0.000346      0.000097     -0.000466      0.000000
    139 O2    c      -0.001274     -0.001060     -0.002515      0.000000
    140 O2    c       0.000200      0.000031     -0.000093      0.000000
    141 O2    c       0.000127      0.000044      0.000140      0.000000
    142 O2    c      -0.000008     -0.000122      0.000121      0.000000
    143 O2    c      -0.000131      0.000348     -0.000165      0.000000
    144 O2    c       0.000023     -0.000051     -0.000140      0.000000
    145 O2    c      -0.000060      0.000051      0.000089      0.000000
    146 O3    c      -0.002113      0.000267      0.002938      0.000000
    147 O2    c       0.000105     -0.000064     -0.000153      0.000000
    148 O2    c       0.000445      0.000129     -0.000062      0.000000
    149 O2    c       0.000054     -0.000025      0.000151      0.000000
    150 O2    c      -0.000374      0.000114     -0.000718      0.000000
    151 O3    c      -0.001137     -0.000902     -0.001836      0.000000
    152 O2    c       0.000001      0.000041     -0.000326      0.000000
    153 O2    c       0.000036     -0.000020      0.000209      0.000000
    154 O2    c       0.000054     -0.000106     -0.000022      0.000000
    155 O2    c       0.000376      0.000009     -0.000045      0.000000
    156 O2    c      -0.000364     -0.000050     -0.003161      0.000000
    157 O2    c       0.000130      0.000037     -0.000275      0.000000
    158 O2    c      -0.000222      0.000569      0.003931      0.000000
    159 O2    c       0.000068      0.000129     -0.000043      0.000000
    160 O2    c       0.000530      0.000375      0.002274      0.000000
    161 O2    c      -0.000062      0.000001     -0.000349      0.000000
    162 O2    c       0.000237     -0.000093     -0.000094      0.000000
    163 O2    c       0.000906      0.000502      0.001969      0.000000
    164 O2    c       0.000279     -0.000006     -0.000142      0.000000
    165 O2    c       0.000108      0.000085     -0.000245      0.000000
    166 O2    c       0.000018      0.000141     -0.000078      0.000000
    167 O2    c       0.000307      0.000178     -0.000298      0.000000
    168 O2    c       0.000130     -0.000040      0.000326      0.000000
    169 O2    c       0.000091     -0.000082      0.000085      0.000000
    170 O2    c       0.000579      0.000104     -0.002627      0.000000
    171 O2    c       0.000237     -0.000005      0.000256      0.000000
    172 O2    c       0.000244      0.000120      0.000064      0.000000
    173 O2    c      -0.000107     -0.000297      0.000303      0.000000
    174 O2    c       0.000112     -0.000158     -0.000175      0.000000
    175 O2    c       0.000136     -0.000037      0.000457      0.000000
    176 O2    c      -0.000048     -0.000116     -0.000128      0.000000
    177 O2    c       0.001514     -0.001033     -0.003711      0.000000
    178 O2    c       0.000223      0.000196     -0.000223      0.000000
    179 O2    c       0.000616     -0.000194     -0.001802      0.000000
    180 O2    c       0.000120     -0.000096      0.000006      0.000000
    181 F     c       0.000121      0.000024      0.000071      0.000000
    182 F     c      -0.000072     -0.000123     -0.000024      0.000000
    183 F     c       0.000037     -0.000112      0.000201      0.000000
    184 F     c       0.000216      0.000012     -0.000101      0.000000
    185 F     c      -0.000091     -0.000090     -0.000472      0.000000
    186 F     c       0.000058      0.000001     -0.000062      0.000000
    187 O2    s       0.001494     -0.000821      0.000087      0.000000
    188 O2    s      -0.000019     -0.000152     -0.000282      0.000000
    189 O2    s       0.000277      0.000030     -0.000466      0.000000
    190 O3    s       0.000033     -0.000108      0.000648      0.000000
    191 O2    s       0.000317      0.000211     -0.000821      0.000000
    192 O2    s       0.000078      0.000002      0.000333      0.000000
    193 O2    s       0.000180      0.000101     -0.000151      0.000000
    194 O2    s       0.000121      0.000101      0.000232      0.000000
    195 O2    s      -0.000866     -0.000235     -0.000179      0.000000
    196 O2    s       0.000383      0.000398     -0.000662      0.000000
    197 O2    s       0.000064     -0.000380      0.001943      0.000000
    198 O2    s       0.000171     -0.000353     -0.000070      0.000000
    199 O2    s       0.004024     -0.000248      0.004111      0.000000
    200 O2    s       0.000140     -0.000033      0.000188      0.000000
    201 O2    s       0.000133     -0.000228     -0.000188      0.000000
    202 O2    s       0.000183     -0.000134     -0.000497      0.000000
    203 O2    s       0.000388     -0.000039      0.000725      0.000000
    204 O2    s       0.000223      0.000250     -0.003277      0.000000
    205 O3    s       0.003563     -0.000585     -0.001965      0.000000
    206 O2    s      -0.000001      0.000167      0.000094      0.000000
    207 O2    s       0.000206     -0.000000      0.000219      0.000000
    208 O2    s       0.000072      0.000043     -0.000109      0.000000
    209 O2    s       0.000332      0.000240     -0.000318      0.000000
    210 O2    s       0.000094     -0.000404      0.001706      0.000000
    211 O2    s       0.000046      0.000368     -0.000408      0.000000
    212 O2    s       0.003549     -0.002161     -0.001535      0.000000
    213 O2    s      -0.000035      0.000035     -0.000474      0.000000
    214 O2    s       0.000497      0.000075     -0.000546      0.000000
    215 O3    s      -0.000048     -0.000045     -0.000863      0.000000
    216 O2    s       0.000134     -0.000050      0.000310      0.000000
    217 O2    s       0.000291     -0.000087      0.000131      0.000000
    218 O3    s       0.000046      0.000219      0.000913      0.000000
    219 O2    s      -0.000111     -0.001501     -0.003428      0.000000
    220 O2    s       0.000521      0.000148      0.000044      0.000000
    221 O2    s      -0.000198      0.001752      0.003024      0.000000
    222 O2    s       0.000044     -0.000047      0.000292      0.000000
    223 O2    s      -0.004666      0.003388      0.003215      0.000000
    224 O2    s       0.000036     -0.000107      0.000357      0.000000
    225 O2    s       0.000239     -0.000055      0.000265      0.000000
    226 O2    s      -0.000087     -0.000051     -0.000418      0.000000
    227 O2    s       0.000296      0.000373     -0.000688      0.000000
    228 O2    s      -0.000096     -0.000041      0.000225      0.000000
    229 O2    s       0.000394     -0.000339     -0.000876      0.000000
    230 O2    s      -0.003025      0.001350     -0.001578      0.000000
    231 O2    s       0.000206      0.000059     -0.000279      0.000000
    232 O2    s       0.000054      0.000162     -0.000976      0.000000
    233 O3    s       0.000103      0.000043     -0.000896      0.000000
    234 O2    s       0.000320     -0.000142      0.000836      0.000000
    235 O2    s       0.000219     -0.000063      0.000778      0.000000
    236 O2    s       0.000007     -0.000036      0.000202      0.000000
    237 O2    s       0.001328      0.000008     -0.002195      0.000000
    238 O2    s       0.000388     -0.000038     -0.000507      0.000000
    239 O2    s       0.001344      0.001226     -0.001864      0.000000
    240 O2    s       0.000055     -0.000039     -0.000059      0.000000
    241 O3    s      -0.003160      0.002317     -0.005048      0.000000
    242 O2    s       0.000121      0.000044     -0.000070      0.000000
    243 O2    s       0.000179      0.000021      0.000192      0.000000
    244 O2    s      -0.000034      0.000095     -0.000152      0.000000
    245 O2    s       0.000358     -0.000004     -0.000160      0.000000
    246 O2    s       0.000422     -0.000569      0.002136      0.000000
    247 O2    s       0.000157     -0.000040      0.000053      0.000000
    248 O2    s       0.000507      0.000334     -0.000533      0.000000
    249 O2    s       0.000162     -0.000010     -0.000084      0.000000
    250 O2    s       0.000561     -0.000025     -0.000654      0.000000
    251 O2    s      -0.000154     -0.000129     -0.000290      0.000000
    252 O2    s       0.000149     -0.000017      0.000470      0.000000
    253 O2    s      -0.000584     -0.000229      0.000663      0.000000
    254 O2    s       0.000026      0.000040     -0.000032      0.000000
    255 O2    s       0.000194     -0.000008      0.000110      0.000000
    256 O2    s       0.000008     -0.000152     -0.000338      0.000000
    257 O2    s       0.000493     -0.000187     -0.000236      0.000000
    258 O2    s       0.000271      0.000041      0.000222      0.000000
    259 O2    s       0.000223      0.000079     -0.000202      0.000000
    260 O2    s       0.001607     -0.000663      0.000022      0.000000
    261 O2    s       0.000111     -0.000003      0.000266      0.000000
    262 O2    s       0.000371      0.000006     -0.000584      0.000000
    263 O2    s      -0.000040     -0.000097     -0.000250      0.000000
    264 O2    s       0.000606     -0.000441      0.000103      0.000000
    265 O2    s      -0.000527     -0.001040      0.001701      0.000000
    266 O2    s       0.000116     -0.000005      0.000291      0.000000
    267 O2    s       0.000089      0.000036      0.000197      0.000000
    268 O2    s      -0.000050     -0.000216     -0.000256      0.000000
    269 O2    s       0.000209      0.000322     -0.000578      0.000000
    270 O2    s       0.000094      0.000296      0.000285      0.000000
    271 O2    s       0.000033     -0.000043     -0.000205      0.000000
    272 O3    s       0.002816      0.000606     -0.001542      0.000000
    273 O2    s       0.000161     -0.000018      0.000123      0.000000
    274 O2    s       0.000257      0.000008     -0.000199      0.000000
    275 O2    s       0.000032     -0.000011     -0.000289      0.000000
    276 O2    s      -0.000656      0.000342      0.002038      0.000000
    277 O3    s       0.002227      0.001161      0.002966      0.000000
    278 O2    s       0.000093     -0.000033      0.000241      0.000000
    279 O2    s       0.000021     -0.000106      0.000179      0.000000
    280 O2    s      -0.000051     -0.000022     -0.000247      0.000000
    281 O2    s       0.000346      0.000073     -0.000275      0.000000
    282 O2    s       0.000134     -0.000567     -0.001568      0.000000
    283 O2    s       0.000058     -0.000020     -0.000023      0.000000
    284 O2    s       0.000294      0.000392      0.000913      0.000000
    285 O2    s       0.000240      0.000032     -0.000204      0.000000
    286 O2    s      -0.000234     -0.000023      0.001133      0.000000
    287 O2    s       0.000089     -0.000161      0.000161      0.000000
    288 O2    s       0.000202      0.000082      0.000208      0.000000
    289 O2    s      -0.000816      0.002172     -0.003261      0.000000
    290 O2    s       0.000155      0.000041     -0.000400      0.000000
    291 O2    s       0.000027      0.000024      0.000193      0.000000
    292 O2    s       0.000001     -0.000011     -0.000205      0.000000
    293 O2    s       0.000185      0.000123     -0.000061      0.000000
    294 O2    s       0.000113      0.000172      0.002472      0.000000
    295 O2    s       0.000074     -0.000088      0.000310      0.000000
    296 O2    s      -0.000978      0.000117      0.003588      0.000000
    297 O2    s       0.000193      0.000040      0.000247      0.000000
    298 O2    s       0.000058      0.000425     -0.000954      0.000000
    299 O2    s      -0.000018     -0.000223     -0.000333      0.000000
    300 O2    s       0.000123      0.000046      0.000177      0.000000
    301 O2    s       0.000168     -0.000080      0.000055      0.000000
    302 O2    s       0.000120     -0.000137     -0.000179      0.000000
    303 O2    s       0.000087      0.002279     -0.002851      0.000000
    304 O2    s       0.000257      0.000098      0.000046      0.000000
    305 O2    s       0.000089      0.000377      0.000572      0.000000
    306 O2    s       0.000140     -0.000074      0.000128      0.000000
    307 F     s       0.000204      0.000120     -0.000098      0.000000
    308 F     s      -0.000044     -0.000126      0.000072      0.000000
    309 F     s       0.000216     -0.000060      0.000664      0.000000
    310 F     s       0.000224      0.000080     -0.000058      0.000000
    311 F     s       0.000032     -0.000376      0.002516      0.000000
    312 F     s       0.000104      0.000026     -0.000018      0.000000
--------------------------------------------------------------------------------
  Maximum abs         0.004860      0.004798      0.007843      0.000000
--------------------------------------------------------------------------------


  Time to end of optimisation =      45.5543 seconds


  Peak dynamic memory used =      19.13 MB 


  Timing analysis for GULP :

--------------------------------------------------------------------------------
  Task / Subroutine                                          Time (Seconds)
--------------------------------------------------------------------------------
  Calculation of reciprocal space energy and derivatives          1.2537
  Calculation of real space energy and derivatives               39.2695
  Calculation of three-body energy and derivatives                4.2058
  Calculation of matrix inversion                                 0.7436
--------------------------------------------------------------------------------
  Total CPU time                                                 45.5543
--------------------------------------------------------------------------------


  Dump file written as out.res                                                 
  CIF file written as out.cif                                                 


  Job Finished at 03:45.34 24th October    2016                               

