********************************************************************************
*                       GENERAL UTILITY LATTICE PROGRAM                        *
*                                 Julian Gale                                  *
*                      Nanochemistry Research Institute                        *
*                           Department of Chemistry                            *
*                    Curtin University, Western Australia                      *
********************************************************************************
* Version = 4.2.0 * Last modified =  20th January 2014                         *
********************************************************************************
*  optimise     - perform optimisation run                                     *
*  conp         - constant pressure calculation                                *
*  qok          - running with non charge neutral cell is OK                   *
********************************************************************************

  Job Started  at 06:22.37 24th October    2016                               

  Number of CPUs =     1


  Total number of configurations input =   1

********************************************************************************
*  Input for Configuration =   1                                               *
********************************************************************************

  Formula = Si58Ge2O120F6                                               

  Number of irreducible atoms/shells =     312


  Total number atoms/shells =     312

  Dimensionality = 3               :  Bulk   


  Charge on solid   =  -6.000000 =>neutralising background added


  Cartesian lattice vectors (Angstroms) :

       11.968184    0.000000    0.000000
       -6.005383   10.364659    0.000000
        0.033694   -0.077372   29.476580

  Cell parameters (Angstroms/Degrees):

  a =      11.9682    alpha =  90.1630
  b =      11.9788    beta  =  89.9345
  c =      29.4767    gamma = 120.0884

  Initial cell volume =        3656.456342 Angs**3

  Temperature of configuration =  0.000     K 

  Pressure of configuration =         0.000 GPa 

  Fractional coordinates of asymmetric unit :

--------------------------------------------------------------------------------
   No.  Atomic       x           y          z         Charge      Occupancy
        Label      (Frac)      (Frac)     (Frac)        (e)         (Frac)  
--------------------------------------------------------------------------------
      1 Si    c    0.699600    0.375700    0.033890     4.00000    1.000000    
      2 Si    c    0.620470 *  0.324623 *  0.367058 *   4.00000    1.000000    
      3 Si    c    0.676821 *  0.296604 *  0.699519 *   4.00000    1.000000    
      4 Si    c    0.297383 *  0.621339 *  0.533163 *   4.00000    1.000000    
      5 Si    c    0.376321 *  0.674730 *  0.865765 *   4.00000    1.000000    
      6 Si    c    0.325334 *  0.698296 *  0.200133 *   4.00000    1.000000    
      7 Si    c    0.376101 *  0.700788 *  0.301370 *   4.00000    1.000000    
      8 Si    c    0.324584 *  0.624522 *  0.966866 *   4.00000    1.000000    
      9 Si    c    0.297296 *  0.676593 *  0.633759 *   4.00000    1.000000    
     10 Si    c    0.621368 *  0.296327 *  0.800028 *   4.00000    1.000000    
     11 Si    c    0.676135 *  0.379742 *  0.467572 *   4.00000    1.000000    
     12 Si    c    0.702808 *  0.317782 *  0.133484 *   4.00000    1.000000    
     13 Si    c    0.534733 *  0.419495 *  0.967006 *   4.00000    1.000000    
     14 Si    c    0.581958 *  0.113485 *  0.302186 *   4.00000    1.000000    
     15 Si    c    0.886142 *  0.469290 *  0.634256 *   4.00000    1.000000    
     16 Si    c    0.469632 *  0.583572 *  0.468058 *   4.00000    1.000000    
     17 Si    c    0.416028 *  0.885196 *  0.800752 *   4.00000    1.000000    
     18 Si    c    0.116767 *  0.527885 *  0.134002 *   4.00000    1.000000    
     19 Si    c    0.415825 *  0.530505 *  0.366418 *   4.00000    1.000000    
     20 Si    c    0.115336 *  0.584825 *  0.032785 *   4.00000    1.000000    
     21 Si    c    0.469647 *  0.886234 *  0.699078 *   4.00000    1.000000    
     22 Si    c    0.581928 *  0.467667 *  0.865202 *   4.00000    1.000000    
     23 Si    c    0.886122 *  0.416729 *  0.532564 *   4.00000    1.000000    
     24 Si    c    0.535194 *  0.112190 *  0.200435 *   4.00000    1.000000    
     25 Si    c    0.299782 *  0.395816 *  0.852355 *   4.00000    1.000000    
     26 Si    c    0.604591 *  0.901742 *  0.187476 *   4.00000    1.000000    
     27 Si    c    0.095741 *  0.697460 *  0.518685 *   4.00000    1.000000    
     28 Si    c    0.696798 *  0.602144 *  0.352164 *   4.00000    1.000000    
     29 Si    c    0.398050 *  0.094961 *  0.684762 *   4.00000    1.000000    
     30 Si    c    0.904769 *  0.305256 *  0.016558 *   4.00000    1.000000    
     31 Si    c    0.397719 *  0.302941 *  0.482253 *   4.00000    1.000000    
     32 Si    c    0.905385 *  0.594921 *  0.150697 *   4.00000    1.000000    
     33 Si    c    0.697289 *  0.094951 *  0.814949 *   4.00000    1.000000    
     34 Si    c    0.603155 *  0.699485 *  0.979591 *   4.00000    1.000000    
     35 Si    c    0.095515 *  0.398386 *  0.648125 *   4.00000    1.000000    
     36 Si    c    0.299677 *  0.902995 *  0.314867 *   4.00000    1.000000    
     37 Si    c    0.256086 *  0.344359 *  0.953333 *   4.00000    1.000000    
     38 Si    c    0.658005 *  0.910657 *  0.288418 *   4.00000    1.000000    
     39 Si    c    0.088060 *  0.748273 *  0.619250 *   4.00000    1.000000    
     40 Si    c    0.748529 *  0.660730 *  0.452735 *   4.00000    1.000000    
     41 Si    c    0.339918 *  0.087304 *  0.785358 *   4.00000    1.000000    
     42 Si    c    0.914207 *  0.250475 *  0.116390 *   4.00000    1.000000    
     43 Si    c    0.339272 *  0.252077 *  0.381697 *   4.00000    1.000000    
     44 Si    c    0.910992 *  0.656771 *  0.050756 *   4.00000    1.000000    
     45 Si    c    0.748855 *  0.087940 *  0.714375 *   4.00000    1.000000    
     46 Si    c    0.657993 *  0.746847 *  0.878893 *   4.00000    1.000000    
     47 Si    c    0.087920 *  0.339908 *  0.547559 *   4.00000    1.000000    
     48 Si    c    0.256542 *  0.909592 *  0.213811 *   4.00000    1.000000    
     49 Ge    c    0.973261 *  0.121316 *  0.966857 *   4.00000    1.000000    
     50 Si    c    0.876464 *  0.851655 *  0.303100 *   4.00000    1.000000    
     51 Si    c    0.150575 *  0.028460 *  0.633846 *   4.00000    1.000000    
     52 Si    c    0.029318 *  0.878251 *  0.468158 *   4.00000    1.000000    
     53 Si    c    0.122036 *  0.149462 *  0.799554 *   4.00000    1.000000    
     54 Si    c    0.849110 *  0.970569 *  0.133646 *   4.00000    1.000000    
     55 Si    c    0.121583 *  0.971780 *  0.367199 *   4.00000    1.000000    
     56 Si    c    0.848167 *  0.873745 *  0.033038 *   4.00000    1.000000    
     57 Si    c    0.029584 *  0.151213 *  0.698673 *   4.00000    1.000000    
     58 Si    c    0.877095 *  0.024688 *  0.863594 *   4.00000    1.000000    
     59 Si    c    0.150315 *  0.122128 *  0.533058 *   4.00000    1.000000    
     60 Ge    c    0.973029 *  0.847520 *  0.200195 *   4.00000    1.000000    
     61 O3    c    0.935475 *  0.993072 *  0.001580 *   1.33043    1.000000    
     62 O2    c    0.996955 *  0.929910 *  0.336465 *   0.87073    1.000000    
     63 O2    c    0.069864 *  0.070578 *  0.665838 *   0.87073    1.000000    
     64 O2    c    0.069880 *  0.999621 *  0.500823 *   0.87073    1.000000    
     65 O2    c    0.996090 *  0.065807 *  0.829601 *   0.87073    1.000000    
     66 O3    c    0.935258 *  0.935105 *  0.164101 *   1.33043    1.000000    
     67 O2    c    0.337838 *  0.578166 *  0.334215 *   0.87073    1.000000    
     68 O2    c    0.420597 *  0.760822 *  0.666509 *   0.87073    1.000000    
     69 O2    c    0.240541 *  0.663113 *  0.000067 *   0.87073    1.000000    
     70 O2    c    0.658848 *  0.419607 *  0.832594 *   0.87073    1.000000    
     71 O2    c    0.582357 *  0.235114 *  0.167172 *   0.87073    1.000000    
     72 O2    c    0.760329 *  0.340681 *  0.500143 *   0.87073    1.000000    
     73 O2    c    0.579939 *  0.341405 *  0.000127 *   0.87073    1.000000    
     74 O2    c    0.760725 *  0.419712 *  0.666804 *   0.87073    1.000000    
     75 O2    c    0.658399 *  0.239048 *  0.334620 *   0.87073    1.000000    
     76 O2    c    0.420863 *  0.660205 *  0.500564 *   0.87073    1.000000    
     77 O2    c    0.242243 *  0.575901 *  0.166679 *   0.87073    1.000000    
     78 O2    c    0.338253 *  0.759323 *  0.832949 *   0.87073    1.000000    
     79 O3    c    0.136330 *  0.220538 *  0.975347 *   1.33043    1.000000    
     80 O2    c    0.783010 *  0.911794 *  0.310038 *   0.87073    1.000000    
     81 O2    c    0.087150 *  0.874244 *  0.639252 *   0.87073    1.000000    
     82 O2    c    0.874751 *  0.787463 *  0.472762 *   0.87073    1.000000    
     83 O2    c    0.213551 *  0.087100 *  0.805484 *   0.87073    1.000000    
     84 O2    c    0.913339 *  0.125107 *  0.136743 *   0.87073    1.000000    
     85 O2    c    0.212938 *  0.125842 *  0.361490 *   0.87073    1.000000    
     86 O2    c    0.909636 *  0.781133 *  0.030546 *   0.87073    1.000000    
     87 O2    c    0.874881 *  0.087043 *  0.694442 *   0.87073    1.000000    
     88 O2    c    0.782837 *  0.870843 *  0.857239 *   0.87073    1.000000    
     89 O2    c    0.087027 *  0.212944 *  0.527646 *   0.87073    1.000000    
     90 O3    c    0.136309 *  0.913016 *  0.192006 *   1.33043    1.000000    
     91 O3    c    0.932126 *  0.873016 *  0.253228 *   1.33043    1.000000    
     92 O2    c    0.138524 *  0.069156 *  0.583425 *   0.87073    1.000000    
     93 O3    c    0.935459 *  0.059931 *  0.913060 *   1.33043    1.000000    
     94 O2    c    0.075294 *  0.141443 *  0.748468 *   0.87073    1.000000    
     95 O2    c    0.850971 *  0.924900 *  0.083083 *   0.87073    1.000000    
     96 O2    c    0.073303 *  0.932559 *  0.418122 *   0.87073    1.000000    
     97 O3    c    0.897991 *  0.209114 *  0.977114 *   1.33043    1.000000    
     98 O2    c    0.794826 *  0.698524 *  0.313622 *   0.87073    1.000000    
     99 O2    c    0.302074 *  0.097388 *  0.646327 *   0.87073    1.000000    
    100 O2    c    0.097918 *  0.795729 *  0.480415 *   0.87073    1.000000    
    101 O2    c    0.201309 *  0.299529 *  0.813968 *   0.87073    1.000000    
    102 O2    c    0.699920 *  0.898693 *  0.149216 *   0.87073    1.000000    
    103 O2    c    0.201126 *  0.901149 *  0.353119 *   0.87073    1.000000    
    104 O2    c    0.698607 *  0.797466 *  0.017957 *   0.87073    1.000000    
    105 O2    c    0.097732 *  0.302387 *  0.686399 *   0.87073    1.000000    
    106 O2    c    0.795461 *  0.096305 *  0.853390 *   0.87073    1.000000    
    107 O2    c    0.301827 *  0.204830 *  0.520742 *   0.87073    1.000000    
    108 O3    c    0.899089 *  0.684135 *  0.190317 *   1.33043    1.000000    
    109 O2    c    0.321580 *  0.642249 *  0.250894 *   0.87073    1.000000    
    110 O2    c    0.354984 *  0.678140 *  0.583445 *   0.87073    1.000000    
    111 O2    c    0.321815 *  0.678281 *  0.916266 *   0.87073    1.000000    
    112 O2    c    0.678660 *  0.354287 *  0.749904 *   0.87073    1.000000    
    113 O2    c    0.641949 *  0.316379 *  0.083749 *   0.87073    1.000000    
    114 O2    c    0.677323 *  0.323633 *  0.417210 *   0.87073    1.000000    
    115 O2    c    0.379218 *  0.334299 *  0.970372 *   0.87073    1.000000    
    116 O2    c    0.667796 *  0.043383 *  0.306178 *   0.87073    1.000000    
    117 O2    c    0.955232 *  0.625645 *  0.637403 *   0.87073    1.000000    
    118 O2    c    0.626101 *  0.670856 *  0.471092 *   0.87073    1.000000    
    119 O2    c    0.329417 *  0.954884 *  0.803785 *   0.87073    1.000000    
    120 O2    c    0.047128 *  0.371493 *  0.135596 *   0.87073    1.000000    
    121 O2    c    0.328837 *  0.374096 *  0.363411 *   0.87073    1.000000    
    122 O2    c    0.044186 *  0.669948 *  0.031328 *   0.87073    1.000000    
    123 O2    c    0.626093 *  0.955238 *  0.696087 *   0.87073    1.000000    
    124 O2    c    0.667822 *  0.623752 *  0.861380 *   0.87073    1.000000    
    125 O2    c    0.955331 *  0.329722 *  0.529211 *   0.87073    1.000000    
    126 O2    c    0.379740 *  0.042990 *  0.196830 *   0.87073    1.000000    
    127 O2    c    0.769754 *  0.304080 *  0.010923 *   0.87073    1.000000    
    128 O2    c    0.695837 *  0.467654 *  0.344503 *   0.87073    1.000000    
    129 O2    c    0.533021 *  0.228390 *  0.677426 *   0.87073    1.000000    
    130 O2    c    0.229236 *  0.696425 *  0.510954 *   0.87073    1.000000    
    131 O2    c    0.300645 *  0.530162 *  0.844344 *   0.87073    1.000000    
    132 O2    c    0.470532 *  0.767641 *  0.179405 *   0.87073    1.000000    
    133 O2    c    0.300571 *  0.769555 *  0.322900 *   0.87073    1.000000    
    134 O2    c    0.469400 *  0.699654 *  0.988011 *   0.87073    1.000000    
    135 O2    c    0.229150 *  0.533036 *  0.655767 *   0.87073    1.000000    
    136 O2    c    0.696505 *  0.228589 *  0.822654 *   0.87073    1.000000    
    137 O2    c    0.532437 *  0.304295 *  0.489709 *   0.87073    1.000000    
    138 O2    c    0.771638 *  0.459975 *  0.156257 *   0.87073    1.000000    
    139 O2    c    0.782654 *  0.532178 *  0.031828 *   0.87073    1.000000    
    140 O2    c    0.464330 *  0.250447 *  0.362128 *   0.87073    1.000000    
    141 O2    c    0.750641 *  0.214421 *  0.694690 *   0.87073    1.000000    
    142 O2    c    0.214920 *  0.465169 *  0.528189 *   0.87073    1.000000    
    143 O2    c    0.532014 *  0.747603 *  0.860032 *   0.87073    1.000000    
    144 O2    c    0.253552 *  0.781671 *  0.194638 *   0.87073    1.000000    
    145 O2    c    0.531811 *  0.783730 *  0.307117 *   0.87073    1.000000    
    146 O2    c    0.252633 *  0.469196 *  0.972310 *   0.87073    1.000000    
    147 O2    c    0.214830 *  0.750111 *  0.638813 *   0.87073    1.000000    
    148 O2    c    0.465179 *  0.214304 *  0.804808 *   0.87073    1.000000    
    149 O2    c    0.750021 *  0.535855 *  0.472355 *   0.87073    1.000000    
    150 O2    c    0.785391 *  0.244568 *  0.135920 *   0.87073    1.000000    
    151 O2    c    0.229642 *  0.322960 *  0.899039 *   0.87073    1.000000    
    152 O2    c    0.678081 *  0.906501 *  0.234222 *   0.87073    1.000000    
    153 O2    c    0.090936 *  0.767864 *  0.564993 *   0.87073    1.000000    
    154 O2    c    0.767705 *  0.677594 *  0.398423 *   0.87073    1.000000    
    155 O2    c    0.322665 *  0.089285 *  0.731078 *   0.87073    1.000000    
    156 O2    c    0.914233 *  0.232658 *  0.061827 *   0.87073    1.000000    
    157 O2    c    0.322139 *  0.232639 *  0.435981 *   0.87073    1.000000    
    158 O2    c    0.912919 *  0.675644 *  0.105316 *   0.87073    1.000000    
    159 O2    c    0.768091 *  0.090571 *  0.768682 *   0.87073    1.000000    
    160 O2    c    0.677385 *  0.770347 *  0.933142 *   0.87073    1.000000    
    161 O2    c    0.090050 *  0.322897 *  0.601816 *   0.87073    1.000000    
    162 O2    c    0.229500 *  0.904694 *  0.268067 *   0.87073    1.000000    
    163 O2    c    0.593584 *  0.562306 *  0.988835 *   0.87073    1.000000    
    164 O2    c    0.438488 *  0.029880 *  0.323800 *   0.87073    1.000000    
    165 O2    c    0.970010 *  0.412024 *  0.657208 *   0.87073    1.000000    
    166 O2    c    0.411955 *  0.442392 *  0.491101 *   0.87073    1.000000    
    167 O2    c    0.557541 *  0.969480 *  0.823818 *   0.87073    1.000000    
    168 O2    c    0.032252 *  0.582575 *  0.158467 *   0.87073    1.000000    
    169 O2    c    0.557202 *  0.587925 *  0.343276 *   0.87073    1.000000    
    170 O2    c    0.030760 *  0.445126 *  0.008454 *   0.87073    1.000000    
    171 O2    c    0.412196 *  0.969716 *  0.675914 *   0.87073    1.000000    
    172 O2    c    0.438633 *  0.408089 *  0.843484 *   0.87073    1.000000    
    173 O2    c    0.969985 *  0.558134 *  0.509684 *   0.87073    1.000000    
    174 O2    c    0.593976 *  0.028582 *  0.178309 *   0.87073    1.000000    
    175 O2    c    0.587092 *  0.167616 *  0.251187 *   0.87073    1.000000    
    176 O2    c    0.832765 *  0.415998 *  0.583430 *   0.87073    1.000000    
    177 O2    c    0.586341 *  0.417289 *  0.916087 *   0.87073    1.000000    
    178 O2    c    0.416064 *  0.832614 *  0.749803 *   0.87073    1.000000    
    179 O2    c    0.169804 *  0.583550 *  0.083344 *   0.87073    1.000000    
    180 O2    c    0.416334 *  0.583667 *  0.417303 *   0.87073    1.000000    
    181 F     c    0.452815 *  0.904251 *  0.251051 *   0.56000    1.000000    
    182 F     c    0.095039 *  0.547705 *  0.583397 *   0.56000    1.000000    
    183 F     c    0.452704 *  0.547987 *  0.916281 *   0.56000    1.000000    
    184 F     c    0.548247 *  0.094921 *  0.749978 *   0.56000    1.000000    
    185 F     c    0.907729 *  0.450331 *  0.083702 *   0.56000    1.000000    
    186 F     c    0.547551 *  0.452923 *  0.417066 *   0.56000    1.000000    
    187 O3    s    0.929383 *  0.991409 *  0.001939 *  -3.33043    1.000000    
    188 O2    s    0.997695 *  0.925953 *  0.336249 *  -2.87073    1.000000    
    189 O2    s    0.074399 *  0.074871 *  0.665924 *  -2.87073    1.000000    
    190 O2    s    0.074352 *  0.999764 *  0.500778 *  -2.87073    1.000000    
    191 O2    s    0.997169 *  0.070723 *  0.829956 *  -2.87073    1.000000    
    192 O3    s    0.929202 *  0.931315 *  0.163951 *  -3.33043    1.000000    
    193 O2    s    0.349735 *  0.585848 *  0.334134 *  -2.87073    1.000000    
    194 O2    s    0.412956 *  0.765069 *  0.666485 *  -2.87073    1.000000    
    195 O2    s    0.236401 *  0.651271 *  0.999993 *  -2.87073    1.000000    
    196 O2    s    0.647029 *  0.411849 *  0.832599 *  -2.87073    1.000000    
    197 O2    s    0.590059 *  0.230971 *  0.167098 *  -2.87073    1.000000    
    198 O2    s    0.764628 *  0.352533 *  0.500119 *  -2.87073    1.000000    
    199 O2    s    0.587769 *  0.352995 *  0.000254 *  -2.87073    1.000000    
    200 O2    s    0.765020 *  0.412168 *  0.666822 *  -2.87073    1.000000    
    201 O2    s    0.646568 *  0.234872 *  0.334617 *  -2.87073    1.000000    
    202 O2    s    0.413177 *  0.648309 *  0.500576 *  -2.87073    1.000000    
    203 O2    s    0.237993 *  0.583483 *  0.166783 *  -2.87073    1.000000    
    204 O2    s    0.350087 *  0.763535 *  0.833024 *  -2.87073    1.000000    
    205 O3    s    0.134920 *  0.224825 *  0.972443 *  -3.33043    1.000000    
    206 O2    s    0.779790 *  0.905347 *  0.307088 *  -2.87073    1.000000    
    207 O2    s    0.093965 *  0.877578 *  0.636643 *  -2.87073    1.000000    
    208 O2    s    0.878105 *  0.783983 *  0.470222 *  -2.87073    1.000000    
    209 O2    s    0.216934 *  0.093720 *  0.802803 *  -2.87073    1.000000    
    210 O2    s    0.906564 *  0.121917 *  0.134268 *  -2.87073    1.000000    
    211 O2    s    0.216340 *  0.122580 *  0.364162 *  -2.87073    1.000000    
    212 O2    s    0.903161 *  0.777808 *  0.032947 *  -2.87073    1.000000    
    213 O2    s    0.878277 *  0.093953 *  0.696928 *  -2.87073    1.000000    
    214 O2    s    0.779691 *  0.874048 *  0.860137 *  -2.87073    1.000000    
    215 O2    s    0.093822 *  0.216434 *  0.530247 *  -2.87073    1.000000    
    216 O3    s    0.134910 *  0.907232 *  0.194881 *  -3.33043    1.000000    
    217 O3    s    0.929696 *  0.868473 *  0.253970 *  -3.33043    1.000000    
    218 O2    s    0.141224 *  0.070552 *  0.583427 *  -2.87073    1.000000    
    219 O3    s    0.932419 *  0.061466 *  0.912398 *  -3.33043    1.000000    
    220 O2    s    0.075380 *  0.143458 *  0.748602 *  -2.87073    1.000000    
    221 O2    s    0.850456 *  0.924271 *  0.083135 *  -2.87073    1.000000    
    222 O2    s    0.073778 *  0.930833 *  0.418030 *  -2.87073    1.000000    
    223 O3    s    0.904806 *  0.211164 *  0.980065 *  -3.33043    1.000000    
    224 O2    s    0.793381 *  0.704660 *  0.316415 *  -2.87073    1.000000    
    225 O2    s    0.295798 *  0.089810 *  0.648931 *  -2.87073    1.000000    
    226 O2    s    0.090361 *  0.794423 *  0.483042 *  -2.87073    1.000000    
    227 O2    s    0.202995 *  0.293431 *  0.816392 *  -2.87073    1.000000    
    228 O2    s    0.705833 *  0.906657 *  0.151587 *  -2.87073    1.000000    
    229 O2    s    0.202788 *  0.908875 *  0.350681 *  -2.87073    1.000000    
    230 O2    s    0.704583 *  0.795365 *  0.015528 *  -2.87073    1.000000    
    231 O2    s    0.090214 *  0.296123 *  0.683766 *  -2.87073    1.000000    
    232 O2    s    0.793989 *  0.088745 *  0.850576 *  -2.87073    1.000000    
    233 O2    s    0.295535 *  0.206098 *  0.518103 *  -2.87073    1.000000    
    234 O3    s    0.905738 *  0.688925 *  0.187339 *  -3.33043    1.000000    
    235 O2    s    0.327470 *  0.653835 *  0.250849 *  -2.87073    1.000000    
    236 O2    s    0.343206 *  0.672171 *  0.583447 *  -2.87073    1.000000    
    237 O2    s    0.327602 *  0.672486 *  0.916285 *  -2.87073    1.000000    
    238 O2    s    0.672619 *  0.342477 *  0.749882 *  -2.87073    1.000000    
    239 O2    s    0.653964 *  0.322582 *  0.083647 *  -2.87073    1.000000    
    240 O2    s    0.671397 *  0.329483 *  0.417231 *  -2.87073    1.000000    
    241 O2    s    0.382784 *  0.344467 *  0.968190 *  -2.87073    1.000000    
    242 O2    s    0.657868 *  0.036646 *  0.303882 *  -2.87073    1.000000    
    243 O2    s    0.961999 *  0.622386 *  0.635176 *  -2.87073    1.000000    
    244 O2    s    0.622799 *  0.660812 *  0.468849 *  -2.87073    1.000000    
    245 O2    s    0.339410 *  0.961551 *  0.801543 *  -2.87073    1.000000    
    246 O2    s    0.040533 *  0.375099 *  0.133424 *  -2.87073    1.000000    
    247 O2    s    0.338871 *  0.377412 *  0.365641 *  -2.87073    1.000000    
    248 O2    s    0.037774 *  0.659743 *  0.033501 *  -2.87073    1.000000    
    249 O2    s    0.622830 *  0.962010 *  0.698317 *  -2.87073    1.000000    
    250 O2    s    0.657874 *  0.620539 *  0.863635 *  -2.87073    1.000000    
    251 O2    s    0.962057 *  0.339720 *  0.531476 *  -2.87073    1.000000    
    252 O2    s    0.383235 *  0.036217 *  0.199032 *  -2.87073    1.000000    
    253 O2    s    0.776625 *  0.311769 *  0.013986 *  -2.87073    1.000000    
    254 O2    s    0.688198 *  0.467098 *  0.347651 *  -2.87073    1.000000    
    255 O2    s    0.533605 *  0.221349 *  0.680507 *  -2.87073    1.000000    
    256 O2    s    0.222190 *  0.688787 *  0.514087 *  -2.87073    1.000000    
    257 O2    s    0.308365 *  0.531064 *  0.847427 *  -2.87073    1.000000    
    258 O2    s    0.469549 *  0.774507 *  0.182438 *  -2.87073    1.000000    
    259 O2    s    0.308269 *  0.776396 *  0.319802 *  -2.87073    1.000000    
    260 O2    s    0.468425 *  0.691864 *  0.984899 *  -2.87073    1.000000    
    261 O2    s    0.222081 *  0.533638 *  0.652660 *  -2.87073    1.000000    
    262 O2    s    0.688880 *  0.221500 *  0.819498 *  -2.87073    1.000000    
    263 O2    s    0.533055 *  0.311939 *  0.486610 *  -2.87073    1.000000    
    264 O2    s    0.778671 *  0.459385 *  0.153220 *  -2.87073    1.000000    
    265 O2    s    0.788013 *  0.529351 *  0.034096 *  -2.87073    1.000000    
    266 O2    s    0.467094 *  0.258482 *  0.364739 *  -2.87073    1.000000    
    267 O2    s    0.742651 *  0.209222 *  0.697291 *  -2.87073    1.000000    
    268 O2    s    0.209660 *  0.467861 *  0.530769 *  -2.87073    1.000000    
    269 O2    s    0.529329 *  0.739754 *  0.862659 *  -2.87073    1.000000    
    270 O2    s    0.261567 *  0.786655 *  0.197254 *  -2.87073    1.000000    
    271 O2    s    0.529174 *  0.788918 *  0.304504 *  -2.87073    1.000000    
    272 O2    s    0.260705 *  0.472235 *  0.969717 *  -2.87073    1.000000    
    273 O2    s    0.209591 *  0.742154 *  0.636203 *  -2.87073    1.000000    
    274 O2    s    0.467909 *  0.208993 *  0.802227 *  -2.87073    1.000000    
    275 O2    s    0.742053 *  0.533065 *  0.469761 *  -2.87073    1.000000    
    276 O2    s    0.790656 *  0.253117 *  0.133552 *  -2.87073    1.000000    
    277 O2    s    0.239544 *  0.332682 *  0.899745 *  -2.87073    1.000000    
    278 O2    s    0.668348 *  0.906401 *  0.235027 *  -2.87073    1.000000    
    279 O2    s    0.091120 *  0.758376 *  0.565898 *  -2.87073    1.000000    
    280 O2    s    0.758239 *  0.667905 *  0.399336 *  -2.87073    1.000000    
    281 O2    s    0.332420 *  0.089660 *  0.731970 *  -2.87073    1.000000    
    282 O2    s    0.913361 *  0.241818 *  0.062887 *  -2.87073    1.000000    
    283 O2    s    0.331894 *  0.242096 *  0.435079 *  -2.87073    1.000000    
    284 O2    s    0.912024 *  0.665612 *  0.104283 *  -2.87073    1.000000    
    285 O2    s    0.758624 *  0.090736 *  0.767767 *  -2.87073    1.000000    
    286 O2    s    0.667679 *  0.760588 *  0.932281 *  -2.87073    1.000000    
    287 O2    s    0.090396 *  0.332640 *  0.600909 *  -2.87073    1.000000    
    288 O2    s    0.239455 *  0.904957 *  0.267388 *  -2.87073    1.000000    
    289 O2    s    0.588249 *  0.562004 *  0.985516 *  -2.87073    1.000000    
    290 O2    s    0.438578 *  0.024827 *  0.320574 *  -2.87073    1.000000    
    291 O2    s    0.974954 *  0.416734 *  0.653823 *  -2.87073    1.000000    
    292 O2    s    0.416624 *  0.442105 *  0.487735 *  -2.87073    1.000000    
    293 O2    s    0.557760 *  0.974315 *  0.820462 *  -2.87073    1.000000    
    294 O2    s    0.027328 *  0.578029 *  0.155086 *  -2.87073    1.000000    
    295 O2    s    0.557429 *  0.583273 *  0.346644 *  -2.87073    1.000000    
    296 O2    s    0.025909 *  0.444672 *  0.011847 *  -2.87073    1.000000    
    297 O2    s    0.416849 *  0.974692 *  0.679288 *  -2.87073    1.000000    
    298 O2    s    0.438714 *  0.413167 *  0.846721 *  -2.87073    1.000000    
    299 O2    s    0.974939 *  0.558360 *  0.513049 *  -2.87073    1.000000    
    300 O2    s    0.588768 *  0.023448 *  0.181649 *  -2.87073    1.000000    
    301 O2    s    0.581193 *  0.156293 *  0.251199 *  -2.87073    1.000000    
    302 O2    s    0.843816 *  0.421600 *  0.583426 *  -2.87073    1.000000    
    303 O2    s    0.580581 *  0.422686 *  0.916126 *  -2.87073    1.000000    
    304 O2    s    0.421606 *  0.843604 *  0.749842 *  -2.87073    1.000000    
    305 O2    s    0.158788 *  0.577957 *  0.083364 *  -2.87073    1.000000    
    306 O2    s    0.421791 *  0.578148 *  0.417278 *  -2.87073    1.000000    
    307 F     s    0.452623 *  0.904028 *  0.251038 *  -1.56000    1.000000    
    308 F     s    0.095419 *  0.547903 *  0.583396 *  -1.56000    1.000000    
    309 F     s    0.452550 *  0.548153 *  0.916311 *  -1.56000    1.000000    
    310 F     s    0.548503 *  0.095361 *  0.749995 *  -1.56000    1.000000    
    311 F     s    0.907523 *  0.450110 *  0.083723 *  -1.56000    1.000000    
    312 F     s    0.547781 *  0.452727 *  0.417044 *  -1.56000    1.000000    
--------------------------------------------------------------------------------



********************************************************************************
*  General input information                                                   *
********************************************************************************

  Species output for all configurations : 

--------------------------------------------------------------------------------
  Species    Type    Atomic    Atomic    Charge       Radii (Angs)     Library
                     Number     Mass       (e)     Cova   Ionic  VDW   Symbol
--------------------------------------------------------------------------------
    Si       Core       14      28.09   4.000000   1.200  0.000  2.100          
    O1       Core        8      16.00   1.733957   0.730  0.000  1.360          
    O1       Shell       8       0.00  -3.733957   0.730  0.000  1.360          
    O2       Core        8      16.00   0.870733   0.730  0.000  1.360          
    O2       Shell       8       0.00  -2.870733   0.730  0.000  1.360          
    O3       Core        8      16.00   1.330431   0.730  0.000  1.360          
    O3       Shell       8       0.00  -3.330431   0.730  0.000  1.360          
    F        Core        9      19.00   0.560000   0.710  0.000  1.300          
    F        Shell       9       0.00  -1.560000   0.710  0.000  1.300          
    Ge       Core       32      72.61   4.000000   1.170  0.000  1.750          
--------------------------------------------------------------------------------


  Lattice summation method               =    Ewald          (3-D)
                                         =    Parry          (2-D)
                                         =    Saunders et al (1-D)
  Accuracy factor for lattice sums       =   12.000


  Time limit = Infinity

  Maximum range for interatomic potentials =        16.000000 Angstroms

  Taper potentials to zero over   1.0000 Angstroms using polynomial

  General interatomic potentials :

--------------------------------------------------------------------------------
Atom  Types   Potential         A         B         C         D     Cutoffs(Ang)
  1     2                                                            Min    Max 
--------------------------------------------------------------------------------
Si   c O1   s Buckingham    0.132E+04 0.318      10.1      0.00     0.000 16.000
Si   c O2   s Buckingham    0.132E+04 0.318      10.1      0.00     0.000 16.000
Si   c O3   s Buckingham    0.132E+04 0.318      10.1      0.00     0.000 16.000
Ge   c O1   s Buckingham    0.150E+04 0.326      16.8      0.00     0.000 16.000
Ge   c O2   s Buckingham    0.150E+04 0.326      16.8      0.00     0.000 16.000
Ge   c O3   s Buckingham    0.150E+04 0.326      16.8      0.00     0.000 16.000
O1   s O1   s Buckingham    0.228E+05 0.149      10.9      0.00     0.000 16.000
O1   s O2   s Buckingham    0.228E+05 0.149      10.9      0.00     0.000 16.000
O1   s O3   s Buckingham    0.228E+05 0.149      10.9      0.00     0.000 16.000
O2   s O2   s Buckingham    0.228E+05 0.149      10.9      0.00     0.000 16.000
O2   s O3   s Buckingham    0.228E+05 0.149      10.9      0.00     0.000 16.000
O3   s O3   s Buckingham    0.228E+05 0.149      10.9      0.00     0.000 16.000
Si   c F    s Buckingham     977.     0.282      0.00      0.00     0.000 16.000
Ge   c F    s Buckingham     681.     0.320      0.00      0.00     0.000 16.000
F    s F    s Buckingham     540.     0.262      0.00      0.00     0.000 16.000
O1   s F    s Buckingham    0.168E+04 0.268      0.00      0.00     0.000 16.000
O2   s F    s Buckingham    0.168E+04 0.268      0.00      0.00     0.000 16.000
O3   s F    s Buckingham    0.168E+04 0.268      0.00      0.00     0.000 16.000
O2   c O2   s Spring (c-s)   76.0      0.00      0.00      0.00     0.000  0.800
O3   c O3   s Spring (c-s)   128.      0.00      0.00      0.00     0.000  0.800
O1   c O1   s Spring (c-s)   180.      0.00      0.00      0.00     0.000  0.800
F    c F    s Spring (c-s)   33.5      0.00      0.00      0.00     0.000  0.800
--------------------------------------------------------------------------------

  General Three-body potentials :

  Harmonic form:

--------------------------------------------------------------------------------
Atom    Atom    Atom           Force Constants            Theta     Cutoffs  
  1       2       3     (eVrad**-2/eVrad**-3/eVrad**-4)   (deg)  1-2  1-3  2-3
--------------------------------------------------------------------------------
Si    c O1    s O1    s  1.261        0.0000    0.0000   109.470 0.00 0.00 0.00
                                                                 1.90 1.90 3.50
Si    c O1    s O2    s  1.261        0.0000    0.0000   109.470 0.00 0.00 0.00
                                                                 1.90 1.90 3.50
Si    c O2    s O2    s  1.261        0.0000    0.0000   109.470 0.00 0.00 0.00
                                                                 1.90 1.90 3.50
--------------------------------------------------------------------------------

********************************************************************************
*  Output for configuration   1                                                *
********************************************************************************


  Components of energy : 

--------------------------------------------------------------------------------
  Interatomic potentials     =        2060.52725244 eV
  Three-body potentials      =           0.44918463 eV
  Monopole - monopole (real) =       -6638.50573147 eV
  Monopole - monopole (recip)=       -3148.15413175 eV
  Monopole - monopole (total)=       -9786.65986322 eV
  Neutralising energy        =          -6.46023745 eV
--------------------------------------------------------------------------------
  Total lattice energy       =       -7732.14366359 eV
--------------------------------------------------------------------------------
  Total lattice energy       =         -746033.6669 kJ/(mole unit cells)
--------------------------------------------------------------------------------


  Number of variables =      939

  Maximum number of calculations  =          5000
  Maximum Hessian update interval =            10
  Maximum step size               =   0.100000000
  Maximum parameter tolerance     =   0.000010000
  Maximum function  tolerance     =   0.000010000
  Maximum gradient  tolerance     =   0.001000000
  Maximum gradient  component     =   0.010000000

  Symmetry not applied to optimisation

  Cell parameters to be optimised using strains

  Newton-Raphson optimiser to be used

  BFGS hessian update to be used

  Dumpfile to be written after every cycle

  Start of bulk optimisation :

  Cycle:      0 Energy:     -7732.143664  Gnorm:      0.005341  CPU:    2.027
  ** Hessian calculated **
  Cycle:      1 Energy:     -7732.143720  Gnorm:      0.001719  CPU:    5.235
  Cycle:      2 Energy:     -7732.143737  Gnorm:      0.001078  CPU:    8.068
  Cycle:      3 Energy:     -7732.143754  Gnorm:      0.000837  CPU:   10.900
  Cycle:      4 Energy:     -7732.143774  Gnorm:      0.000788  CPU:   13.735
  Cycle:      5 Energy:     -7732.143803  Gnorm:      0.000896  CPU:   16.571
  Cycle:      6 Energy:     -7732.143845  Gnorm:      0.001154  CPU:   19.406
  Cycle:      7 Energy:     -7732.144052  Gnorm:      0.002855  CPU:   24.966
  Cycle:      8 Energy:     -7732.144290  Gnorm:      0.004651  CPU:   29.163
  Cycle:      9 Energy:     -7732.144574  Gnorm:      0.006680  CPU:   33.358
  Cycle:     10 Energy:     -7732.144893  Gnorm:      0.009044  CPU:   37.553
  ** Hessian calculated **
  Cycle:     11 Energy:     -7732.145051  Gnorm:      0.003651  CPU:   42.082
  Cycle:     12 Energy:     -7732.145095  Gnorm:      0.002337  CPU:   44.915
  Cycle:     13 Energy:     -7732.145131  Gnorm:      0.001713  CPU:   47.753
  Cycle:     14 Energy:     -7732.145209  Gnorm:      0.002034  CPU:   52.628
  Cycle:     15 Energy:     -7732.145253  Gnorm:      0.002166  CPU:   55.462
  Cycle:     16 Energy:     -7732.145287  Gnorm:      0.002273  CPU:   58.299
  Cycle:     17 Energy:     -7732.145324  Gnorm:      0.002259  CPU:   61.133
  Cycle:     18 Energy:     -7732.145364  Gnorm:      0.002138  CPU:   63.969
  Cycle:     19 Energy:     -7732.145411  Gnorm:      0.001951  CPU:   66.801
  Cycle:     20 Energy:     -7732.145531  Gnorm:      0.001818  CPU:   71.672
  ** Hessian calculated **
  Cycle:     21 Energy:     -7732.145595  Gnorm:      0.001815  CPU:   76.195
  Cycle:     22 Energy:     -7732.145755  Gnorm:      0.001805  CPU:   81.067
  Cycle:     23 Energy:     -7732.146023  Gnorm:      0.001789  CPU:   85.938
  Cycle:     24 Energy:     -7732.146438  Gnorm:      0.001763  CPU:   90.810
  Cycle:     25 Energy:     -7732.147055  Gnorm:      0.001725  CPU:   95.681
  Cycle:     26 Energy:     -7732.147811  Gnorm:      0.001676  CPU:   99.872
  Cycle:     27 Energy:     -7732.149048  Gnorm:      0.001593  CPU:  104.743
  Cycle:     28 Energy:     -7732.150557  Gnorm:      0.001486  CPU:  108.935
  Cycle:     29 Energy:     -7732.152916  Gnorm:      0.001301  CPU:  113.806
  Cycle:     30 Energy:     -7732.155514  Gnorm:      0.001060  CPU:  117.997
  ** Hessian calculated **
  Cycle:     31 Energy:     -7732.158477  Gnorm:      0.000695  CPU:  123.878
  Cycle:     32 Energy:     -7732.160119  Gnorm:      0.000374  CPU:  128.069
  Cycle:     33 Energy:     -7732.160528  Gnorm:      0.000205  CPU:  132.260
  Cycle:     34 Energy:     -7732.160630  Gnorm:      0.000108  CPU:  136.450
  Cycle:     35 Energy:     -7732.160647  Gnorm:      0.000077  CPU:  139.282
  Cycle:     36 Energy:     -7732.160655  Gnorm:      0.000054  CPU:  142.114
  Cycle:     37 Energy:     -7732.160660  Gnorm:      0.000038  CPU:  144.946
  Cycle:     38 Energy:     -7732.160662  Gnorm:      0.000027  CPU:  147.791


  **** Optimisation achieved ****


  Final energy =   -7732.16066261 eV
  Final Gnorm  =       0.00001864

  Components of energy : 

--------------------------------------------------------------------------------
  Interatomic potentials     =        2060.31382178 eV
  Three-body potentials      =           0.44932227 eV
  Monopole - monopole (real) =       -6638.74989912 eV
  Monopole - monopole (recip)=       -3147.71457084 eV
  Monopole - monopole (total)=       -9786.46446995 eV
  Neutralising energy        =          -6.45933671 eV
--------------------------------------------------------------------------------
  Total lattice energy       =       -7732.16066261 eV
--------------------------------------------------------------------------------
  Total lattice energy       =         -746035.3070 kJ/(mole unit cells)
--------------------------------------------------------------------------------

  Final fractional coordinates of atoms :

--------------------------------------------------------------------------------
   No.  Atomic        x           y          z          Radius
        Label       (Frac)      (Frac)     (Frac)       (Angs) 
--------------------------------------------------------------------------------
     1  Si    c     0.699600    0.375700    0.033890    0.000000
     2  Si    c     0.613850    0.316615    0.367087    0.000000
     3  Si    c     0.669284    0.286668    0.699578    0.000000
     4  Si    c     0.289425    0.611801    0.533273    0.000000
     5  Si    c     0.370879    0.666809    0.865767    0.000000
     6  Si    c     0.321905    0.691787    0.200125    0.000000
     7  Si    c     0.370879    0.693418    0.301540    0.000000
     8  Si    c     0.321897    0.619451    0.967181    0.000000
     9  Si    c     0.289425    0.666982    0.634032    0.000000
    10  Si    c     0.613856    0.286592    0.800219    0.000000
    11  Si    c     0.669280    0.371968    0.467727    0.000000
    12  Si    c     0.699627    0.313206    0.133419    0.000000
    13  Si    c     0.531348    0.415040    0.967190    0.000000
    14  Si    c     0.576188    0.105590    0.302216    0.000000
    15  Si    c     0.878913    0.460296    0.634565    0.000000
    16  Si    c     0.462650    0.575088    0.468193    0.000000
    17  Si    c     0.409257    0.876536    0.800876    0.000000
    18  Si    c     0.113066    0.521770    0.134249    0.000000
    19  Si    c     0.409255    0.522072    0.366430    0.000000
    20  Si    c     0.113053    0.580615    0.033055    0.000000
    21  Si    c     0.462651    0.876918    0.699113    0.000000
    22  Si    c     0.576187    0.459944    0.865093    0.000000
    23  Si    c     0.878914    0.407973    0.532739    0.000000
    24  Si    c     0.531352    0.105637    0.200119    0.000000
    25  Si    c     0.294128    0.388140    0.852496    0.000000
    26  Si    c     0.600680    0.894883    0.187722    0.000000
    27  Si    c     0.088056    0.688228    0.518878    0.000000
    28  Si    c     0.690081    0.593839    0.352057    0.000000
    29  Si    c     0.390892    0.085393    0.684814    0.000000
    30  Si    c     0.902259    0.302072    0.016250    0.000000
    31  Si    c     0.390890    0.294852    0.482492    0.000000
    32  Si    c     0.902264    0.589503    0.151059    0.000000
    33  Si    c     0.690085    0.085598    0.815250    0.000000
    34  Si    c     0.600667    0.695122    0.979584    0.000000
    35  Si    c     0.088055    0.389184    0.648426    0.000000
    36  Si    c     0.294128    0.895335    0.314811    0.000000
    37  Si    c     0.252809    0.339387    0.953790    0.000000
    38  Si    c     0.652410    0.902905    0.288861    0.000000
    39  Si    c     0.080322    0.738909    0.619599    0.000000
    40  Si    c     0.741479    0.652619    0.452794    0.000000
    41  Si    c     0.332721    0.078064    0.785535    0.000000
    42  Si    c     0.910437    0.245001    0.116142    0.000000
    43  Si    c     0.332717    0.244008    0.381771    0.000000
    44  Si    c     0.910410    0.654732    0.051166    0.000000
    45  Si    c     0.741482    0.078216    0.714512    0.000000
    46  Si    c     0.652409    0.738853    0.878448    0.000000
    47  Si    c     0.080321    0.330768    0.547705    0.000000
    48  Si    c     0.252814    0.902760    0.213517    0.000000
    49  Ge    c     0.969625    0.116982    0.966884    0.000000
    50  Si    c     0.870530    0.843516    0.303299    0.000000
    51  Si    c     0.143321    0.019185    0.634066    0.000000
    52  Si    c     0.022358    0.869636    0.468315    0.000000
    53  Si    c     0.115683    0.141345    0.799942    0.000000
    54  Si    c     0.846171    0.965389    0.134064    0.000000
    55  Si    c     0.115680    0.963687    0.367361    0.000000
    56  Si    c     0.846162    0.870097    0.033239    0.000000
    57  Si    c     0.022361    0.142079    0.698989    0.000000
    58  Si    c     0.870534    0.016365    0.864003    0.000000
    59  Si    c     0.143319    0.113491    0.533239    0.000000
    60  Ge    c     0.969624    0.841961    0.200422    0.000000
    61  O3    c     0.933395    0.990928    0.002554    0.000000
    62  O2    c     0.990630    0.921069    0.336850    0.000000
    63  O2    c     0.063137    0.061585    0.666258    0.000000
    64  O2    c     0.063138    0.990910    0.501044    0.000000
    65  O2    c     0.990621    0.058902    0.830447    0.000000
    66  O3    c     0.933396    0.931762    0.164740    0.000000
    67  O2    c     0.331787    0.570397    0.334249    0.000000
    68  O2    c     0.413025    0.751330    0.666622    0.000000
    69  O2    c     0.238507    0.658726    0.000468    0.000000
    70  O2    c     0.651920    0.410260    0.832601    0.000000
    71  O2    c     0.578899    0.228777    0.166910    0.000000
    72  O2    c     0.753231    0.332573    0.500287    0.000000
    73  O2    c     0.578879    0.339428    0.000398    0.000000
    74  O2    c     0.753233    0.410014    0.667018    0.000000
    75  O2    c     0.651917    0.231011    0.334706    0.000000
    76  O2    c     0.413026    0.651052    0.500684    0.000000
    77  O2    c     0.238523    0.569123    0.166835    0.000000
    78  O2    c     0.331790    0.750741    0.833058    0.000000
    79  O3    c     0.132547    0.215522    0.975455    0.000000
    80  O2    c     0.777191    0.903672    0.310491    0.000000
    81  O2    c     0.079608    0.865065    0.639477    0.000000
    82  O2    c     0.867746    0.779484    0.472648    0.000000
    83  O2    c     0.206574    0.078279    0.805666    0.000000
    84  O2    c     0.909351    0.119687    0.136495    0.000000
    85  O2    c     0.206570    0.117645    0.361639    0.000000
    86  O2    c     0.909319    0.778959    0.030814    0.000000
    87  O2    c     0.867748    0.077616    0.694659    0.000000
    88  O2    c     0.777189    0.862868    0.856817    0.000000
    89  O2    c     0.079607    0.203898    0.527827    0.000000
    90  O3    c     0.132548    0.906358    0.191853    0.000000
    91  O3    c     0.927503    0.866127    0.253527    0.000000
    92  O2    c     0.131421    0.060387    0.583652    0.000000
    93  O3    c     0.927529    0.050735    0.913772    0.000000
    94  O2    c     0.067847    0.132790    0.748932    0.000000
    95  O2    c     0.847032    0.918191    0.083649    0.000000
    96  O2    c     0.067830    0.924401    0.418370    0.000000
    97  O3    c     0.895569    0.206198    0.976676    0.000000
    98  O2    c     0.788372    0.690358    0.313560    0.000000
    99  O2    c     0.294742    0.087516    0.646382    0.000000
   100  O2    c     0.090133    0.786474    0.480642    0.000000
   101  O2    c     0.195447    0.291291    0.814274    0.000000
   102  O2    c     0.697247    0.892767    0.149779    0.000000
   103  O2    c     0.195447    0.893506    0.353033    0.000000
   104  O2    c     0.697235    0.793803    0.017528    0.000000
   105  O2    c     0.090132    0.293015    0.686662    0.000000
   106  O2    c     0.788376    0.087366    0.853745    0.000000
   107  O2    c     0.294741    0.196582    0.520923    0.000000
   108  O3    c     0.895579    0.678687    0.190634    0.000000
   109  O2    c     0.317727    0.635442    0.250882    0.000000
   110  O2    c     0.346735    0.668049    0.583652    0.000000
   111  O2    c     0.317726    0.671629    0.916425    0.000000
   112  O2    c     0.670646    0.344034    0.749989    0.000000
   113  O2    c     0.640683    0.314982    0.083655    0.000000
   114  O2    c     0.670638    0.315962    0.417317    0.000000
   115  O2    c     0.375944    0.329370    0.970864    0.000000
   116  O2    c     0.662125    0.035678    0.306450    0.000000
   117  O2    c     0.947712    0.616479    0.637887    0.000000
   118  O2    c     0.619015    0.662636    0.471241    0.000000
   119  O2    c     0.322134    0.945663    0.803916    0.000000
   120  O2    c     0.043096    0.365559    0.135531    0.000000
   121  O2    c     0.322129    0.365821    0.363391    0.000000
   122  O2    c     0.043071    0.666843    0.031775    0.000000
   123  O2    c     0.619016    0.945735    0.696065    0.000000
   124  O2    c     0.662125    0.615794    0.860860    0.000000
   125  O2    c     0.947714    0.320591    0.529415    0.000000
   126  O2    c     0.375948    0.035912    0.196443    0.000000
   127  O2    c     0.768533    0.303109    0.010617    0.000000
   128  O2    c     0.689139    0.459413    0.344448    0.000000
   129  O2    c     0.525719    0.218557    0.677369    0.000000
   130  O2    c     0.221479    0.687149    0.511148    0.000000
   131  O2    c     0.294811    0.522270    0.844427    0.000000
   132  O2    c     0.466991    0.760908    0.179291    0.000000
   133  O2    c     0.294811    0.761888    0.322880    0.000000
   134  O2    c     0.466980    0.695409    0.988018    0.000000
   135  O2    c     0.221479    0.523686    0.656155    0.000000
   136  O2    c     0.689143    0.219081    0.822858    0.000000
   137  O2    c     0.525716    0.296515    0.489938    0.000000
   138  O2    c     0.768549    0.454733    0.156691    0.000000
   139  O2    c     0.781835    0.531506    0.031749    0.000000
   140  O2    c     0.457822    0.242523    0.362173    0.000000
   141  O2    c     0.743057    0.204467    0.694780    0.000000
   142  O2    c     0.206930    0.455840    0.528161    0.000000
   143  O2    c     0.526343    0.739302    0.859573    0.000000
   144  O2    c     0.250158    0.775120    0.194312    0.000000
   145  O2    c     0.526343    0.776389    0.307734    0.000000
   146  O2    c     0.250149    0.464370    0.972993    0.000000
   147  O2    c     0.206929    0.740446    0.639144    0.000000
   148  O2    c     0.457828    0.204655    0.805132    0.000000
   149  O2    c     0.743053    0.527942    0.472526    0.000000
   150  O2    c     0.781858    0.239636    0.135563    0.000000
   151  O2    c     0.225014    0.316795    0.899506    0.000000
   152  O2    c     0.672975    0.898668    0.234658    0.000000
   153  O2    c     0.082830    0.758155    0.565284    0.000000
   154  O2    c     0.760428    0.669117    0.398420    0.000000
   155  O2    c     0.315686    0.080123    0.731190    0.000000
   156  O2    c     0.910847    0.228533    0.061472    0.000000
   157  O2    c     0.315683    0.224913    0.436116    0.000000
   158  O2    c     0.910834    0.671618    0.105836    0.000000
   159  O2    c     0.760432    0.080668    0.768886    0.000000
   160  O2    c     0.672968    0.763648    0.932651    0.000000
   161  O2    c     0.082825    0.314029    0.602020    0.000000
   162  O2    c     0.225014    0.897558    0.267800    0.000000
   163  O2    c     0.590211    0.557843    0.988933    0.000000
   164  O2    c     0.432795    0.021924    0.323790    0.000000
   165  O2    c     0.962731    0.403040    0.657556    0.000000
   166  O2    c     0.405260    0.434234    0.491385    0.000000
   167  O2    c     0.550358    0.960602    0.824189    0.000000
   168  O2    c     0.028521    0.576232    0.158891    0.000000
   169  O2    c     0.550355    0.579107    0.343118    0.000000
   170  O2    c     0.028508    0.441605    0.008414    0.000000
   171  O2    c     0.405262    0.960382    0.675921    0.000000
   172  O2    c     0.432796    0.400220    0.843518    0.000000
   173  O2    c     0.962730    0.549047    0.509748    0.000000
   174  O2    c     0.590215    0.021699    0.178374    0.000000
   175  O2    c     0.581768    0.159744    0.251143    0.000000
   176  O2    c     0.825754    0.407553    0.583652    0.000000
   177  O2    c     0.581763    0.411360    0.916165    0.000000
   178  O2    c     0.409544    0.823803    0.749941    0.000000
   179  O2    c     0.166467    0.577898    0.083652    0.000000
   180  O2    c     0.409544    0.575096    0.417366    0.000000
   181  F     c     0.448006    0.896141    0.251059    0.000000
   182  F     c     0.087287    0.538322    0.583652    0.000000
   183  F     c     0.448005    0.541213    0.916249    0.000000
   184  F     c     0.540719    0.085156    0.750132    0.000000
   185  F     c     0.904630    0.446963    0.083655    0.000000
   186  F     c     0.540713    0.444915    0.417174    0.000000
   187  O3    s     0.927083    0.988782    0.002777    0.000000
   188  O2    s     0.991495    0.917288    0.336595    0.000000
   189  O2    s     0.067555    0.065837    0.666313    0.000000
   190  O2    s     0.067555    0.991075    0.500989    0.000000
   191  O2    s     0.991489    0.063551    0.830703    0.000000
   192  O3    s     0.927084    0.927601    0.164519    0.000000
   193  O2    s     0.343711    0.578044    0.334184    0.000000
   194  O2    s     0.405428    0.755593    0.666608    0.000000
   195  O2    s     0.234267    0.646823    0.000379    0.000000
   196  O2    s     0.640152    0.402646    0.832616    0.000000
   197  O2    s     0.586521    0.224782    0.166862    0.000000
   198  O2    s     0.757555    0.344394    0.500274    0.000000
   199  O2    s     0.586502    0.351043    0.000447    0.000000
   200  O2    s     0.757557    0.402516    0.667031    0.000000
   201  O2    s     0.640149    0.226857    0.334691    0.000000
   202  O2    s     0.405429    0.639192    0.500698    0.000000
   203  O2    s     0.234281    0.576785    0.166925    0.000000
   204  O2    s     0.343713    0.755018    0.833122    0.000000
   205  O3    s     0.131193    0.219866    0.972576    0.000000
   206  O2    s     0.773988    0.897277    0.307515    0.000000
   207  O2    s     0.086424    0.868361    0.636881    0.000000
   208  O2    s     0.871110    0.775942    0.470161    0.000000
   209  O2    s     0.209999    0.084938    0.803004    0.000000
   210  O2    s     0.902694    0.116525    0.134081    0.000000
   211  O2    s     0.209995    0.114410    0.364301    0.000000
   212  O2    s     0.902664    0.775466    0.033227    0.000000
   213  O2    s     0.871113    0.084523    0.697146    0.000000
   214  O2    s     0.773986    0.866059    0.859793    0.000000
   215  O2    s     0.086423    0.207419    0.530423    0.000000
   216  O3    s     0.131194    0.900658    0.194732    0.000000
   217  O3    s     0.925036    0.861572    0.254269    0.000000
   218  O2    s     0.134112    0.061733    0.583652    0.000000
   219  O3    s     0.925058    0.052819    0.913031    0.000000
   220  O2    s     0.068096    0.134818    0.749044    0.000000
   221  O2    s     0.846840    0.918091    0.083650    0.000000
   222  O2    s     0.068083    0.922625    0.418258    0.000000
   223  O3    s     0.902259    0.208117    0.979674    0.000000
   224  O2    s     0.786956    0.696468    0.316372    0.000000
   225  O2    s     0.288490    0.080031    0.649008    0.000000
   226  O2    s     0.082670    0.785235    0.483265    0.000000
   227  O2    s     0.197106    0.285270    0.816686    0.000000
   228  O2    s     0.702995    0.900724    0.152108    0.000000
   229  O2    s     0.197107    0.901186    0.350620    0.000000
   230  O2    s     0.702983    0.791593    0.015198    0.000000
   231  O2    s     0.082669    0.286791    0.684039    0.000000
   232  O2    s     0.786960    0.079841    0.850934    0.000000
   233  O2    s     0.288489    0.197814    0.518298    0.000000
   234  O3    s     0.902268    0.683458    0.187635    0.000000
   235  O2    s     0.323529    0.647029    0.250856    0.000000
   236  O2    s     0.335022    0.662192    0.583652    0.000000
   237  O2    s     0.323528    0.665844    0.916450    0.000000
   238  O2    s     0.664700    0.332286    0.749975    0.000000
   239  O2    s     0.652609    0.320947    0.083654    0.000000
   240  O2    s     0.664692    0.321764    0.417331    0.000000
   241  O2    s     0.379448    0.339534    0.968652    0.000000
   242  O2    s     0.652212    0.028929    0.304150    0.000000
   243  O2    s     0.954479    0.613227    0.635632    0.000000
   244  O2    s     0.615739    0.652600    0.468993    0.000000
   245  O2    s     0.332180    0.952399    0.801675    0.000000
   246  O2    s     0.036566    0.369216    0.133369    0.000000
   247  O2    s     0.332175    0.369131    0.365631    0.000000
   248  O2    s     0.036542    0.656656    0.033937    0.000000
   249  O2    s     0.615741    0.952495    0.698313    0.000000
   250  O2    s     0.652211    0.612630    0.863160    0.000000
   251  O2    s     0.954480    0.330609    0.531671    0.000000
   252  O2    s     0.379452    0.029251    0.198655    0.000000
   253  O2    s     0.775525    0.310639    0.013703    0.000000
   254  O2    s     0.681517    0.458881    0.347598    0.000000
   255  O2    s     0.526287    0.211532    0.680471    0.000000
   256  O2    s     0.214420    0.679498    0.514274    0.000000
   257  O2    s     0.302582    0.523168    0.847506    0.000000
   258  O2    s     0.465987    0.767778    0.182366    0.000000
   259  O2    s     0.302583    0.768762    0.319802    0.000000
   260  O2    s     0.465976    0.687535    0.984943    0.000000
   261  O2    s     0.214419    0.524278    0.653030    0.000000
   262  O2    s     0.681522    0.211992    0.819709    0.000000
   263  O2    s     0.526284    0.304109    0.486835    0.000000
   264  O2    s     0.775542    0.454197    0.153605    0.000000
   265  O2    s     0.787135    0.528296    0.034080    0.000000
   266  O2    s     0.460563    0.250527    0.364785    0.000000
   267  O2    s     0.735105    0.199304    0.697383    0.000000
   268  O2    s     0.201720    0.458530    0.530775    0.000000
   269  O2    s     0.523726    0.731543    0.862246    0.000000
   270  O2    s     0.258106    0.780108    0.196963    0.000000
   271  O2    s     0.523727    0.781531    0.305061    0.000000
   272  O2    s     0.258098    0.467330    0.970342    0.000000
   273  O2    s     0.201720    0.732547    0.636529    0.000000
   274  O2    s     0.460568    0.199392    0.802520    0.000000
   275  O2    s     0.735101    0.525154    0.469923    0.000000
   276  O2    s     0.787158    0.248149    0.133231    0.000000
   277  O2    s     0.234938    0.326480    0.900146    0.000000
   278  O2    s     0.663293    0.898686    0.235440    0.000000
   279  O2    s     0.083106    0.748754    0.566186    0.000000
   280  O2    s     0.751047    0.659486    0.399331    0.000000
   281  O2    s     0.325392    0.080448    0.732088    0.000000
   282  O2    s     0.910021    0.237609    0.062572    0.000000
   283  O2    s     0.325389    0.234295    0.435218    0.000000
   284  O2    s     0.910008    0.661715    0.104735    0.000000
   285  O2    s     0.751051    0.080918    0.767975    0.000000
   286  O2    s     0.663286    0.753947    0.931868    0.000000
   287  O2    s     0.083102    0.323707    0.601117    0.000000
   288  O2    s     0.234938    0.897798    0.267161    0.000000
   289  O2    s     0.584981    0.557645    0.985612    0.000000
   290  O2    s     0.432896    0.016913    0.320560    0.000000
   291  O2    s     0.967657    0.407710    0.654161    0.000000
   292  O2    s     0.409872    0.433899    0.488002    0.000000
   293  O2    s     0.550653    0.965437    0.820801    0.000000
   294  O2    s     0.023656    0.571831    0.155488    0.000000
   295  O2    s     0.550650    0.574567    0.346505    0.000000
   296  O2    s     0.023644    0.441140    0.011818    0.000000
   297  O2    s     0.409874    0.965329    0.679304    0.000000
   298  O2    s     0.432896    0.405331    0.846747    0.000000
   299  O2    s     0.967656    0.549303    0.513143    0.000000
   300  O2    s     0.584986    0.016666    0.181695    0.000000
   301  O2    s     0.575994    0.148582    0.251129    0.000000
   302  O2    s     0.836770    0.413061    0.583652    0.000000
   303  O2    s     0.575990    0.416748    0.916180    0.000000
   304  O2    s     0.415014    0.834771    0.749961    0.000000
   305  O2    s     0.155497    0.572412    0.083652    0.000000
   306  O2    s     0.415014    0.569597    0.417345    0.000000
   307  F     s     0.447804    0.895834    0.251044    0.000000
   308  F     s     0.087644    0.538501    0.583652    0.000000
   309  F     s     0.447803    0.541318    0.916265    0.000000
   310  F     s     0.540935    0.085558    0.750150    0.000000
   311  F     s     0.904380    0.446837    0.083655    0.000000
   312  F     s     0.540929    0.444729    0.417156    0.000000
--------------------------------------------------------------------------------

  Final Cartesian lattice vectors (Angstroms) :

       11.972115    0.003579    0.002226
       -6.004256   10.375001   -0.001088
        0.039166   -0.077369   29.444760


  Final cell parameters and derivatives :

--------------------------------------------------------------------------------
       a           11.972116 Angstrom     dE/de1(xx)     0.000291 eV/strain
       b           11.987148 Angstrom     dE/de2(yy)     0.000247 eV/strain
       c           29.444888 Angstrom     dE/de3(zz)     0.003658 eV/strain
       alpha       90.173676 Degrees      dE/de4(yz)     0.000319 eV/strain
       beta        89.913178 Degrees      dE/de5(xz)    -0.000074 eV/strain
       gamma      120.041842 Degrees      dE/de6(xy)    -0.000202 eV/strain
--------------------------------------------------------------------------------

  Primitive cell volume =          3657.986206 Angs**3

  Density of cell =      1.728865 g/cm**3

  Non-primitive cell volume =          3657.986206 Angs**3


  Final internal derivatives :

--------------------------------------------------------------------------------
   No.  Atomic          a             b             c           Radius
        Label          (eV)          (eV)          (eV)        (eV/Angs)
--------------------------------------------------------------------------------
      1 Si    c       0.000000      0.000000      0.000000      0.000000
      2 Si    c       0.000164     -0.000008      0.000068      0.000000
      3 Si    c       0.000423      0.000218      0.000499      0.000000
      4 Si    c       0.000674      0.000150      0.000467      0.000000
      5 Si    c       0.000395     -0.000364      0.000375      0.000000
      6 Si    c      -0.000995      0.000868      0.000657      0.000000
      7 Si    c      -0.000702      0.000635     -0.000728      0.000000
      8 Si    c       0.000004     -0.000413     -0.000760      0.000000
      9 Si    c       0.000470      0.000282     -0.000477      0.000000
     10 Si    c       0.000484      0.000603     -0.000632      0.000000
     11 Si    c      -0.000091     -0.000336     -0.000887      0.000000
     12 Si    c       0.000406     -0.000344      0.001007      0.000000
     13 Si    c      -0.000732      0.000623     -0.002082      0.000000
     14 Si    c       0.000343      0.000560     -0.000261      0.000000
     15 Si    c       0.000236     -0.000467     -0.000729      0.000000
     16 Si    c      -0.000262      0.000093     -0.000051      0.000000
     17 Si    c       0.000193     -0.000406     -0.000349      0.000000
     18 Si    c      -0.000280      0.001032      0.000430      0.000000
     19 Si    c       0.000078      0.000118      0.001218      0.000000
     20 Si    c       0.000177      0.000765      0.000545      0.000000
     21 Si    c      -0.000012     -0.000358      0.000411      0.000000
     22 Si    c      -0.000240      0.000583     -0.000093      0.000000
     23 Si    c       0.000113     -0.000555      0.000330      0.000000
     24 Si    c       0.000416      0.000206      0.000269      0.000000
     25 Si    c       0.000221      0.000118     -0.000347      0.000000
     26 Si    c      -0.000621      0.000832      0.000470      0.000000
     27 Si    c       0.000434     -0.000247      0.000649      0.000000
     28 Si    c       0.000304      0.000065      0.000683      0.000000
     29 Si    c      -0.000209      0.000273      0.000371      0.000000
     30 Si    c       0.000496     -0.000178     -0.000356      0.000000
     31 Si    c      -0.000763      0.000353     -0.000517      0.000000
     32 Si    c       0.001069     -0.000737      0.001294      0.000000
     33 Si    c       0.000291      0.000043     -0.000707      0.000000
     34 Si    c      -0.000369     -0.000329      0.000344      0.000000
     35 Si    c       0.000172     -0.000235     -0.001085      0.000000
     36 Si    c       0.000221     -0.000141     -0.000939      0.000000
     37 Si    c       0.000143      0.000073     -0.000329      0.000000
     38 Si    c      -0.000300      0.000669     -0.000724      0.000000
     39 Si    c       0.000288     -0.000026     -0.000430      0.000000
     40 Si    c      -0.000202      0.000072     -0.000373      0.000000
     41 Si    c      -0.000231      0.000588     -0.000499      0.000000
     42 Si    c      -0.000157      0.000287     -0.000092      0.000000
     43 Si    c      -0.000077      0.000209      0.000456      0.000000
     44 Si    c       0.000651      0.000051     -0.000423      0.000000
     45 Si    c       0.000142      0.000099      0.000486      0.000000
     46 Si    c      -0.000062      0.000137     -0.000305      0.000000
     47 Si    c       0.000425     -0.000348      0.000453      0.000000
     48 Si    c      -0.000051     -0.000112      0.001011      0.000000
     49 Ge    c      -0.000335      0.001059      0.002916      0.000000
     50 Si    c       0.000165      0.000260     -0.000104      0.000000
     51 Si    c      -0.000488      0.000748      0.000662      0.000000
     52 Si    c      -0.000145      0.000720     -0.000228      0.000000
     53 Si    c       0.000340      0.000185     -0.000597      0.000000
     54 Si    c      -0.001004     -0.000053     -0.000821      0.000000
     55 Si    c      -0.000287     -0.000172      0.000228      0.000000
     56 Si    c      -0.000327     -0.000334      0.000372      0.000000
     57 Si    c       0.000260     -0.000022     -0.000723      0.000000
     58 Si    c       0.000159      0.001180     -0.000567      0.000000
     59 Si    c      -0.000927      0.000548      0.000354      0.000000
     60 Ge    c      -0.000317     -0.000371      0.001854      0.000000
     61 O3    c       0.000168      0.000030     -0.001030      0.000000
     62 O2    c       0.000080     -0.000075      0.000253      0.000000
     63 O2    c       0.000069      0.000013     -0.000145      0.000000
     64 O2    c      -0.000509      0.000473     -0.000219      0.000000
     65 O2    c       0.000085     -0.000011     -0.000336      0.000000
     66 O3    c      -0.000596      0.000408      0.000215      0.000000
     67 O2    c      -0.000069      0.000297      0.000414      0.000000
     68 O2    c      -0.000027      0.000151     -0.000279      0.000000
     69 O2    c      -0.000007      0.000059      0.000351      0.000000
     70 O2    c       0.000170      0.000090     -0.000575      0.000000
     71 O2    c      -0.000058     -0.000054     -0.000229      0.000000
     72 O2    c       0.000167     -0.000157      0.000280      0.000000
     73 O2    c       0.000181     -0.000649      0.000277      0.000000
     74 O2    c       0.000345     -0.000130      0.000263      0.000000
     75 O2    c      -0.000040      0.000243     -0.000056      0.000000
     76 O2    c       0.000247     -0.000382      0.000203      0.000000
     77 O2    c      -0.000627      0.000771      0.000624      0.000000
     78 O2    c       0.000254      0.000062     -0.000373      0.000000
     79 O3    c      -0.000274     -0.000307      0.000876      0.000000
     80 O2    c      -0.000214      0.000182     -0.000074      0.000000
     81 O2    c      -0.000063      0.000102      0.000131      0.000000
     82 O2    c      -0.000332      0.000128      0.000087      0.000000
     83 O2    c       0.000154      0.000281      0.000009      0.000000
     84 O2    c      -0.000109      0.000371      0.000052      0.000000
     85 O2    c       0.000145      0.000018      0.000005      0.000000
     86 O2    c       0.000547     -0.000237     -0.000318      0.000000
     87 O2    c      -0.000050      0.000140     -0.000289      0.000000
     88 O2    c      -0.000089     -0.000292     -0.000636      0.000000
     89 O2    c       0.000470     -0.000077      0.000139      0.000000
     90 O3    c       0.000300      0.000105     -0.001841      0.000000
     91 O3    c       0.000202     -0.000117      0.001128      0.000000
     92 O2    c      -0.000519      0.000530      0.000477      0.000000
     93 O3    c      -0.000242     -0.000599     -0.008420      0.000000
     94 O2    c       0.000199     -0.000037     -0.000280      0.000000
     95 O2    c      -0.000359      0.000460      0.001560      0.000000
     96 O2    c      -0.000145      0.000118     -0.000505      0.000000
     97 O3    c      -0.000204      0.000779      0.000773      0.000000
     98 O2    c       0.000160     -0.000295      0.000639      0.000000
     99 O2    c      -0.000064      0.000305      0.000599      0.000000
    100 O2    c       0.000403     -0.000503     -0.000246      0.000000
    101 O2    c       0.000302      0.000176      0.000037      0.000000
    102 O2    c      -0.000564      0.000389     -0.000849      0.000000
    103 O2    c       0.000096      0.000172     -0.000073      0.000000
    104 O2    c      -0.000494     -0.000152     -0.000401      0.000000
    105 O2    c       0.000104      0.000083     -0.000113      0.000000
    106 O2    c      -0.000014      0.000041     -0.000198      0.000000
    107 O2    c      -0.000376      0.000568      0.000144      0.000000
    108 O3    c       0.000600     -0.000617     -0.001995      0.000000
    109 O2    c      -0.000558      0.000155      0.001341      0.000000
    110 O2    c       0.000298      0.000044     -0.000141      0.000000
    111 O2    c      -0.000100      0.000111     -0.000208      0.000000
    112 O2    c       0.000208      0.000161      0.000215      0.000000
    113 O2    c      -0.000672     -0.000125     -0.001360      0.000000
    114 O2    c       0.000081     -0.000165     -0.000066      0.000000
    115 O2    c      -0.000248     -0.000056     -0.000235      0.000000
    116 O2    c       0.000105     -0.000042      0.000227      0.000000
    117 O2    c       0.000064     -0.000020      0.000507      0.000000
    118 O2    c       0.000188      0.000028      0.000421      0.000000
    119 O2    c       0.000052      0.000127      0.000618      0.000000
    120 O2    c      -0.000148      0.000104      0.000240      0.000000
    121 O2    c      -0.000027     -0.000040     -0.000029      0.000000
    122 O2    c       0.000120      0.000066     -0.000013      0.000000
    123 O2    c       0.000149     -0.000054     -0.000426      0.000000
    124 O2    c      -0.000061      0.000558     -0.000202      0.000000
    125 O2    c      -0.000033      0.000170     -0.000491      0.000000
    126 O2    c       0.000220     -0.000083      0.000461      0.000000
    127 O2    c      -0.000224      0.000144     -0.001226      0.000000
    128 O2    c       0.000150      0.000104     -0.000454      0.000000
    129 O2    c       0.000051      0.000193     -0.000432      0.000000
    130 O2    c       0.000000     -0.000107     -0.000651      0.000000
    131 O2    c       0.000307      0.000006     -0.000134      0.000000
    132 O2    c      -0.000477      0.000371     -0.000668      0.000000
    133 O2    c       0.000208      0.000078      0.000305      0.000000
    134 O2    c       0.000201     -0.000180      0.000376      0.000000
    135 O2    c       0.000219     -0.000125      0.000414      0.000000
    136 O2    c       0.000034      0.000108      0.000494      0.000000
    137 O2    c       0.000058     -0.000162      0.000267      0.000000
    138 O2    c      -0.000103      0.000200      0.000719      0.000000
    139 O2    c      -0.000007     -0.000120     -0.000768      0.000000
    140 O2    c       0.000051     -0.000159     -0.000539      0.000000
    141 O2    c       0.000050      0.000283     -0.000498      0.000000
    142 O2    c       0.000533     -0.000275     -0.000300      0.000000
    143 O2    c       0.000254      0.000153     -0.000516      0.000000
    144 O2    c      -0.000088      0.000144      0.000396      0.000000
    145 O2    c      -0.000006      0.000177      0.000734      0.000000
    146 O2    c      -0.000040     -0.000359      0.000013      0.000000
    147 O2    c       0.000176      0.000027      0.000162      0.000000
    148 O2    c      -0.000210      0.000471      0.000120      0.000000
    149 O2    c       0.000025     -0.000033      0.000459      0.000000
    150 O2    c      -0.000106     -0.000080      0.000216      0.000000
    151 O2    c      -0.000112     -0.000218      0.000123      0.000000
    152 O2    c       0.000074      0.000472      0.000019      0.000000
    153 O2    c       0.000306     -0.000034     -0.000599      0.000000
    154 O2    c       0.000268      0.000138      0.000352      0.000000
    155 O2    c      -0.000440      0.000457      0.000484      0.000000
    156 O2    c       0.000044     -0.000303      0.000306      0.000000
    157 O2    c      -0.000494      0.000149      0.000263      0.000000
    158 O2    c       0.000342      0.000329     -0.000878      0.000000
    159 O2    c       0.000214      0.000094      0.000454      0.000000
    160 O2    c       0.000430      0.000389     -0.001116      0.000000
    161 O2    c       0.000214     -0.000372      0.000386      0.000000
    162 O2    c       0.000234     -0.000054     -0.000585      0.000000
    163 O2    c      -0.000030     -0.000116      0.000203      0.000000
    164 O2    c       0.000029      0.000211     -0.000233      0.000000
    165 O2    c      -0.000234      0.000011      0.000155      0.000000
    166 O2    c      -0.000268      0.000030      0.000686      0.000000
    167 O2    c       0.000171     -0.000190      0.000284      0.000000
    168 O2    c       0.000077      0.000220      0.000170      0.000000
    169 O2    c      -0.000096      0.000199     -0.000364      0.000000
    170 O2    c       0.000174      0.000293      0.000020      0.000000
    171 O2    c      -0.000005     -0.000093     -0.000523      0.000000
    172 O2    c      -0.000073      0.000257     -0.000593      0.000000
    173 O2    c       0.000224     -0.000142     -0.000357      0.000000
    174 O2    c       0.000065      0.000221     -0.000664      0.000000
    175 O2    c       0.000050      0.000231      0.000067      0.000000
    176 O2    c       0.000118     -0.000460      0.000430      0.000000
    177 O2    c      -0.000030     -0.000107     -0.000174      0.000000
    178 O2    c       0.000014     -0.000273     -0.000173      0.000000
    179 O2    c      -0.000185      0.000619      0.000729      0.000000
    180 O2    c      -0.000106      0.000112      0.000346      0.000000
    181 F     c      -0.000215      0.000533     -0.000049      0.000000
    182 F     c      -0.000033      0.000028     -0.000022      0.000000
    183 F     c       0.000067     -0.000122     -0.000023      0.000000
    184 F     c       0.000035      0.000005     -0.000095      0.000000
    185 F     c       0.000186      0.000259      0.000038      0.000000
    186 F     c      -0.000059      0.000001     -0.000015      0.000000
    187 O3    s      -0.000480     -0.000231     -0.000080      0.000000
    188 O2    s      -0.000418      0.000339     -0.001016      0.000000
    189 O2    s       0.000055     -0.000150     -0.000093      0.000000
    190 O2    s       0.000956     -0.000791      0.000573      0.000000
    191 O2    s      -0.000140      0.000228     -0.000014      0.000000
    192 O3    s      -0.000158     -0.001204      0.000021      0.000000
    193 O2    s       0.000542     -0.000100     -0.000912      0.000000
    194 O2    s      -0.000490      0.000366      0.000019      0.000000
    195 O2    s       0.000261     -0.000458     -0.000341      0.000000
    196 O2    s       0.000190      0.000111     -0.000776      0.000000
    197 O2    s      -0.000108      0.000272      0.000756      0.000000
    198 O2    s      -0.000249      0.000333     -0.000111      0.000000
    199 O2    s       0.000206      0.000511      0.000507      0.000000
    200 O2    s      -0.000246      0.000108     -0.000554      0.000000
    201 O2    s      -0.000135      0.000141     -0.000260      0.000000
    202 O2    s      -0.000053      0.000182      0.000011      0.000000
    203 O2    s       0.000411     -0.000449     -0.000499      0.000000
    204 O2    s      -0.000018      0.000315      0.000227      0.000000
    205 O3    s       0.000363      0.000163     -0.001609      0.000000
    206 O2    s       0.000329     -0.000101     -0.000638      0.000000
    207 O2    s       0.000481     -0.000252     -0.000703      0.000000
    208 O2    s       0.000609     -0.000902      0.000079      0.000000
    209 O2    s       0.000184      0.000008     -0.000033      0.000000
    210 O2    s      -0.000301      0.000176     -0.000064      0.000000
    211 O2    s       0.000129      0.000182     -0.000232      0.000000
    212 O2    s      -0.000196      0.000283      0.000020      0.000000
    213 O2    s      -0.000047      0.000204      0.000598      0.000000
    214 O2    s      -0.000016     -0.000027      0.000858      0.000000
    215 O2    s      -0.000261      0.000199     -0.000381      0.000000
    216 O3    s       0.000125      0.000499      0.002904      0.000000
    217 O3    s      -0.000254      0.000288     -0.002647      0.000000
    218 O2    s       0.000836     -0.001076     -0.000569      0.000000
    219 O3    s       0.000464      0.000838      0.003612      0.000000
    220 O2    s      -0.000229      0.000331     -0.000317      0.000000
    221 O2    s      -0.000495      0.000101      0.001019      0.000000
    222 O2    s       0.000437     -0.000505      0.000928      0.000000
    223 O3    s       0.000228     -0.000069      0.000940      0.000000
    224 O2    s      -0.000569      0.000598     -0.000098      0.000000
    225 O2    s       0.000209     -0.000428     -0.000996      0.000000
    226 O2    s      -0.000118      0.000419      0.000650      0.000000
    227 O2    s       0.000184      0.000197     -0.000083      0.000000
    228 O2    s      -0.000227      0.000007      0.000897      0.000000
    229 O2    s      -0.000012      0.000053      0.000140      0.000000
    230 O2    s       0.000127     -0.000605      0.000362      0.000000
    231 O2    s      -0.000359      0.000265     -0.000175      0.000000
    232 O2    s      -0.000009      0.000529     -0.000945      0.000000
    233 O2    s       0.000868     -0.000891     -0.000963      0.000000
    234 O3    s      -0.001004      0.001138      0.000877      0.000000
    235 O2    s       0.000610     -0.000994     -0.001049      0.000000
    236 O2    s       0.000233      0.000386     -0.000062      0.000000
    237 O2    s      -0.000839      0.000727     -0.000012      0.000000
    238 O2    s      -0.000004      0.000487     -0.000322      0.000000
    239 O2    s      -0.000003      0.000591      0.000181      0.000000
    240 O2    s       0.000134     -0.000292      0.000397      0.000000
    241 O2    s       0.000221     -0.000507      0.000151      0.000000
    242 O2    s       0.000283      0.000360      0.000097      0.000000
    243 O2    s      -0.000355      0.000344     -0.000499      0.000000
    244 O2    s       0.000082     -0.000059      0.000395      0.000000
    245 O2    s       0.000167     -0.000053      0.000039      0.000000
    246 O2    s       0.000481     -0.000443      0.000047      0.000000
    247 O2    s      -0.000046      0.000088     -0.000978      0.000000
    248 O2    s       0.000289      0.000449     -0.000606      0.000000
    249 O2    s      -0.000026      0.000047     -0.000152      0.000000
    250 O2    s       0.000672     -0.000267     -0.000264      0.000000
    251 O2    s      -0.000025     -0.000053     -0.000600      0.000000
    252 O2    s      -0.000745      0.000835     -0.000274      0.000000
    253 O2    s      -0.000018      0.000220      0.000508      0.000000
    254 O2    s       0.000083     -0.000076     -0.000169      0.000000
    255 O2    s      -0.000144      0.000060     -0.000301      0.000000
    256 O2    s       0.000157      0.000287     -0.000322      0.000000
    257 O2    s      -0.000502      0.000304     -0.001264      0.000000
    258 O2    s       0.000669     -0.000663     -0.000853      0.000000
    259 O2    s       0.000053     -0.000065      0.001275      0.000000
    260 O2    s      -0.000242      0.000303      0.001380      0.000000
    261 O2    s      -0.000087      0.000017      0.000414      0.000000
    262 O2    s       0.000069      0.000358      0.000040      0.000000
    263 O2    s       0.000130     -0.000380      0.000310      0.000000
    264 O2    s      -0.000380      0.000617     -0.000766      0.000000
    265 O2    s      -0.000496     -0.000190      0.000296      0.000000
    266 O2    s       0.000116     -0.000062      0.000047      0.000000
    267 O2    s       0.000222      0.000105     -0.000295      0.000000
    268 O2    s      -0.000025      0.000138     -0.000558      0.000000
    269 O2    s      -0.000365      0.000609      0.000151      0.000000
    270 O2    s      -0.000453      0.000083     -0.001004      0.000000
    271 O2    s       0.000755     -0.000857      0.000275      0.000000
    272 O2    s      -0.000619      0.000295      0.000620      0.000000
    273 O2    s       0.000127      0.000487      0.000298      0.000000
    274 O2    s       0.000152      0.000091      0.000027      0.000000
    275 O2    s       0.000310     -0.000245      0.000143      0.000000
    276 O2    s      -0.000023     -0.000066      0.000360      0.000000
    277 O2    s      -0.000071     -0.000349      0.000401      0.000000
    278 O2    s       0.000872     -0.000413     -0.000274      0.000000
    279 O2    s      -0.000299      0.000784     -0.000069      0.000000
    280 O2    s       0.000195      0.000097      0.000085      0.000000
    281 O2    s       0.000336     -0.000385     -0.000404      0.000000
    282 O2    s       0.000397     -0.000274     -0.000288      0.000000
    283 O2    s       0.000522     -0.000772     -0.000200      0.000000
    284 O2    s      -0.000517      0.000616      0.000894      0.000000
    285 O2    s       0.000343      0.000097     -0.000018      0.000000
    286 O2    s       0.000148      0.000112      0.000918      0.000000
    287 O2    s      -0.000241      0.000084     -0.000040      0.000000
    288 O2    s      -0.000837      0.000935      0.000035      0.000000
    289 O2    s       0.000607     -0.000375      0.000545      0.000000
    290 O2    s      -0.000215      0.000372      0.000865      0.000000
    291 O2    s       0.000063     -0.000255      0.000281      0.000000
    292 O2    s       0.000046     -0.000041     -0.000084      0.000000
    293 O2    s      -0.000150      0.000420      0.000468      0.000000
    294 O2    s      -0.000034      0.000481      0.000045      0.000000
    295 O2    s      -0.000171      0.000527     -0.000442      0.000000
    296 O2    s       0.000255     -0.000447     -0.000909      0.000000
    297 O2    s      -0.000362      0.000086      0.000044      0.000000
    298 O2    s       0.000414     -0.000459     -0.000522      0.000000
    299 O2    s      -0.000393      0.000503     -0.000633      0.000000
    300 O2    s       0.000370      0.000261     -0.000143      0.000000
    301 O2    s       0.000054      0.000532     -0.000201      0.000000
    302 O2    s      -0.000582      0.000384     -0.000580      0.000000
    303 O2    s       0.000670     -0.000467      0.000256      0.000000
    304 O2    s      -0.000473      0.000289      0.000238      0.000000
    305 O2    s       0.000930     -0.000315     -0.000793      0.000000
    306 O2    s      -0.000218      0.000438     -0.000489      0.000000
    307 F     s      -0.000030      0.000363     -0.000086      0.000000
    308 F     s      -0.000051      0.000041      0.000006      0.000000
    309 F     s       0.000087     -0.000125     -0.000333      0.000000
    310 F     s      -0.000175      0.000100     -0.000132      0.000000
    311 F     s       0.000081      0.000023     -0.000093      0.000000
    312 F     s       0.000102     -0.000138      0.000014      0.000000
--------------------------------------------------------------------------------
  Maximum abs         0.001069      0.001204      0.008420      0.000000
--------------------------------------------------------------------------------


  Time to end of optimisation =     150.6351 seconds


  Peak dynamic memory used =      19.13 MB 


  Timing analysis for GULP :

--------------------------------------------------------------------------------
  Task / Subroutine                                          Time (Seconds)
--------------------------------------------------------------------------------
  Calculation of reciprocal space energy and derivatives          3.5666
  Calculation of real space energy and derivatives              131.1385
  Calculation of three-body energy and derivatives               14.2418
  Calculation of matrix inversion                                 1.4869
  Global summation overhead                                       0.0002
--------------------------------------------------------------------------------
  Total CPU time                                                150.6351
--------------------------------------------------------------------------------


  Dump file written as out.res                                                 
  CIF file written as out.cif                                                 


  Job Finished at 06:25.07 24th October    2016                               

