********************************************************************************
*                       GENERAL UTILITY LATTICE PROGRAM                        *
*                                 Julian Gale                                  *
*                      Nanochemistry Research Institute                        *
*                           Department of Chemistry                            *
*                    Curtin University, Western Australia                      *
********************************************************************************
* Version = 4.2.0 * Last modified =  20th January 2014                         *
********************************************************************************
*  optimise     - perform optimisation run                                     *
*  conp         - constant pressure calculation                                *
*  qok          - running with non charge neutral cell is OK                   *
********************************************************************************

  Job Started  at 06:18.45 24th October    2016                               

  Number of CPUs =     1


  Total number of configurations input =   1

********************************************************************************
*  Input for Configuration =   1                                               *
********************************************************************************

  Formula = Si58Ge2O120F6                                               

  Number of irreducible atoms/shells =     312


  Total number atoms/shells =     312

  Dimensionality = 3               :  Bulk   


  Charge on solid   =  -6.000000 =>neutralising background added


  Cartesian lattice vectors (Angstroms) :

       11.951941    0.000000    0.000000
       -5.977847   10.389321    0.000000
        0.023959   -0.021805   29.452146

  Cell parameters (Angstroms/Degrees):

  a =      11.9519    alpha =  90.0600
  b =      11.9864    beta  =  89.9534
  c =      29.4522    gamma = 119.9154

  Initial cell volume =        3657.148313 Angs**3

  Temperature of configuration =  0.000     K 

  Pressure of configuration =         0.000 GPa 

  Fractional coordinates of asymmetric unit :

--------------------------------------------------------------------------------
   No.  Atomic       x           y          z         Charge      Occupancy
        Label      (Frac)      (Frac)     (Frac)        (e)         (Frac)  
--------------------------------------------------------------------------------
      1 Si    c    0.699600    0.375700    0.033890     4.00000    1.000000    
      2 Si    c    0.618517 *  0.321854 *  0.365723 *   4.00000    1.000000    
      3 Si    c    0.676109 *  0.295062 *  0.699637 *   4.00000    1.000000    
      4 Si    c    0.299273 *  0.626354 *  0.532386 *   4.00000    1.000000    
      5 Si    c    0.377205 *  0.674519 *  0.865729 *   4.00000    1.000000    
      6 Si    c    0.323493 *  0.699954 *  0.199086 *   4.00000    1.000000    
      7 Si    c    0.377695 *  0.700191 *  0.300025 *   4.00000    1.000000    
      8 Si    c    0.326232 *  0.625069 *  0.966887 *   4.00000    1.000000    
      9 Si    c    0.298721 *  0.675356 *  0.633636 *   4.00000    1.000000    
     10 Si    c    0.620017 *  0.294360 *  0.800247 *   4.00000    1.000000    
     11 Si    c    0.677627 *  0.380650 *  0.465814 *   4.00000    1.000000    
     12 Si    c    0.703776 *  0.320292 *  0.134043 *   4.00000    1.000000    
     13 Si    c    0.535030 *  0.420478 *  0.967553 *   4.00000    1.000000    
     14 Si    c    0.582103 *  0.111336 *  0.300837 *   4.00000    1.000000    
     15 Si    c    0.886119 *  0.468298 *  0.634359 *   4.00000    1.000000    
     16 Si    c    0.468341 *  0.584897 *  0.466831 *   4.00000    1.000000    
     17 Si    c    0.415842 *  0.884297 *  0.800550 *   4.00000    1.000000    
     18 Si    c    0.114225 *  0.526815 *  0.133771 *   4.00000    1.000000    
     19 Si    c    0.413926 *  0.527658 *  0.365329 *   4.00000    1.000000    
     20 Si    c    0.114708 *  0.582161 *  0.032186 *   4.00000    1.000000    
     21 Si    c    0.470166 *  0.884930 *  0.698811 *   4.00000    1.000000    
     22 Si    c    0.582339 *  0.466980 *  0.865586 *   4.00000    1.000000    
     23 Si    c    0.886014 *  0.422372 *  0.532280 *   4.00000    1.000000    
     24 Si    c    0.530407 *  0.110872 *  0.199099 *   4.00000    1.000000    
     25 Si    c    0.300214 *  0.395911 *  0.852781 *   4.00000    1.000000    
     26 Si    c    0.601745 *  0.902009 *  0.185146 *   4.00000    1.000000    
     27 Si    c    0.096445 *  0.702419 *  0.519446 *   4.00000    1.000000    
     28 Si    c    0.694675 *  0.599425 *  0.349991 *   4.00000    1.000000    
     29 Si    c    0.398253 *  0.093668 *  0.684400 *   4.00000    1.000000    
     30 Si    c    0.903379 *  0.303254 *  0.017500 *   4.00000    1.000000    
     31 Si    c    0.401019 *  0.306387 *  0.482053 *   4.00000    1.000000    
     32 Si    c    0.905061 *  0.598284 *  0.149347 *   4.00000    1.000000    
     33 Si    c    0.696521 *  0.093031 *  0.815169 *   4.00000    1.000000    
     34 Si    c    0.604803 *  0.700618 *  0.980247 *   4.00000    1.000000    
     35 Si    c    0.097074 *  0.397012 *  0.646844 *   4.00000    1.000000    
     36 Si    c    0.301727 *  0.902153 *  0.314322 *   4.00000    1.000000    
     37 Si    c    0.256267 *  0.344996 *  0.953861 *   4.00000    1.000000    
     38 Si    c    0.659000 *  0.909597 *  0.285822 *   4.00000    1.000000    
     39 Si    c    0.088637 *  0.746822 *  0.620646 *   4.00000    1.000000    
     40 Si    c    0.746066 *  0.659250 *  0.450494 *   4.00000    1.000000    
     41 Si    c    0.339196 *  0.086051 *  0.785047 *   4.00000    1.000000    
     42 Si    c    0.913374 *  0.248623 *  0.117563 *   4.00000    1.000000    
     43 Si    c    0.336858 *  0.249727 *  0.381965 *   4.00000    1.000000    
     44 Si    c    0.910467 *  0.655257 *  0.048750 *   4.00000    1.000000    
     45 Si    c    0.748502 *  0.086640 *  0.714519 *   4.00000    1.000000    
     46 Si    c    0.658587 *  0.745673 *  0.879167 *   4.00000    1.000000    
     47 Si    c    0.089025 *  0.346504 *  0.545685 *   4.00000    1.000000    
     48 Si    c    0.251690 *  0.909301 *  0.213685 *   4.00000    1.000000    
     49 Ge    c    0.973576 *  0.121453 *  0.967327 *   4.00000    1.000000    
     50 Si    c    0.877092 *  0.847380 *  0.300101 *   4.00000    1.000000    
     51 Si    c    0.148449 *  0.024252 *  0.635147 *   4.00000    1.000000    
     52 Si    c    0.025188 *  0.876592 *  0.466147 *   4.00000    1.000000    
     53 Si    c    0.121908 *  0.149748 *  0.800234 *   4.00000    1.000000    
     54 Si    c    0.849476 *  0.968346 *  0.134102 *   4.00000    1.000000    
     55 Si    c    0.120669 *  0.969104 *  0.365239 *   4.00000    1.000000    
     56 Si    c    0.850503 *  0.874113 *  0.033248 *   4.00000    1.000000    
     57 Si    c    0.029558 *  0.150775 *  0.699136 *   4.00000    1.000000    
     58 Si    c    0.876666 *  0.023002 *  0.864234 *   4.00000    1.000000    
     59 Ge    c    0.149443 *  0.123854 *  0.532270 *   4.00000    1.000000    
     60 Si    c    0.971354 *  0.846839 *  0.199234 *   4.00000    1.000000    
     61 O3    c    0.938096 *  0.995068 *  0.002757 *   1.33043    1.000000    
     62 O2    c    0.999268 *  0.927736 *  0.332428 *   0.87073    1.000000    
     63 O2    c    0.070331 *  0.067595 *  0.668143 *   0.87073    1.000000    
     64 O3    c    0.059680 *  0.998414 *  0.496280 *   1.33043    1.000000    
     65 O2    c    0.997206 *  0.065734 *  0.830804 *   0.87073    1.000000    
     66 O2    c    0.929562 *  0.926848 *  0.166788 *   0.87073    1.000000    
     67 O2    c    0.337880 *  0.576742 *  0.332597 *   0.87073    1.000000    
     68 O2    c    0.421936 *  0.759432 *  0.666443 *   0.87073    1.000000    
     69 O2    c    0.240406 *  0.661875 *  0.999900 *   0.87073    1.000000    
     70 O2    c    0.657835 *  0.417157 *  0.832954 *   0.87073    1.000000    
     71 O2    c    0.581050 *  0.236577 *  0.166923 *   0.87073    1.000000    
     72 O2    c    0.762584 *  0.344580 *  0.499172 *   0.87073    1.000000    
     73 O2    c    0.578766 *  0.340934 *  0.000651 *   0.87073    1.000000    
     74 O2    c    0.761080 *  0.418258 *  0.667142 *   0.87073    1.000000    
     75 O2    c    0.657099 *  0.237052 *  0.333137 *   0.87073    1.000000    
     76 O2    c    0.421514 *  0.663956 *  0.499097 *   0.87073    1.000000    
     77 O2    c    0.239962 *  0.576770 *  0.166315 *   0.87073    1.000000    
     78 O2    c    0.338523 *  0.758561 *  0.832762 *   0.87073    1.000000    
     79 O3    c    0.136415 *  0.221295 *  0.975650 *   1.33043    1.000000    
     80 O2    c    0.785819 *  0.910326 *  0.305881 *   0.87073    1.000000    
     81 O2    c    0.087960 *  0.870940 *  0.642255 *   0.87073    1.000000    
     82 O2    c    0.871339 *  0.783966 *  0.470805 *   0.87073    1.000000    
     83 O2    c    0.212813 *  0.086207 *  0.805074 *   0.87073    1.000000    
     84 O2    c    0.914310 *  0.122931 *  0.137647 *   0.87073    1.000000    
     85 O2    c    0.210600 *  0.123695 *  0.361819 *   0.87073    1.000000    
     86 O2    c    0.909643 *  0.779783 *  0.028427 *   0.87073    1.000000    
     87 O2    c    0.875067 *  0.087054 *  0.694400 *   0.87073    1.000000    
     88 O2    c    0.783561 *  0.869514 *  0.857567 *   0.87073    1.000000    
     89 O3    c    0.084987 *  0.222404 *  0.524094 *   1.33043    1.000000    
     90 O2    c    0.125607 *  0.909895 *  0.193564 *   0.87073    1.000000    
     91 O2    c    0.930896 *  0.860747 *  0.249638 *   0.87073    1.000000    
     92 O3    c    0.126435 *  0.057896 *  0.585234 *   1.33043    1.000000    
     93 O3    c    0.933529 *  0.057461 *  0.913967 *   1.33043    1.000000    
     94 O2    c    0.073353 *  0.144760 *  0.749617 *   0.87073    1.000000    
     95 O2    c    0.858230 *  0.923254 *  0.084138 *   0.87073    1.000000    
     96 O2    c    0.066809 *  0.924052 *  0.415158 *   0.87073    1.000000    
     97 O3    c    0.896692 *  0.207359 *  0.977997 *   1.33043    1.000000    
     98 O2    c    0.793656 *  0.695640 *  0.311667 *   0.87073    1.000000    
     99 O2    c    0.301709 *  0.095303 *  0.645806 *   0.87073    1.000000    
    100 O2    c    0.099442 *  0.801196 *  0.481324 *   0.87073    1.000000    
    101 O2    c    0.201736 *  0.299209 *  0.814673 *   0.87073    1.000000    
    102 O2    c    0.698535 *  0.900683 *  0.146840 *   0.87073    1.000000    
    103 O2    c    0.203717 *  0.901143 *  0.352604 *   0.87073    1.000000    
    104 O2    c    0.700431 *  0.799565 *  0.018456 *   0.87073    1.000000    
    105 O2    c    0.098967 *  0.300375 *  0.684921 *   0.87073    1.000000    
    106 O2    c    0.794387 *  0.094032 *  0.853753 *   0.87073    1.000000    
    107 O3    c    0.312231 *  0.211221 *  0.521702 *   1.33043    1.000000    
    108 O2    c    0.903071 *  0.695056 *  0.187653 *   0.87073    1.000000    
    109 O2    c    0.322180 *  0.643336 *  0.249558 *   0.87073    1.000000    
    110 O2    c    0.356638 *  0.679456 *  0.583036 *   0.87073    1.000000    
    111 O2    c    0.322896 *  0.678601 *  0.916249 *   0.87073    1.000000    
    112 O2    c    0.676851 *  0.352213 *  0.750008 *   0.87073    1.000000    
    113 O2    c    0.643380 *  0.319679 *  0.084266 *   0.87073    1.000000    
    114 O2    c    0.678459 *  0.323420 *  0.415629 *   0.87073    1.000000    
    115 O2    c    0.379682 *  0.335148 *  0.970791 *   0.87073    1.000000    
    116 O2    c    0.669322 *  0.042131 *  0.304196 *   0.87073    1.000000    
    117 O2    c    0.956049 *  0.624052 *  0.638485 *   0.87073    1.000000    
    118 O2    c    0.624663 *  0.671093 *  0.469036 *   0.87073    1.000000    
    119 O2    c    0.328662 *  0.953609 *  0.803454 *   0.87073    1.000000    
    120 O2    c    0.045629 *  0.370716 *  0.136364 *   0.87073    1.000000    
    121 O2    c    0.326658 *  0.371517 *  0.362969 *   0.87073    1.000000    
    122 O2    c    0.043701 *  0.667445 *  0.030016 *   0.87073    1.000000    
    123 O2    c    0.626670 *  0.954232 *  0.695979 *   0.87073    1.000000    
    124 O2    c    0.668292 *  0.622691 *  0.861487 *   0.87073    1.000000    
    125 O2    c    0.955638 *  0.336619 *  0.528833 *   0.87073    1.000000    
    126 O2    c    0.374033 *  0.041961 *  0.195567 *   0.87073    1.000000    
    127 O2    c    0.768054 *  0.301561 *  0.011401 *   0.87073    1.000000    
    128 O2    c    0.692209 *  0.464207 *  0.342785 *   0.87073    1.000000    
    129 O2    c    0.532823 *  0.227144 *  0.677082 *   0.87073    1.000000    
    130 O2    c    0.230649 *  0.702518 *  0.511353 *   0.87073    1.000000    
    131 O2    c    0.301492 *  0.530259 *  0.844386 *   0.87073    1.000000    
    132 O2    c    0.467581 *  0.768601 *  0.177261 *   0.87073    1.000000    
    133 O2    c    0.302352 *  0.768694 *  0.322082 *   0.87073    1.000000    
    134 O2    c    0.470776 *  0.701027 *  0.988222 *   0.87073    1.000000    
    135 O2    c    0.230436 *  0.531285 *  0.655063 *   0.87073    1.000000    
    136 O2    c    0.695361 *  0.226399 *  0.822750 *   0.87073    1.000000    
    137 O2    c    0.535164 *  0.306028 *  0.488326 *   0.87073    1.000000    
    138 O2    c    0.772531 *  0.463023 *  0.156738 *   0.87073    1.000000    
    139 O2    c    0.783026 *  0.531231 *  0.029588 *   0.87073    1.000000    
    140 O2    c    0.461972 *  0.247112 *  0.362554 *   0.87073    1.000000    
    141 O2    c    0.750244 *  0.213142 *  0.694933 *   0.87073    1.000000    
    142 O2    c    0.216335 *  0.471429 *  0.526491 *   0.87073    1.000000    
    143 O2    c    0.532906 *  0.747012 *  0.860056 *   0.87073    1.000000    
    144 O2    c    0.250325 *  0.782839 *  0.194092 *   0.87073    1.000000    
    145 O2    c    0.533791 *  0.782948 *  0.305204 *   0.87073    1.000000    
    146 O2    c    0.254039 *  0.470206 *  0.972813 *   0.87073    1.000000    
    147 O2    c    0.215751 *  0.748035 *  0.639571 *   0.87073    1.000000    
    148 O2    c    0.463906 *  0.212403 *  0.804811 *   0.87073    1.000000    
    149 O2    c    0.750045 *  0.535954 *  0.470098 *   0.87073    1.000000    
    150 O2    c    0.785743 *  0.245730 *  0.137258 *   0.87073    1.000000    
    151 O2    c    0.229810 *  0.323999 *  0.899549 *   0.87073    1.000000    
    152 O2    c    0.676678 *  0.907122 *  0.231535 *   0.87073    1.000000    
    153 O2    c    0.092144 *  0.770776 *  0.566413 *   0.87073    1.000000    
    154 O2    c    0.764679 *  0.675213 *  0.396139 *   0.87073    1.000000    
    155 O2    c    0.322547 *  0.088286 *  0.730685 *   0.87073    1.000000    
    156 O2    c    0.912629 *  0.230546 *  0.062946 *   0.87073    1.000000    
    157 O2    c    0.319524 *  0.232709 *  0.436596 *   0.87073    1.000000    
    158 O2    c    0.909429 *  0.672740 *  0.103092 *   0.87073    1.000000    
    159 O2    c    0.767281 *  0.088385 *  0.768881 *   0.87073    1.000000    
    160 O2    c    0.678350 *  0.769403 *  0.933447 *   0.87073    1.000000    
    161 O2    c    0.095027 *  0.325180 *  0.599956 *   0.87073    1.000000    
    162 O2    c    0.231565 *  0.906888 *  0.267967 *   0.87073    1.000000    
    163 O2    c    0.593609 *  0.562834 *  0.989629 *   0.87073    1.000000    
    164 O2    c    0.440567 *  0.027504 *  0.323636 *   0.87073    1.000000    
    165 O2    c    0.970175 *  0.408865 *  0.655784 *   0.87073    1.000000    
    166 O2    c    0.412978 *  0.445086 *  0.490618 *   0.87073    1.000000    
    167 O2    c    0.556785 *  0.968160 *  0.823920 *   0.87073    1.000000    
    168 O2    c    0.030529 *  0.583732 *  0.157540 *   0.87073    1.000000    
    169 O2    c    0.554548 *  0.584401 *  0.341587 *   0.87073    1.000000    
    170 O2    c    0.029859 *  0.441968 *  0.008559 *   0.87073    1.000000    
    171 O2    c    0.413275 *  0.968960 *  0.675486 *   0.87073    1.000000    
    172 O2    c    0.438945 *  0.407528 *  0.844023 *   0.87073    1.000000    
    173 O2    c    0.969866 *  0.564630 *  0.510232 *   0.87073    1.000000    
    174 O2    c    0.588148 *  0.027305 *  0.176058 *   0.87073    1.000000    
    175 O2    c    0.582854 *  0.164219 *  0.249954 *   0.87073    1.000000    
    176 O2    c    0.831898 *  0.419724 *  0.583243 *   0.87073    1.000000    
    177 O2    c    0.587358 *  0.418190 *  0.916712 *   0.87073    1.000000    
    178 O2    c    0.416642 *  0.831960 *  0.749628 *   0.87073    1.000000    
    179 O2    c    0.167577 *  0.580493 *  0.082976 *   0.87073    1.000000    
    180 O2    c    0.413997 *  0.582365 *  0.415958 *   0.87073    1.000000    
    181 F     c    0.452165 *  0.903230 *  0.249783 *   0.56000    1.000000    
    182 F     c    0.096117 *  0.549470 *  0.583182 *   0.56000    1.000000    
    183 F     c    0.453347 *  0.548536 *  0.916535 *   0.56000    1.000000    
    184 F     c    0.547575 *  0.093515 *  0.749822 *   0.56000    1.000000    
    185 F     c    0.905353 *  0.447650 *  0.083252 *   0.56000    1.000000    
    186 F     c    0.544347 *  0.450684 *  0.416252 *   0.56000    1.000000    
    187 O3    s    0.931656 *  0.992907 *  0.002988 *  -3.33043    1.000000    
    188 O2    s    0.999128 *  0.923368 *  0.332464 *  -2.87073    1.000000    
    189 O2    s    0.074398 *  0.072215 *  0.667998 *  -2.87073    1.000000    
    190 O3    s    0.063729 *  0.996022 *  0.496126 *  -3.33043    1.000000    
    191 O2    s    0.997952 *  0.070505 *  0.831042 *  -2.87073    1.000000    
    192 O2    s    0.925319 *  0.922526 *  0.166780 *  -2.87073    1.000000    
    193 O2    s    0.349743 *  0.584361 *  0.332600 *  -2.87073    1.000000    
    194 O2    s    0.414268 *  0.763677 *  0.666392 *  -2.87073    1.000000    
    195 O2    s    0.236371 *  0.650010 *  0.999811 *  -2.87073    1.000000    
    196 O2    s    0.646143 *  0.409659 *  0.832949 *  -2.87073    1.000000    
    197 O2    s    0.588488 *  0.232211 *  0.166846 *  -2.87073    1.000000    
    198 O2    s    0.766543 *  0.356391 *  0.499127 *  -2.87073    1.000000    
    199 O2    s    0.586900 *  0.352745 *  0.000728 *  -2.87073    1.000000    
    200 O2    s    0.765241 *  0.410747 *  0.667111 *  -2.87073    1.000000    
    201 O2    s    0.645383 *  0.232805 *  0.333169 *  -2.87073    1.000000    
    202 O2    s    0.413815 *  0.652063 *  0.499213 *  -2.87073    1.000000    
    203 O2    s    0.235660 *  0.584277 *  0.166356 *  -2.87073    1.000000    
    204 O2    s    0.350384 *  0.762826 *  0.832847 *  -2.87073    1.000000    
    205 O3    s    0.135060 *  0.225550 *  0.972773 *  -3.33043    1.000000    
    206 O2    s    0.782380 *  0.903568 *  0.303223 *  -2.87073    1.000000    
    207 O2    s    0.094377 *  0.874125 *  0.639295 *  -2.87073    1.000000    
    208 O2    s    0.874450 *  0.780564 *  0.468160 *  -2.87073    1.000000    
    209 O2    s    0.216270 *  0.092939 *  0.802508 *  -2.87073    1.000000    
    210 O2    s    0.907368 *  0.119533 *  0.135227 *  -2.87073    1.000000    
    211 O2    s    0.214108 *  0.120355 *  0.364235 *  -2.87073    1.000000    
    212 O2    s    0.903366 *  0.776616 *  0.031088 *  -2.87073    1.000000    
    213 O2    s    0.878354 *  0.093787 *  0.696965 *  -2.87073    1.000000    
    214 O2    s    0.780333 *  0.872739 *  0.860480 *  -2.87073    1.000000    
    215 O3    s    0.090740 *  0.226779 *  0.526938 *  -3.33043    1.000000    
    216 O2    s    0.122280 *  0.903135 *  0.196219 *  -2.87073    1.000000    
    217 O2    s    0.929385 *  0.857657 *  0.249644 *  -2.87073    1.000000    
    218 O3    s    0.130836 *  0.060059 *  0.585983 *  -3.33043    1.000000    
    219 O3    s    0.930887 *  0.059349 *  0.913257 *  -3.33043    1.000000    
    220 O2    s    0.073889 *  0.146011 *  0.749630 *  -2.87073    1.000000    
    221 O2    s    0.856345 *  0.922911 *  0.084169 *  -2.87073    1.000000    
    222 O2    s    0.068336 *  0.923899 *  0.415140 *  -2.87073    1.000000    
    223 O3    s    0.903691 *  0.209444 *  0.980899 *  -3.33043    1.000000    
    224 O2    s    0.792348 *  0.701813 *  0.314357 *  -2.87073    1.000000    
    225 O2    s    0.295590 *  0.087784 *  0.648588 *  -2.87073    1.000000    
    226 O2    s    0.091290 *  0.798955 *  0.483683 *  -2.87073    1.000000    
    227 O2    s    0.203397 *  0.293222 *  0.817083 *  -2.87073    1.000000    
    228 O2    s    0.704689 *  0.908079 *  0.149449 *  -2.87073    1.000000    
    229 O2    s    0.204969 *  0.908542 *  0.349986 *  -2.87073    1.000000    
    230 O2    s    0.706395 *  0.797229 *  0.016056 *  -2.87073    1.000000    
    231 O2    s    0.091341 *  0.294374 *  0.682496 *  -2.87073    1.000000    
    232 O2    s    0.793017 *  0.086577 *  0.850951 *  -2.87073    1.000000    
    233 O3    s    0.307300 *  0.213145 *  0.518766 *  -3.33043    1.000000    
    234 O2    s    0.910468 *  0.701174 *  0.184968 *  -2.87073    1.000000    
    235 O2    s    0.327964 *  0.654892 *  0.249555 *  -2.87073    1.000000    
    236 O2    s    0.344955 *  0.673652 *  0.583017 *  -2.87073    1.000000    
    237 O2    s    0.328729 *  0.672762 *  0.916277 *  -2.87073    1.000000    
    238 O2    s    0.670983 *  0.340489 *  0.749993 *  -2.87073    1.000000    
    239 O2    s    0.655250 *  0.325481 *  0.084132 *  -2.87073    1.000000    
    240 O2    s    0.672286 *  0.329098 *  0.415674 *  -2.87073    1.000000    
    241 O2    s    0.383159 *  0.345329 *  0.968623 *  -2.87073    1.000000    
    242 O2    s    0.659296 *  0.035437 *  0.301930 *  -2.87073    1.000000    
    243 O2    s    0.962746 *  0.620853 *  0.636176 *  -2.87073    1.000000    
    244 O2    s    0.621170 *  0.660912 *  0.466852 *  -2.87073    1.000000    
    245 O2    s    0.338714 *  0.960309 *  0.801226 *  -2.87073    1.000000    
    246 O2    s    0.038949 *  0.374063 *  0.134137 *  -2.87073    1.000000    
    247 O2    s    0.336669 *  0.374898 *  0.365195 *  -2.87073    1.000000    
    248 O2    s    0.037126 *  0.657301 *  0.032215 *  -2.87073    1.000000    
    249 O2    s    0.623308 *  0.960936 *  0.698216 *  -2.87073    1.000000    
    250 O2    s    0.658384 *  0.619514 *  0.863780 *  -2.87073    1.000000    
    251 O2    s    0.962402 *  0.346810 *  0.531011 *  -2.87073    1.000000    
    252 O2    s    0.377332 *  0.035200 *  0.197829 *  -2.87073    1.000000    
    253 O2    s    0.775166 *  0.309542 *  0.014460 *  -2.87073    1.000000    
    254 O2    s    0.684895 *  0.463819 *  0.345925 *  -2.87073    1.000000    
    255 O2    s    0.533391 *  0.220099 *  0.680193 *  -2.87073    1.000000    
    256 O2    s    0.223694 *  0.694643 *  0.514415 *  -2.87073    1.000000    
    257 O2    s    0.309163 *  0.531100 *  0.847497 *  -2.87073    1.000000    
    258 O2    s    0.466833 *  0.775552 *  0.180373 *  -2.87073    1.000000    
    259 O2    s    0.310049 *  0.775681 *  0.318960 *  -2.87073    1.000000    
    260 O2    s    0.469866 *  0.693148 *  0.985145 *  -2.87073    1.000000    
    261 O2    s    0.223540 *  0.532103 *  0.651962 *  -2.87073    1.000000    
    262 O2    s    0.687760 *  0.219371 *  0.819618 *  -2.87073    1.000000    
    263 O2    s    0.535920 *  0.313937 *  0.485237 *  -2.87073    1.000000    
    264 O2    s    0.779435 *  0.462606 *  0.153600 *  -2.87073    1.000000    
    265 O2    s    0.788303 *  0.528463 *  0.032115 *  -2.87073    1.000000    
    266 O2    s    0.464853 *  0.255292 *  0.364957 *  -2.87073    1.000000    
    267 O2    s    0.742189 *  0.207933 *  0.697522 *  -2.87073    1.000000    
    268 O2    s    0.211303 *  0.474343 *  0.529155 *  -2.87073    1.000000    
    269 O2    s    0.530197 *  0.739152 *  0.862700 *  -2.87073    1.000000    
    270 O2    s    0.258195 *  0.787955 *  0.196701 *  -2.87073    1.000000    
    271 O2    s    0.531071 *  0.788115 *  0.302600 *  -2.87073    1.000000    
    272 O2    s    0.261992 *  0.473074 *  0.970169 *  -2.87073    1.000000    
    273 O2    s    0.210548 *  0.740177 *  0.636920 *  -2.87073    1.000000    
    274 O2    s    0.466750 *  0.207204 *  0.802217 *  -2.87073    1.000000    
    275 O2    s    0.741829 *  0.532954 *  0.467522 *  -2.87073    1.000000    
    276 O2    s    0.791009 *  0.253921 *  0.134821 *  -2.87073    1.000000    
    277 O2    s    0.239756 *  0.333600 *  0.900241 *  -2.87073    1.000000    
    278 O2    s    0.666924 *  0.906851 *  0.232437 *  -2.87073    1.000000    
    279 O2    s    0.092249 *  0.761198 *  0.567184 *  -2.87073    1.000000    
    280 O2    s    0.755297 *  0.665521 *  0.397048 *  -2.87073    1.000000    
    281 O2    s    0.332245 *  0.088600 *  0.731597 *  -2.87073    1.000000    
    282 O2    s    0.911844 *  0.239689 *  0.064020 *  -2.87073    1.000000    
    283 O2    s    0.329398 *  0.241833 *  0.435515 *  -2.87073    1.000000    
    284 O2    s    0.909090 *  0.663009 *  0.102215 *  -2.87073    1.000000    
    285 O2    s    0.757867 *  0.088674 *  0.767967 *  -2.87073    1.000000    
    286 O2    s    0.668671 *  0.759829 *  0.932642 *  -2.87073    1.000000    
    287 O2    s    0.094687 *  0.334803 *  0.599295 *  -2.87073    1.000000    
    288 O2    s    0.241077 *  0.906650 *  0.267059 *  -2.87073    1.000000    
    289 O2    s    0.588523 *  0.562754 *  0.986297 *  -2.87073    1.000000    
    290 O2    s    0.440472 *  0.022623 *  0.320227 *  -2.87073    1.000000    
    291 O2    s    0.975171 *  0.413981 *  0.652568 *  -2.87073    1.000000    
    292 O2    s    0.417625 *  0.444884 *  0.487220 *  -2.87073    1.000000    
    293 O2    s    0.557089 *  0.973002 *  0.820540 *  -2.87073    1.000000    
    294 O2    s    0.025537 *  0.579201 *  0.154182 *  -2.87073    1.000000    
    295 O2    s    0.555035 *  0.579940 *  0.344966 *  -2.87073    1.000000    
    296 O2    s    0.025085 *  0.441799 *  0.011973 *  -2.87073    1.000000    
    297 O2    s    0.417772 *  0.973781 *  0.678878 *  -2.87073    1.000000    
    298 O2    s    0.439057 *  0.412669 *  0.847234 *  -2.87073    1.000000    
    299 O2    s    0.974921 *  0.564622 *  0.513549 *  -2.87073    1.000000    
    300 O2    s    0.583377 *  0.022371 *  0.179466 *  -2.87073    1.000000    
    301 O2    s    0.577333 *  0.153189 *  0.249963 *  -2.87073    1.000000    
    302 O2    s    0.843051 *  0.425014 *  0.583262 *  -2.87073    1.000000    
    303 O2    s    0.581472 *  0.423461 *  0.916691 *  -2.87073    1.000000    
    304 O2    s    0.422094 *  0.842855 *  0.749644 *  -2.87073    1.000000    
    305 O2    s    0.156629 *  0.575115 *  0.082982 *  -2.87073    1.000000    
    306 O2    s    0.419587 *  0.576980 *  0.415994 *  -2.87073    1.000000    
    307 F     s    0.452021 *  0.902969 *  0.249787 *  -1.56000    1.000000    
    308 F     s    0.096493 *  0.549614 *  0.583175 *  -1.56000    1.000000    
    309 F     s    0.453149 *  0.548719 *  0.916552 *  -1.56000    1.000000    
    310 F     s    0.547802 *  0.093948 *  0.749825 *  -1.56000    1.000000    
    311 F     s    0.905007 *  0.447266 *  0.083226 *  -1.56000    1.000000    
    312 F     s    0.544384 *  0.450374 *  0.416295 *  -1.56000    1.000000    
--------------------------------------------------------------------------------



********************************************************************************
*  General input information                                                   *
********************************************************************************

  Species output for all configurations : 

--------------------------------------------------------------------------------
  Species    Type    Atomic    Atomic    Charge       Radii (Angs)     Library
                     Number     Mass       (e)     Cova   Ionic  VDW   Symbol
--------------------------------------------------------------------------------
    Si       Core       14      28.09   4.000000   1.200  0.000  2.100          
    O1       Core        8      16.00   1.733957   0.730  0.000  1.360          
    O1       Shell       8       0.00  -3.733957   0.730  0.000  1.360          
    O2       Core        8      16.00   0.870733   0.730  0.000  1.360          
    O2       Shell       8       0.00  -2.870733   0.730  0.000  1.360          
    O3       Core        8      16.00   1.330431   0.730  0.000  1.360          
    O3       Shell       8       0.00  -3.330431   0.730  0.000  1.360          
    F        Core        9      19.00   0.560000   0.710  0.000  1.300          
    F        Shell       9       0.00  -1.560000   0.710  0.000  1.300          
    Ge       Core       32      72.61   4.000000   1.170  0.000  1.750          
--------------------------------------------------------------------------------


  Lattice summation method               =    Ewald          (3-D)
                                         =    Parry          (2-D)
                                         =    Saunders et al (1-D)
  Accuracy factor for lattice sums       =   12.000


  Time limit = Infinity

  Maximum range for interatomic potentials =        16.000000 Angstroms

  Taper potentials to zero over   1.0000 Angstroms using polynomial

  General interatomic potentials :

--------------------------------------------------------------------------------
Atom  Types   Potential         A         B         C         D     Cutoffs(Ang)
  1     2                                                            Min    Max 
--------------------------------------------------------------------------------
Si   c O1   s Buckingham    0.132E+04 0.318      10.1      0.00     0.000 16.000
Si   c O2   s Buckingham    0.132E+04 0.318      10.1      0.00     0.000 16.000
Si   c O3   s Buckingham    0.132E+04 0.318      10.1      0.00     0.000 16.000
Ge   c O1   s Buckingham    0.150E+04 0.326      16.8      0.00     0.000 16.000
Ge   c O2   s Buckingham    0.150E+04 0.326      16.8      0.00     0.000 16.000
Ge   c O3   s Buckingham    0.150E+04 0.326      16.8      0.00     0.000 16.000
O1   s O1   s Buckingham    0.228E+05 0.149      10.9      0.00     0.000 16.000
O1   s O2   s Buckingham    0.228E+05 0.149      10.9      0.00     0.000 16.000
O1   s O3   s Buckingham    0.228E+05 0.149      10.9      0.00     0.000 16.000
O2   s O2   s Buckingham    0.228E+05 0.149      10.9      0.00     0.000 16.000
O2   s O3   s Buckingham    0.228E+05 0.149      10.9      0.00     0.000 16.000
O3   s O3   s Buckingham    0.228E+05 0.149      10.9      0.00     0.000 16.000
Si   c F    s Buckingham     977.     0.282      0.00      0.00     0.000 16.000
Ge   c F    s Buckingham     681.     0.320      0.00      0.00     0.000 16.000
F    s F    s Buckingham     540.     0.262      0.00      0.00     0.000 16.000
O1   s F    s Buckingham    0.168E+04 0.268      0.00      0.00     0.000 16.000
O2   s F    s Buckingham    0.168E+04 0.268      0.00      0.00     0.000 16.000
O3   s F    s Buckingham    0.168E+04 0.268      0.00      0.00     0.000 16.000
O2   c O2   s Spring (c-s)   76.0      0.00      0.00      0.00     0.000  0.800
O3   c O3   s Spring (c-s)   128.      0.00      0.00      0.00     0.000  0.800
O1   c O1   s Spring (c-s)   180.      0.00      0.00      0.00     0.000  0.800
F    c F    s Spring (c-s)   33.5      0.00      0.00      0.00     0.000  0.800
--------------------------------------------------------------------------------

  General Three-body potentials :

  Harmonic form:

--------------------------------------------------------------------------------
Atom    Atom    Atom           Force Constants            Theta     Cutoffs  
  1       2       3     (eVrad**-2/eVrad**-3/eVrad**-4)   (deg)  1-2  1-3  2-3
--------------------------------------------------------------------------------
Si    c O1    s O1    s  1.261        0.0000    0.0000   109.470 0.00 0.00 0.00
                                                                 1.90 1.90 3.50
Si    c O1    s O2    s  1.261        0.0000    0.0000   109.470 0.00 0.00 0.00
                                                                 1.90 1.90 3.50
Si    c O2    s O2    s  1.261        0.0000    0.0000   109.470 0.00 0.00 0.00
                                                                 1.90 1.90 3.50
--------------------------------------------------------------------------------

********************************************************************************
*  Output for configuration   1                                                *
********************************************************************************


  Components of energy : 

--------------------------------------------------------------------------------
  Interatomic potentials     =        2060.36685711 eV
  Three-body potentials      =           0.45605844 eV
  Monopole - monopole (real) =       -6638.53713609 eV
  Monopole - monopole (recip)=       -3147.95498069 eV
  Monopole - monopole (total)=       -9786.49211678 eV
  Neutralising energy        =          -6.45982997 eV
--------------------------------------------------------------------------------
  Total lattice energy       =       -7732.12903120 eV
--------------------------------------------------------------------------------
  Total lattice energy       =         -746032.2551 kJ/(mole unit cells)
--------------------------------------------------------------------------------


  Number of variables =      939

  Maximum number of calculations  =          5000
  Maximum Hessian update interval =            10
  Maximum step size               =   0.100000000
  Maximum parameter tolerance     =   0.000010000
  Maximum function  tolerance     =   0.000010000
  Maximum gradient  tolerance     =   0.001000000
  Maximum gradient  component     =   0.010000000

  Symmetry not applied to optimisation

  Cell parameters to be optimised using strains

  Newton-Raphson optimiser to be used

  BFGS hessian update to be used

  Dumpfile to be written after every cycle

  Start of bulk optimisation :

  Cycle:      0 Energy:     -7732.129031  Gnorm:      0.000134  CPU:    2.037
  ** Hessian calculated **
  Cycle:      1 Energy:     -7732.132592  Gnorm:      0.000104  CPU:    6.603
  Cycle:      2 Energy:     -7732.133981  Gnorm:      0.000131  CPU:   10.792
  Cycle:      3 Energy:     -7732.134328  Gnorm:      0.000093  CPU:   14.982
  Cycle:      4 Energy:     -7732.134414  Gnorm:      0.000053  CPU:   19.172
  Cycle:      5 Energy:     -7732.134429  Gnorm:      0.000038  CPU:   22.003
  Cycle:      6 Energy:     -7732.134437  Gnorm:      0.000027  CPU:   24.834


  **** Optimisation achieved ****


  Final energy =   -7732.13444008 eV
  Final Gnorm  =       0.00001908

  Components of energy : 

--------------------------------------------------------------------------------
  Interatomic potentials     =        2060.27280369 eV
  Three-body potentials      =           0.45368425 eV
  Monopole - monopole (real) =       -6638.86663175 eV
  Monopole - monopole (recip)=       -3147.53532729 eV
  Monopole - monopole (total)=       -9786.40195904 eV
  Neutralising energy        =          -6.45896898 eV
--------------------------------------------------------------------------------
  Total lattice energy       =       -7732.13444008 eV
--------------------------------------------------------------------------------
  Total lattice energy       =         -746032.7770 kJ/(mole unit cells)
--------------------------------------------------------------------------------

  Final fractional coordinates of atoms :

--------------------------------------------------------------------------------
   No.  Atomic        x           y          z          Radius
        Label       (Frac)      (Frac)     (Frac)       (Angs) 
--------------------------------------------------------------------------------
     1  Si    c     0.699600    0.375700    0.033890    0.000000
     2  Si    c     0.612996    0.317675    0.365683    0.000000
     3  Si    c     0.670278    0.289121    0.699523    0.000000
     4  Si    c     0.293452    0.621128    0.532528    0.000000
     5  Si    c     0.372995    0.669819    0.865880    0.000000
     6  Si    c     0.319428    0.696683    0.199359    0.000000
     7  Si    c     0.373098    0.696689    0.300320    0.000000
     8  Si    c     0.323466    0.621096    0.967154    0.000000
     9  Si    c     0.292671    0.669840    0.633805    0.000000
    10  Si    c     0.614679    0.289103    0.800175    0.000000
    11  Si    c     0.671948    0.375824    0.465804    0.000000
    12  Si    c     0.700502    0.317636    0.134013    0.000000
    13  Si    c     0.532626    0.417087    0.967493    0.000000
    14  Si    c     0.577265    0.107675    0.300753    0.000000
    15  Si    c     0.880203    0.462726    0.634278    0.000000
    16  Si    c     0.462780    0.579952    0.467036    0.000000
    17  Si    c     0.410587    0.879166    0.800713    0.000000
    18  Si    c     0.110691    0.523368    0.134154    0.000000
    19  Si    c     0.408523    0.523389    0.365524    0.000000
    20  Si    c     0.112936    0.579882    0.032641    0.000000
    21  Si    c     0.464434    0.879182    0.698972    0.000000
    22  Si    c     0.578337    0.462693    0.865422    0.000000
    23  Si    c     0.880284    0.417134    0.532204    0.000000
    24  Si    c     0.526251    0.107664    0.198947    0.000000
    25  Si    c     0.296187    0.391399    0.852844    0.000000
    26  Si    c     0.597461    0.898631    0.185283    0.000000
    27  Si    c     0.090645    0.697116    0.519481    0.000000
    28  Si    c     0.689195    0.595265    0.350029    0.000000
    29  Si    c     0.392474    0.087780    0.684440    0.000000
    30  Si    c     0.901841    0.301340    0.017540    0.000000
    31  Si    c     0.395339    0.301419    0.482151    0.000000
    32  Si    c     0.901889    0.595236    0.149656    0.000000
    33  Si    c     0.691144    0.087764    0.815249    0.000000
    34  Si    c     0.602253    0.697072    0.980213    0.000000
    35  Si    c     0.091056    0.391427    0.646847    0.000000
    36  Si    c     0.297018    0.898634    0.314406    0.000000
    37  Si    c     0.253793    0.341235    0.954019    0.000000
    38  Si    c     0.654278    0.906019    0.285980    0.000000
    39  Si    c     0.082551    0.741243    0.620689    0.000000
    40  Si    c     0.740471    0.654458    0.450573    0.000000
    41  Si    c     0.333896    0.080776    0.785112    0.000000
    42  Si    c     0.909916    0.245457    0.117666    0.000000
    43  Si    c     0.331393    0.245484    0.382024    0.000000
    44  Si    c     0.909729    0.654357    0.049109    0.000000
    45  Si    c     0.742732    0.080791    0.714577    0.000000
    46  Si    c     0.654513    0.741215    0.879008    0.000000
    47  Si    c     0.083259    0.341272    0.545671    0.000000
    48  Si    c     0.247580    0.906012    0.213709    0.000000
    49  Ge    c     0.970739    0.118652    0.967278    0.000000
    50  Si    c     0.872046    0.843387    0.300241    0.000000
    51  Si    c     0.142625    0.018712    0.635294    0.000000
    52  Si    c     0.019651    0.871626    0.466273    0.000000
    53  Si    c     0.117242    0.145343    0.800375    0.000000
    54  Si    c     0.845270    0.964930    0.134281    0.000000
    55  Si    c     0.115516    0.964949    0.365404    0.000000
    56  Si    c     0.847763    0.871565    0.033413    0.000000
    57  Si    c     0.023955    0.145369    0.699310    0.000000
    58  Si    c     0.871919    0.018680    0.864390    0.000000
    59  Ge    c     0.143763    0.118713    0.532413    0.000000
    60  Si    c     0.967179    0.843373    0.199443    0.000000
    61  O3    c     0.934854    0.992861    0.003060    0.000000
    62  O2    c     0.993889    0.923175    0.332711    0.000000
    63  O2    c     0.064960    0.062042    0.668521    0.000000
    64  O3    c     0.053887    0.992946    0.496616    0.000000
    65  O2    c     0.992890    0.061994    0.831153    0.000000
    66  O2    c     0.925125    0.923152    0.166970    0.000000
    67  O2    c     0.332850    0.573110    0.332879    0.000000
    68  O2    c     0.415791    0.753600    0.666652    0.000000
    69  O2    c     0.238716    0.658815    0.000341    0.000000
    70  O2    c     0.653123    0.412281    0.832700    0.000000
    71  O2    c     0.577229    0.233312    0.166662    0.000000
    72  O2    c     0.756925    0.339561    0.499083    0.000000
    73  O2    c     0.578365    0.339470    0.000614    0.000000
    74  O2    c     0.755012    0.412309    0.667003    0.000000
    75  O2    c     0.651933    0.233323    0.333041    0.000000
    76  O2    c     0.415910    0.658868    0.499334    0.000000
    77  O2    c     0.236100    0.573112    0.166795    0.000000
    78  O2    c     0.333646    0.753579    0.833029    0.000000
    79  O3    c     0.133675    0.217283    0.975610    0.000000
    80  O2    c     0.781061    0.906644    0.306013    0.000000
    81  O2    c     0.081775    0.865324    0.642245    0.000000
    82  O2    c     0.865796    0.779096    0.470815    0.000000
    83  O2    c     0.207654    0.081244    0.805121    0.000000
    84  O2    c     0.910247    0.119502    0.137777    0.000000
    85  O2    c     0.205116    0.119521    0.361911    0.000000
    86  O2    c     0.909035    0.778990    0.028867    0.000000
    87  O2    c     0.869442    0.081265    0.694566    0.000000
    88  O2    c     0.779374    0.865287    0.857451    0.000000
    89  O3    c     0.079421    0.217310    0.524084    0.000000
    90  O2    c     0.121422    0.906634    0.193675    0.000000
    91  O2    c     0.926486    0.857135    0.249841    0.000000
    92  O3    c     0.120723    0.053201    0.585481    0.000000
    93  O3    c     0.928340    0.053191    0.914200    0.000000
    94  O2    c     0.068087    0.140316    0.749841    0.000000
    95  O2    c     0.853786    0.919873    0.084309    0.000000
    96  O2    c     0.061941    0.919890    0.415374    0.000000
    97  O3    c     0.895210    0.205857    0.977943    0.000000
    98  O2    c     0.788156    0.691625    0.311709    0.000000
    99  O2    c     0.295858    0.089242    0.645852    0.000000
   100  O2    c     0.093684    0.795941    0.481353    0.000000
   101  O2    c     0.197569    0.294722    0.814793    0.000000
   102  O2    c     0.694381    0.897392    0.147016    0.000000
   103  O2    c     0.198862    0.897403    0.352671    0.000000
   104  O2    c     0.698034    0.795900    0.018342    0.000000
   105  O2    c     0.093001    0.294752    0.684897    0.000000
   106  O2    c     0.789215    0.089210    0.853837    0.000000
   107  O3    c     0.306497    0.205955    0.521751    0.000000
   108  O2    c     0.899308    0.691611    0.187976    0.000000
   109  O2    c     0.317951    0.640064    0.249839    0.000000
   110  O2    c     0.350586    0.674036    0.583196    0.000000
   111  O2    c     0.319262    0.674015    0.916487    0.000000
   112  O2    c     0.671120    0.346393    0.749850    0.000000
   113  O2    c     0.641890    0.318814    0.084117    0.000000
   114  O2    c     0.672789    0.318908    0.415582    0.000000
   115  O2    c     0.377250    0.331352    0.970920    0.000000
   116  O2    c     0.664581    0.038599    0.304233    0.000000
   117  O2    c     0.949967    0.618411    0.638494    0.000000
   118  O2    c     0.619072    0.666149    0.469213    0.000000
   119  O2    c     0.323284    0.948360    0.803613    0.000000
   120  O2    c     0.041992    0.367292    0.136619    0.000000
   121  O2    c     0.321152    0.367312    0.363066    0.000000
   122  O2    c     0.042819    0.666057    0.030464    0.000000
   123  O2    c     0.620929    0.948375    0.696073    0.000000
   124  O2    c     0.664262    0.618377    0.861206    0.000000
   125  O2    c     0.949917    0.331389    0.528771    0.000000
   126  O2    c     0.369859    0.038595    0.195462    0.000000
   127  O2    c     0.767328    0.300996    0.011349    0.000000
   128  O2    c     0.686668    0.460083    0.342789    0.000000
   129  O2    c     0.527008    0.221124    0.677008    0.000000
   130  O2    c     0.224913    0.697327    0.511450    0.000000
   131  O2    c     0.297240    0.525649    0.844544    0.000000
   132  O2    c     0.463389    0.765272    0.177430    0.000000
   133  O2    c     0.297729    0.765274    0.322255    0.000000
   134  O2    c     0.468197    0.697290    0.988240    0.000000
   135  O2    c     0.224262    0.525675    0.655143    0.000000
   136  O2    c     0.689952    0.221105    0.822689    0.000000
   137  O2    c     0.529521    0.301109    0.488346    0.000000
   138  O2    c     0.769240    0.460053    0.156901    0.000000
   139  O2    c     0.782436    0.530947    0.029568    0.000000
   140  O2    c     0.456473    0.242952    0.362528    0.000000
   141  O2    c     0.744358    0.207142    0.694883    0.000000
   142  O2    c     0.210565    0.466289    0.526546    0.000000
   143  O2    c     0.528642    0.742366    0.860018    0.000000
   144  O2    c     0.246209    0.779515    0.194191    0.000000
   145  O2    c     0.529149    0.779517    0.305492    0.000000
   146  O2    c     0.251509    0.466259    0.973137    0.000000
   147  O2    c     0.209576    0.742392    0.639673    0.000000
   148  O2    c     0.458620    0.207124    0.804811    0.000000
   149  O2    c     0.744368    0.531066    0.470125    0.000000
   150  O2    c     0.782306    0.242918    0.137169    0.000000
   151  O2    c     0.226461    0.319779    0.899745    0.000000
   152  O2    c     0.672138    0.903531    0.231703    0.000000
   153  O2    c     0.086147    0.765295    0.566452    0.000000
   154  O2    c     0.759051    0.670687    0.396217    0.000000
   155  O2    c     0.316994    0.082721    0.730752    0.000000
   156  O2    c     0.909952    0.228090    0.063038    0.000000
   157  O2    c     0.313989    0.228144    0.436652    0.000000
   158  O2    c     0.907420    0.670626    0.103466    0.000000
   159  O2    c     0.761576    0.082723    0.768937    0.000000
   160  O2    c     0.674951    0.765261    0.933245    0.000000
   161  O2    c     0.089150    0.319809    0.599944    0.000000
   162  O2    c     0.227233    0.903526    0.267986    0.000000
   163  O2    c     0.591009    0.559368    0.989516    0.000000
   164  O2    c     0.435805    0.023965    0.323621    0.000000
   165  O2    c     0.964103    0.403173    0.655755    0.000000
   166  O2    c     0.407385    0.440083    0.490800    0.000000
   167  O2    c     0.551457    0.963023    0.824094    0.000000
   168  O2    c     0.026984    0.580193    0.157978    0.000000
   169  O2    c     0.549054    0.580209    0.341702    0.000000
   170  O2    c     0.028451    0.440004    0.008880    0.000000
   171  O2    c     0.407425    0.963044    0.675592    0.000000
   172  O2    c     0.434887    0.403139    0.843941    0.000000
   173  O2    c     0.964185    0.559412    0.510181    0.000000
   174  O2    c     0.584002    0.023961    0.176073    0.000000
   175  O2    c     0.578289    0.160729    0.249850    0.000000
   176  O2    c     0.826056    0.414350    0.583159    0.000000
   177  O2    c     0.584092    0.414312    0.916541    0.000000
   178  O2    c     0.411139    0.826433    0.749841    0.000000
   179  O2    c     0.165051    0.577655    0.083485    0.000000
   180  O2    c     0.408443    0.577702    0.416189    0.000000
   181  F     c     0.447819    0.899799    0.249845    0.000000
   182  F     c     0.090003    0.544003    0.583197    0.000000
   183  F     c     0.449810    0.543980    0.916496    0.000000
   184  F     c     0.541698    0.087544    0.749846    0.000000
   185  F     c     0.903277    0.446041    0.083370    0.000000
   186  F     c     0.538628    0.446117    0.416319    0.000000
   187  O3    s     0.928462    0.990567    0.003254    0.000000
   188  O2    s     0.993818    0.918915    0.332718    0.000000
   189  O2    s     0.068946    0.066679    0.668328    0.000000
   190  O3    s     0.057980    0.990647    0.496424    0.000000
   191  O2    s     0.993547    0.066636    0.831348    0.000000
   192  O2    s     0.920935    0.918893    0.166964    0.000000
   193  O2    s     0.344723    0.580682    0.332873    0.000000
   194  O2    s     0.408178    0.757882    0.666590    0.000000
   195  O2    s     0.234545    0.646923    0.000239    0.000000
   196  O2    s     0.641442    0.404803    0.832720    0.000000
   197  O2    s     0.584665    0.229021    0.166622    0.000000
   198  O2    s     0.760877    0.351368    0.499049    0.000000
   199  O2    s     0.586228    0.351277    0.000649    0.000000
   200  O2    s     0.759215    0.404831    0.666982    0.000000
   201  O2    s     0.640209    0.229036    0.333080    0.000000
   202  O2    s     0.408192    0.646974    0.499437    0.000000
   203  O2    s     0.231798    0.580681    0.166802    0.000000
   204  O2    s     0.345539    0.757860    0.833091    0.000000
   205  O3    s     0.132313    0.221638    0.972755    0.000000
   206  O2    s     0.777599    0.899867    0.303359    0.000000
   207  O2    s     0.088238    0.868521    0.639307    0.000000
   208  O2    s     0.868902    0.775690    0.468189    0.000000
   209  O2    s     0.211146    0.088006    0.802568    0.000000
   210  O2    s     0.903357    0.116152    0.135359    0.000000
   211  O2    s     0.208655    0.116172    0.364329    0.000000
   212  O2    s     0.902530    0.775590    0.031494    0.000000
   213  O2    s     0.872713    0.088027    0.697119    0.000000
   214  O2    s     0.776108    0.868486    0.860388    0.000000
   215  O3    s     0.085142    0.221669    0.526939    0.000000
   216  O2    s     0.118107    0.899856    0.196329    0.000000
   217  O2    s     0.924930    0.854022    0.249842    0.000000
   218  O3    s     0.125113    0.055231    0.586212    0.000000
   219  O3    s     0.925969    0.055213    0.913469    0.000000
   220  O2    s     0.068657    0.141460    0.749841    0.000000
   221  O2    s     0.852120    0.919622    0.084342    0.000000
   222  O2    s     0.063356    0.919645    0.415342    0.000000
   223  O3    s     0.902093    0.207823    0.980864    0.000000
   224  O2    s     0.786897    0.697780    0.314407    0.000000
   225  O2    s     0.289749    0.081792    0.648646    0.000000
   226  O2    s     0.085551    0.793726    0.483723    0.000000
   227  O2    s     0.199191    0.288742    0.817197    0.000000
   228  O2    s     0.700527    0.904774    0.149622    0.000000
   229  O2    s     0.200098    0.904785    0.350065    0.000000
   230  O2    s     0.703953    0.793684    0.015972    0.000000
   231  O2    s     0.085399    0.288771    0.682493    0.000000
   232  O2    s     0.787874    0.081762    0.851043    0.000000
   233  O3    s     0.301579    0.207917    0.518829    0.000000
   234  O2    s     0.906721    0.697764    0.185277    0.000000
   235  O2    s     0.323731    0.651624    0.249839    0.000000
   236  O2    s     0.338924    0.668242    0.583176    0.000000
   237  O2    s     0.325130    0.668221    0.916507    0.000000
   238  O2    s     0.665272    0.334698    0.749850    0.000000
   239  O2    s     0.653736    0.324502    0.084063    0.000000
   240  O2    s     0.666628    0.324592    0.415634    0.000000
   241  O2    s     0.380681    0.341537    0.968741    0.000000
   242  O2    s     0.654552    0.031887    0.301968    0.000000
   243  O2    s     0.956680    0.615232    0.636180    0.000000
   244  O2    s     0.615587    0.655989    0.467022    0.000000
   245  O2    s     0.333349    0.955066    0.801378    0.000000
   246  O2    s     0.035343    0.370663    0.134390    0.000000
   247  O2    s     0.331171    0.370684    0.365295    0.000000
   248  O2    s     0.036147    0.655898    0.032656    0.000000
   249  O2    s     0.617571    0.955082    0.698309    0.000000
   250  O2    s     0.654369    0.615198    0.863520    0.000000
   251  O2    s     0.956671    0.341573    0.530951    0.000000
   252  O2    s     0.373176    0.031881    0.197728    0.000000
   253  O2    s     0.774490    0.308910    0.014430    0.000000
   254  O2    s     0.679363    0.459695    0.345928    0.000000
   255  O2    s     0.527578    0.214098    0.680128    0.000000
   256  O2    s     0.217943    0.689438    0.514510    0.000000
   257  O2    s     0.304939    0.526488    0.847645    0.000000
   258  O2    s     0.462661    0.772241    0.180549    0.000000
   259  O2    s     0.305425    0.772244    0.319135    0.000000
   260  O2    s     0.467279    0.689401    0.985180    0.000000
   261  O2    s     0.217399    0.526513    0.652042    0.000000
   262  O2    s     0.682357    0.214080    0.819568    0.000000
   263  O2    s     0.530269    0.309020    0.485264    0.000000
   264  O2    s     0.776157    0.459665    0.153762    0.000000
   265  O2    s     0.787662    0.527974    0.032140    0.000000
   266  O2    s     0.459353    0.251119    0.364938    0.000000
   267  O2    s     0.736324    0.201957    0.697476    0.000000
   268  O2    s     0.205524    0.469178    0.529212    0.000000
   269  O2    s     0.525975    0.734529    0.862668    0.000000
   270  O2    s     0.254074    0.784651    0.196807    0.000000
   271  O2    s     0.526421    0.784654    0.302877    0.000000
   272  O2    s     0.259437    0.469146    0.970472    0.000000
   273  O2    s     0.204404    0.734555    0.637023    0.000000
   274  O2    s     0.461469    0.201939    0.802218    0.000000
   275  O2    s     0.736165    0.528087    0.467552    0.000000
   276  O2    s     0.787592    0.251085    0.134758    0.000000
   277  O2    s     0.236422    0.329397    0.900404    0.000000
   278  O2    s     0.662388    0.903285    0.232599    0.000000
   279  O2    s     0.086265    0.755728    0.567224    0.000000
   280  O2    s     0.749687    0.661003    0.397120    0.000000
   281  O2    s     0.326698    0.083033    0.731663    0.000000
   282  O2    s     0.909200    0.237212    0.064113    0.000000
   283  O2    s     0.323862    0.237266    0.435577    0.000000
   284  O2    s     0.907100    0.660941    0.102563    0.000000
   285  O2    s     0.752184    0.083035    0.768027    0.000000
   286  O2    s     0.665266    0.755694    0.932472    0.000000
   287  O2    s     0.088807    0.329428    0.599285    0.000000
   288  O2    s     0.236737    0.903279    0.267090    0.000000
   289  O2    s     0.585951    0.559345    0.986192    0.000000
   290  O2    s     0.435694    0.019063    0.320215    0.000000
   291  O2    s     0.969128    0.408311    0.652538    0.000000
   292  O2    s     0.412024    0.439885    0.487397    0.000000
   293  O2    s     0.551782    0.967867    0.820703    0.000000
   294  O2    s     0.022014    0.575730    0.154601    0.000000
   295  O2    s     0.549562    0.575747    0.345079    0.000000
   296  O2    s     0.023617    0.439807    0.012284    0.000000
   297  O2    s     0.411942    0.967886    0.678982    0.000000
   298  O2    s     0.435000    0.408278    0.847158    0.000000
   299  O2    s     0.969222    0.559391    0.513505    0.000000
   300  O2    s     0.579212    0.019057    0.179478    0.000000
   301  O2    s     0.572785    0.149722    0.249850    0.000000
   302  O2    s     0.837220    0.419638    0.583178    0.000000
   303  O2    s     0.578216    0.419599    0.916521    0.000000
   304  O2    s     0.416596    0.837347    0.749841    0.000000
   305  O2    s     0.154064    0.572276    0.083459    0.000000
   306  O2    s     0.414052    0.572323    0.416216    0.000000
   307  F     s     0.447688    0.899537    0.249845    0.000000
   308  F     s     0.090356    0.544140    0.583189    0.000000
   309  F     s     0.449595    0.544117    0.916505    0.000000
   310  F     s     0.541893    0.087934    0.749846    0.000000
   311  F     s     0.902946    0.445731    0.083331    0.000000
   312  F     s     0.538651    0.445809    0.416360    0.000000
--------------------------------------------------------------------------------

  Final Cartesian lattice vectors (Angstroms) :

       11.953320    0.001059    0.000610
       -5.977616   10.392408    0.003445
        0.025463   -0.011180   29.450271


  Final cell parameters and derivatives :

--------------------------------------------------------------------------------
       a           11.953321 Angstrom     dE/de1(xx)     0.002798 eV/strain
       b           11.988914 Angstrom     dE/de2(yy)     0.002332 eV/strain
       c           29.450284 Angstrom     dE/de3(zz)     0.003723 eV/strain
       alpha       90.027090 Degrees      dE/de4(yz)    -0.000127 eV/strain
       beta        89.947537 Degrees      dE/de5(xz)     0.000266 eV/strain
       gamma      119.902031 Degrees      dE/de6(xy)     0.000104 eV/strain
--------------------------------------------------------------------------------

  Primitive cell volume =          3658.611025 Angs**3

  Density of cell =      1.728570 g/cm**3

  Non-primitive cell volume =          3658.611025 Angs**3


  Final internal derivatives :

--------------------------------------------------------------------------------
   No.  Atomic          a             b             c           Radius
        Label          (eV)          (eV)          (eV)        (eV/Angs)
--------------------------------------------------------------------------------
      1 Si    c       0.000000      0.000000      0.000000      0.000000
      2 Si    c       0.000039      0.000128      0.000200      0.000000
      3 Si    c       0.000074      0.000080     -0.000154      0.000000
      4 Si    c       0.000106      0.000100      0.000056      0.000000
      5 Si    c       0.000201     -0.000101     -0.000144      0.000000
      6 Si    c       0.000096      0.000133      0.000428      0.000000
      7 Si    c       0.000125      0.000163     -0.000344      0.000000
      8 Si    c       0.000655     -0.000449     -0.000849      0.000000
      9 Si    c       0.000104      0.000114     -0.000102      0.000000
     10 Si    c       0.000146     -0.000217     -0.000154      0.000000
     11 Si    c       0.000055      0.000035     -0.000173      0.000000
     12 Si    c       0.000678     -0.000543      0.005179      0.000000
     13 Si    c      -0.002248      0.001853     -0.003876      0.000000
     14 Si    c       0.000051      0.000093     -0.000060      0.000000
     15 Si    c       0.000151     -0.000035     -0.000193      0.000000
     16 Si    c       0.000172      0.000073      0.000102      0.000000
     17 Si    c       0.000104      0.000317      0.000425      0.000000
     18 Si    c      -0.000132      0.000138      0.000785      0.000000
     19 Si    c       0.000247      0.000060      0.000367      0.000000
     20 Si    c      -0.000143     -0.000019      0.000618      0.000000
     21 Si    c       0.000066      0.000167     -0.000095      0.000000
     22 Si    c      -0.000333      0.000474     -0.000199      0.000000
     23 Si    c       0.000135     -0.000007      0.000050      0.000000
     24 Si    c      -0.000068      0.000175      0.000089      0.000000
     25 Si    c       0.000067      0.000208     -0.000814      0.000000
     26 Si    c       0.000114     -0.000060      0.000152      0.000000
     27 Si    c       0.000168      0.000060     -0.000029      0.000000
     28 Si    c       0.000112      0.000099     -0.000062      0.000000
     29 Si    c       0.000109      0.000113     -0.000136      0.000000
     30 Si    c       0.000999     -0.000240     -0.001232      0.000000
     31 Si    c       0.000160      0.000025     -0.000091      0.000000
     32 Si    c       0.000434     -0.000159      0.001753      0.000000
     33 Si    c      -0.000144      0.000306      0.000057      0.000000
     34 Si    c       0.000014     -0.000057      0.000957      0.000000
     35 Si    c       0.000033     -0.000004     -0.000088      0.000000
     36 Si    c       0.000129      0.000093      0.000007      0.000000
     37 Si    c       0.000265      0.000409      0.001245      0.000000
     38 Si    c       0.000120      0.000040      0.000040      0.000000
     39 Si    c       0.000136      0.000091     -0.000114      0.000000
     40 Si    c       0.000149      0.000052      0.000008      0.000000
     41 Si    c       0.000241      0.000191      0.000403      0.000000
     42 Si    c       0.000415     -0.000014      0.000843      0.000000
     43 Si    c       0.000141      0.000007     -0.000054      0.000000
     44 Si    c       0.000397     -0.000009     -0.002265      0.000000
     45 Si    c       0.000034      0.000123     -0.000134      0.000000
     46 Si    c      -0.000006      0.000198     -0.000805      0.000000
     47 Si    c       0.000082      0.000007      0.000032      0.000000
     48 Si    c       0.000116      0.000042     -0.000060      0.000000
     49 Ge    c       0.000133      0.000688      0.004318      0.000000
     50 Si    c       0.000025      0.000129      0.000119      0.000000
     51 Si    c       0.000228     -0.000042      0.000397      0.000000
     52 Si    c       0.000158     -0.000205      0.000176      0.000000
     53 Si    c       0.000190      0.000267      0.000599      0.000000
     54 Si    c       0.000158     -0.000065      0.000011      0.000000
     55 Si    c       0.000094      0.000104      0.000151      0.000000
     56 Si    c      -0.000461      0.001374     -0.000109      0.000000
     57 Si    c      -0.000167      0.000197     -0.000734      0.000000
     58 Si    c      -0.000021      0.000511     -0.000711      0.000000
     59 Ge    c       0.000186      0.000145     -0.000037      0.000000
     60 Si    c       0.000015      0.000111     -0.000067      0.000000
     61 O3    c       0.000611     -0.000631      0.000584      0.000000
     62 O2    c       0.000134      0.000197      0.000020      0.000000
     63 O2    c      -0.000126     -0.000013      0.000344      0.000000
     64 O3    c       0.000053      0.000295      0.000249      0.000000
     65 O2    c       0.000133      0.000019     -0.000068      0.000000
     66 O2    c       0.000073      0.000086     -0.000116      0.000000
     67 O2    c      -0.000003      0.000141     -0.000028      0.000000
     68 O2    c       0.000065     -0.000009     -0.000197      0.000000
     69 O2    c      -0.000332      0.000891      0.000596      0.000000
     70 O2    c       0.000319      0.000217      0.000104      0.000000
     71 O2    c      -0.000173      0.000072      0.000316      0.000000
     72 O2    c       0.000164     -0.000050     -0.000019      0.000000
     73 O2    c       0.000340     -0.002425      0.001524      0.000000
     74 O2    c       0.000032      0.000123      0.000173      0.000000
     75 O2    c       0.000180      0.000057      0.000089      0.000000
     76 O2    c       0.000230      0.000032     -0.000166      0.000000
     77 O2    c       0.000024     -0.000162     -0.000687      0.000000
     78 O2    c      -0.000121      0.000397     -0.000421      0.000000
     79 O3    c       0.000642      0.000086      0.001044      0.000000
     80 O2    c       0.000074      0.000145      0.000119      0.000000
     81 O2    c       0.000113     -0.000128     -0.000055      0.000000
     82 O2    c       0.000102      0.000048      0.000067      0.000000
     83 O2    c       0.000219      0.000087      0.000218      0.000000
     84 O2    c       0.000201     -0.000102     -0.000018      0.000000
     85 O2    c       0.000101      0.000110      0.000075      0.000000
     86 O2    c       0.002372     -0.002576     -0.000339      0.000000
     87 O2    c       0.000002      0.000063      0.000001      0.000000
     88 O2    c      -0.000046     -0.000193     -0.000381      0.000000
     89 O3    c       0.000079      0.000098     -0.000064      0.000000
     90 O2    c       0.000088      0.000113     -0.000118      0.000000
     91 O2    c       0.000129     -0.000015     -0.000490      0.000000
     92 O3    c      -0.000201      0.000266     -0.001069      0.000000
     93 O3    c      -0.000149     -0.001189     -0.009521      0.000000
     94 O2    c       0.000137      0.000026      0.000727      0.000000
     95 O2    c       0.000012      0.000267      0.002846      0.000000
     96 O2    c       0.000064      0.000037     -0.001006      0.000000
     97 O3    c      -0.000794      0.001214     -0.000002      0.000000
     98 O2    c       0.000125     -0.000087      0.000017      0.000000
     99 O2    c       0.000082      0.000162     -0.000136      0.000000
    100 O2    c       0.000239     -0.000013     -0.000124      0.000000
    101 O2    c       0.000078      0.000309      0.000204      0.000000
    102 O2    c       0.000088      0.000006     -0.000056      0.000000
    103 O2    c       0.000227     -0.000021     -0.000126      0.000000
    104 O2    c      -0.001139      0.000254     -0.000628      0.000000
    105 O2    c       0.000079      0.000106      0.000053      0.000000
    106 O2    c       0.000094      0.000303      0.000161      0.000000
    107 O3    c       0.000098      0.000020      0.000106      0.000000
    108 O2    c       0.000047      0.000074      0.000012      0.000000
    109 O2    c       0.000040      0.000097      0.000064      0.000000
    110 O2    c       0.000119      0.000071      0.000010      0.000000
    111 O2    c      -0.000102      0.000398     -0.000553      0.000000
    112 O2    c       0.000145      0.000270     -0.000071      0.000000
    113 O2    c      -0.001596     -0.000033     -0.001432      0.000000
    114 O2    c       0.000091      0.000020      0.000050      0.000000
    115 O2    c       0.000126      0.000030      0.000114      0.000000
    116 O2    c       0.000137      0.000091     -0.000052      0.000000
    117 O2    c       0.000071      0.000111      0.000021      0.000000
    118 O2    c       0.000127      0.000079      0.000007      0.000000
    119 O2    c       0.000086      0.000226      0.000018      0.000000
    120 O2    c       0.000140      0.000107     -0.000053      0.000000
    121 O2    c       0.000086      0.000061     -0.000045      0.000000
    122 O2    c      -0.000187      0.000565     -0.000070      0.000000
    123 O2    c       0.000052      0.000108     -0.000030      0.000000
    124 O2    c       0.000063      0.000130     -0.000157      0.000000
    125 O2    c       0.000129      0.000038     -0.000041      0.000000
    126 O2    c       0.000063      0.000074     -0.000092      0.000000
    127 O2    c      -0.000424      0.000078     -0.000703      0.000000
    128 O2    c       0.000106      0.000113      0.000021      0.000000
    129 O2    c       0.000060      0.000137     -0.000012      0.000000
    130 O2    c       0.000180      0.000007     -0.000034      0.000000
    131 O2    c       0.000033      0.000253     -0.000029      0.000000
    132 O2    c       0.000091      0.000059     -0.000067      0.000000
    133 O2    c       0.000049      0.000166     -0.000067      0.000000
    134 O2    c       0.000251      0.000106      0.000228      0.000000
    135 O2    c       0.000103      0.000001      0.000048      0.000000
    136 O2    c       0.000077      0.000246      0.000004      0.000000
    137 O2    c       0.000136      0.000001     -0.000082      0.000000
    138 O2    c       0.000027      0.000158      0.000560      0.000000
    139 O2    c      -0.000275     -0.000112     -0.001288      0.000000
    140 O2    c       0.000106      0.000071     -0.000046      0.000000
    141 O2    c       0.000090      0.000110     -0.000054      0.000000
    142 O2    c       0.000192      0.000028     -0.000165      0.000000
    143 O2    c       0.000028      0.000237     -0.000289      0.000000
    144 O2    c       0.000019      0.000090     -0.000155      0.000000
    145 O2    c       0.000137      0.000045      0.000045      0.000000
    146 O2    c      -0.000002      0.000174      0.000224      0.000000
    147 O2    c       0.000078      0.000072      0.000020      0.000000
    148 O2    c       0.000093      0.000225     -0.000026      0.000000
    149 O2    c       0.000139      0.000003     -0.000121      0.000000
    150 O2    c      -0.000060      0.000144      0.000354      0.000000
    151 O2    c      -0.000205      0.000090     -0.001025      0.000000
    152 O2    c       0.000126      0.000080     -0.000111      0.000000
    153 O2    c       0.000190      0.000049     -0.000054      0.000000
    154 O2    c       0.000144      0.000098      0.000089      0.000000
    155 O2    c       0.000028      0.000187     -0.000097      0.000000
    156 O2    c       0.000411     -0.000347      0.000416      0.000000
    157 O2    c       0.000137      0.000017      0.000227      0.000000
    158 O2    c      -0.000009      0.000799      0.000919      0.000000
    159 O2    c       0.000160      0.000155     -0.000171      0.000000
    160 O2    c       0.000354      0.000399     -0.000239      0.000000
    161 O2    c       0.000039      0.000034      0.000080      0.000000
    162 O2    c       0.000038      0.000089     -0.000053      0.000000
    163 O2    c       0.000043      0.000185      0.000112      0.000000
    164 O2    c       0.000128      0.000111      0.000075      0.000000
    165 O2    c       0.000086      0.000036      0.000013      0.000000
    166 O2    c       0.000137      0.000105     -0.000035      0.000000
    167 O2    c       0.000121      0.000192      0.000049      0.000000
    168 O2    c       0.000296     -0.000030     -0.000146      0.000000
    169 O2    c       0.000120      0.000140      0.000041      0.000000
    170 O2    c       0.000394      0.000206     -0.000376      0.000000
    171 O2    c       0.000032      0.000108     -0.000111      0.000000
    172 O2    c       0.000101      0.000123      0.000008      0.000000
    173 O2    c       0.000098      0.000027     -0.000114      0.000000
    174 O2    c       0.000097      0.000058     -0.000169      0.000000
    175 O2    c       0.000141      0.000128      0.000126      0.000000
    176 O2    c       0.000106     -0.000015     -0.000153      0.000000
    177 O2    c       0.000247     -0.000239     -0.000299      0.000000
    178 O2    c       0.000057      0.000054     -0.000481      0.000000
    179 O2    c       0.000350      0.000259     -0.000961      0.000000
    180 O2    c       0.000114      0.000133     -0.000290      0.000000
    181 F     c       0.000109      0.000138     -0.000039      0.000000
    182 F     c       0.000103      0.000029      0.000001      0.000000
    183 F     c       0.000089      0.000103      0.000267      0.000000
    184 F     c       0.000070      0.000201      0.000108      0.000000
    185 F     c       0.000193      0.000133     -0.000387      0.000000
    186 F     c       0.000117      0.000066      0.000026      0.000000
    187 O3    s       0.000231      0.000597     -0.000765      0.000000
    188 O2    s       0.000178      0.000157     -0.000122      0.000000
    189 O2    s      -0.000053     -0.000048     -0.000215      0.000000
    190 O3    s       0.000268      0.000048     -0.000092      0.000000
    191 O2    s       0.000015      0.000088     -0.000310      0.000000
    192 O2    s       0.000051      0.000135      0.000202      0.000000
    193 O2    s       0.000151      0.000073     -0.000156      0.000000
    194 O2    s       0.000033      0.000143      0.000150      0.000000
    195 O2    s       0.000414     -0.000371     -0.000210      0.000000
    196 O2    s       0.000045      0.000334     -0.000297      0.000000
    197 O2    s       0.000115     -0.000121      0.000249      0.000000
    198 O2    s       0.000102      0.000023      0.000096      0.000000
    199 O2    s       0.000310      0.001832      0.000704      0.000000
    200 O2    s       0.000079      0.000109     -0.000137      0.000000
    201 O2    s       0.000085      0.000118     -0.000166      0.000000
    202 O2    s       0.000175      0.000107      0.000096      0.000000
    203 O2    s       0.000212      0.000119      0.000566      0.000000
    204 O2    s       0.000074      0.000177      0.000038      0.000000
    205 O3    s       0.000472     -0.000030     -0.001172      0.000000
    206 O2    s       0.000048      0.000165     -0.000220      0.000000
    207 O2    s       0.000100     -0.000060      0.000094      0.000000
    208 O2    s       0.000117     -0.000051      0.000008      0.000000
    209 O2    s       0.000177      0.000060     -0.000302      0.000000
    210 O2    s      -0.000083      0.000053      0.000342      0.000000
    211 O2    s       0.000089      0.000118     -0.000092      0.000000
    212 O2    s      -0.000084      0.000352     -0.001095      0.000000
    213 O2    s      -0.000057      0.000030     -0.000187      0.000000
    214 O2    s       0.000317      0.000177      0.000207      0.000000
    215 O3    s       0.000096      0.000051     -0.000011      0.000000
    216 O2    s       0.000100      0.000090      0.000204      0.000000
    217 O2    s       0.000042      0.000129      0.000003      0.000000
    218 O3    s       0.000102      0.000039      0.000241      0.000000
    219 O3    s       0.000189      0.000425      0.003939      0.000000
    220 O2    s      -0.000015      0.000087     -0.000164      0.000000
    221 O2    s      -0.000290      0.000583      0.000974      0.000000
    222 O2    s       0.000013     -0.000046      0.000240      0.000000
    223 O3    s      -0.000169      0.000270      0.000766      0.000000
    224 O2    s       0.000065      0.000098      0.000202      0.000000
    225 O2    s       0.000173      0.000067      0.000284      0.000000
    226 O2    s       0.000209     -0.000038      0.000273      0.000000
    227 O2    s       0.000031      0.000271     -0.000271      0.000000
    228 O2    s      -0.000020      0.000124      0.000012      0.000000
    229 O2    s       0.000133      0.000076      0.000144      0.000000
    230 O2    s      -0.000529      0.000090     -0.000565      0.000000
    231 O2    s       0.000009      0.000143     -0.000199      0.000000
    232 O2    s       0.000089      0.000265     -0.000032      0.000000
    233 O3    s       0.000194      0.000050      0.000044      0.000000
    234 O2    s       0.000135      0.000095      0.000501      0.000000
    235 O2    s       0.000132     -0.000011     -0.000042      0.000000
    236 O2    s       0.000125      0.000074      0.000058      0.000000
    237 O2    s       0.000162      0.000098     -0.000106      0.000000
    238 O2    s       0.000131      0.000165     -0.000334      0.000000
    239 O2    s       0.001428      0.000168     -0.000567      0.000000
    240 O2    s       0.000105     -0.000007     -0.000099      0.000000
    241 O2    s      -0.000305      0.000157     -0.000216      0.000000
    242 O2    s       0.000117      0.000123      0.000099      0.000000
    243 O2    s       0.000086      0.000052     -0.000073      0.000000
    244 O2    s       0.000144      0.000087      0.000114      0.000000
    245 O2    s       0.000105      0.000142     -0.000106      0.000000
    246 O2    s       0.000296     -0.000187      0.000397      0.000000
    247 O2    s       0.000140      0.000054      0.000043      0.000000
    248 O2    s       0.000269      0.000079     -0.000417      0.000000
    249 O2    s       0.000016      0.000116      0.000023      0.000000
    250 O2    s       0.000255      0.000126      0.000135      0.000000
    251 O2    s       0.000110      0.000021     -0.000021      0.000000
    252 O2    s       0.000124      0.000107      0.000130      0.000000
    253 O2    s      -0.000078      0.000187      0.000990      0.000000
    254 O2    s       0.000126      0.000080     -0.000068      0.000000
    255 O2    s       0.000066      0.000168     -0.000058      0.000000
    256 O2    s       0.000124      0.000062     -0.000019      0.000000
    257 O2    s       0.000006      0.000152     -0.000160      0.000000
    258 O2    s       0.000112      0.000070      0.000082      0.000000
    259 O2    s       0.000182      0.000047      0.000172      0.000000
    260 O2    s       0.000295      0.000091      0.000070      0.000000
    261 O2    s       0.000053      0.000091     -0.000027      0.000000
    262 O2    s       0.000190      0.000218     -0.000057      0.000000
    263 O2    s       0.000118      0.000000      0.000198      0.000000
    264 O2    s       0.000000      0.000175     -0.001028      0.000000
    265 O2    s      -0.000154     -0.000733      0.001572      0.000000
    266 O2    s       0.000100      0.000063      0.000023      0.000000
    267 O2    s      -0.000007      0.000198      0.000027      0.000000
    268 O2    s       0.000126      0.000033      0.000188      0.000000
    269 O2    s       0.000144      0.000121      0.000197      0.000000
    270 O2    s       0.000110      0.000126      0.000181      0.000000
    271 O2    s       0.000057      0.000128     -0.000041      0.000000
    272 O2    s       0.000115      0.000205     -0.000114      0.000000
    273 O2    s       0.000085      0.000035     -0.000081      0.000000
    274 O2    s       0.000119      0.000219     -0.000039      0.000000
    275 O2    s       0.000117      0.000038      0.000247      0.000000
    276 O2    s       0.000100      0.000091     -0.000735      0.000000
    277 O2    s       0.000379      0.000016      0.001230      0.000000
    278 O2    s       0.000078      0.000133      0.000035      0.000000
    279 O2    s       0.000101      0.000148      0.000022      0.000000
    280 O2    s       0.000163      0.000079     -0.000138      0.000000
    281 O2    s       0.000051      0.000133     -0.000054      0.000000
    282 O2    s      -0.000243      0.000483      0.000211      0.000000
    283 O2    s       0.000064      0.000075     -0.000215      0.000000
    284 O2    s       0.000093     -0.000248     -0.000398      0.000000
    285 O2    s       0.000093      0.000147     -0.000013      0.000000
    286 O2    s      -0.000156     -0.000167      0.000396      0.000000
    287 O2    s       0.000091     -0.000022     -0.000092      0.000000
    288 O2    s       0.000139      0.000110     -0.000038      0.000000
    289 O2    s       0.000593     -0.000078     -0.000033      0.000000
    290 O2    s       0.000099      0.000119     -0.000122      0.000000
    291 O2    s       0.000034      0.000080     -0.000041      0.000000
    292 O2    s       0.000126      0.000081      0.000145      0.000000
    293 O2    s       0.000084      0.000152     -0.000064      0.000000
    294 O2    s       0.000123      0.000220      0.000695      0.000000
    295 O2    s       0.000169      0.000053     -0.000038      0.000000
    296 O2    s      -0.000145      0.000408     -0.000137      0.000000
    297 O2    s       0.000021      0.000108      0.000168      0.000000
    298 O2    s       0.000130      0.000150     -0.000201      0.000000
    299 O2    s       0.000127      0.000046      0.000062      0.000000
    300 O2    s       0.000125      0.000060      0.000024      0.000000
    301 O2    s       0.000114      0.000073     -0.000077      0.000000
    302 O2    s       0.000081      0.000041      0.000113      0.000000
    303 O2    s       0.000165      0.000547     -0.000251      0.000000
    304 O2    s       0.000047      0.000248      0.000317      0.000000
    305 O2    s       0.000253      0.000154      0.000518      0.000000
    306 O2    s       0.000194      0.000075      0.000347      0.000000
    307 F     s       0.000159      0.000100      0.000006      0.000000
    308 F     s       0.000076      0.000027     -0.000030      0.000000
    309 F     s       0.000142      0.000187     -0.000531      0.000000
    310 F     s       0.000102      0.000186     -0.000321      0.000000
    311 F     s       0.000181     -0.000004      0.000967      0.000000
    312 F     s       0.000110      0.000049     -0.000025      0.000000
--------------------------------------------------------------------------------
  Maximum abs         0.002372      0.002576      0.009521      0.000000
--------------------------------------------------------------------------------


  Time to end of optimisation =      27.6680 seconds


  Peak dynamic memory used =      19.13 MB 


  Timing analysis for GULP :

--------------------------------------------------------------------------------
  Task / Subroutine                                          Time (Seconds)
--------------------------------------------------------------------------------
  Calculation of reciprocal space energy and derivatives          0.7156
  Calculation of real space energy and derivatives               23.9365
  Calculation of three-body energy and derivatives                2.5865
  Calculation of matrix inversion                                 0.3717
--------------------------------------------------------------------------------
  Total CPU time                                                 27.6681
--------------------------------------------------------------------------------


  Dump file written as out.res                                                 
  CIF file written as out.cif                                                 


  Job Finished at 06:19.13 24th October    2016                               

