********************************************************************************
*                       GENERAL UTILITY LATTICE PROGRAM                        *
*                                 Julian Gale                                  *
*                      Nanochemistry Research Institute                        *
*                           Department of Chemistry                            *
*                    Curtin University, Western Australia                      *
********************************************************************************
* Version = 4.2.0 * Last modified =  20th January 2014                         *
********************************************************************************
*  optimise     - perform optimisation run                                     *
*  conp         - constant pressure calculation                                *
*  qok          - running with non charge neutral cell is OK                   *
********************************************************************************

  Job Started  at 01:45.06  1st November   2016                               

  Number of CPUs =     1


  Total number of configurations input =   1

********************************************************************************
*  Input for Configuration =   1                                               *
********************************************************************************

  Formula = Ge3Si57O120F6                                               

  Number of irreducible atoms/shells =     312


  Total number atoms/shells =     312

  Dimensionality = 3               :  Bulk   


  Charge on solid   =  -6.000000 =>neutralising background added


  Cartesian lattice vectors (Angstroms) :

       11.958737    0.000000    0.000000
       -6.076110   10.376685    0.000000
       -0.156198   -0.158557   29.489426

  Cell parameters (Angstroms/Degrees):

  a =      11.9587    alpha =  90.1125
  b =      12.0248    beta  =  90.3035
  c =      29.4903    gamma = 120.3513

  Initial cell volume =        3659.403394 Angs**3

  Temperature of configuration =  0.000     K 

  Pressure of configuration =         0.000 GPa 

  Fractional coordinates of asymmetric unit :

--------------------------------------------------------------------------------
   No.  Atomic       x           y          z         Charge      Occupancy
        Label      (Frac)      (Frac)     (Frac)        (e)         (Frac)  
--------------------------------------------------------------------------------
      1 Ge    c    0.699600    0.375700    0.033890     4.00000    1.000000    
      2 Si    c    0.622394 *  0.324657 *  0.365322 *   4.00000    1.000000    
      3 Si    c    0.675402 *  0.301138 *  0.698514 *   4.00000    1.000000    
      4 Si    c    0.295733 *  0.618481 *  0.530501 *   4.00000    1.000000    
      5 Si    c    0.378934 *  0.674202 *  0.861917 *   4.00000    1.000000    
      6 Si    c    0.324211 *  0.701567 *  0.199336 *   4.00000    1.000000    
      7 Si    c    0.378470 *  0.700577 *  0.299779 *   4.00000    1.000000    
      8 Si    c    0.319473 *  0.620786 *  0.961717 *   4.00000    1.000000    
      9 Si    c    0.298600 *  0.678182 *  0.630403 *   4.00000    1.000000    
     10 Si    c    0.625051 *  0.298435 *  0.799589 *   4.00000    1.000000    
     11 Si    c    0.677661 *  0.380101 *  0.466002 *   4.00000    1.000000    
     12 Si    c    0.685310 *  0.316638 *  0.132642 *   4.00000    1.000000    
     13 Si    c    0.528427 *  0.416961 *  0.966337 *   4.00000    1.000000    
     14 Si    c    0.583266 *  0.111448 *  0.301861 *   4.00000    1.000000    
     15 Si    c    0.885259 *  0.469634 *  0.632932 *   4.00000    1.000000    
     16 Si    c    0.468930 *  0.582477 *  0.465408 *   4.00000    1.000000    
     17 Si    c    0.418182 *  0.885978 *  0.798078 *   4.00000    1.000000    
     18 Ge    c    0.109856 *  0.536633 *  0.130425 *   4.00000    1.000000    
     19 Si    c    0.416992 *  0.528003 *  0.363785 *   4.00000    1.000000    
     20 Si    c    0.105449 *  0.584167 *  0.025050 *   4.00000    1.000000    
     21 Si    c    0.465382 *  0.888339 *  0.696377 *   4.00000    1.000000    
     22 Si    c    0.584101 *  0.468716 *  0.864336 *   4.00000    1.000000    
     23 Si    c    0.886777 *  0.415458 *  0.531531 *   4.00000    1.000000    
     24 Si    c    0.527310 *  0.108753 *  0.200428 *   4.00000    1.000000    
     25 Si    c    0.302808 *  0.397615 *  0.847987 *   4.00000    1.000000    
     26 Si    c    0.602582 *  0.904581 *  0.184894 *   4.00000    1.000000    
     27 Si    c    0.094468 *  0.695539 *  0.515362 *   4.00000    1.000000    
     28 Si    c    0.698362 *  0.601031 *  0.349760 *   4.00000    1.000000    
     29 Si    c    0.395824 *  0.097989 *  0.684368 *   4.00000    1.000000    
     30 Si    c    0.890259 *  0.294926 *  0.011735 *   4.00000    1.000000    
     31 Si    c    0.398267 *  0.303033 *  0.479546 *   4.00000    1.000000    
     32 Si    c    0.888464 *  0.603247 *  0.143546 *   4.00000    1.000000    
     33 Si    c    0.701777 *  0.096903 *  0.812239 *   4.00000    1.000000    
     34 Si    c    0.597945 *  0.698249 *  0.978576 *   4.00000    1.000000    
     35 Si    c    0.097389 *  0.401908 *  0.647553 *   4.00000    1.000000    
     36 Si    c    0.300680 *  0.899950 *  0.314320 *   4.00000    1.000000    
     37 Si    c    0.249134 *  0.341195 *  0.948148 *   4.00000    1.000000    
     38 Si    c    0.661003 *  0.911505 *  0.285664 *   4.00000    1.000000    
     39 Si    c    0.088081 *  0.747228 *  0.615891 *   4.00000    1.000000    
     40 Si    c    0.748238 *  0.659655 *  0.450478 *   4.00000    1.000000    
     41 Si    c    0.342371 *  0.088059 *  0.785230 *   4.00000    1.000000    
     42 Si    c    0.902313 *  0.249081 *  0.114486 *   4.00000    1.000000    
     43 Si    c    0.340185 *  0.250580 *  0.378918 *   4.00000    1.000000    
     44 Si    c    0.898813 *  0.660273 *  0.040329 *   4.00000    1.000000    
     45 Si    c    0.744663 *  0.091501 *  0.711174 *   4.00000    1.000000    
     46 Si    c    0.659595 *  0.746761 *  0.878167 *   4.00000    1.000000    
     47 Si    c    0.087091 *  0.337417 *  0.547324 *   4.00000    1.000000    
     48 Si    c    0.246296 *  0.904796 *  0.213585 *   4.00000    1.000000    
     49 Si    c    0.970577 *  0.121158 *  0.964342 *   4.00000    1.000000    
     50 Si    c    0.877677 *  0.847910 *  0.298661 *   4.00000    1.000000    
     51 Si    c    0.149348 *  0.025948 *  0.630811 *   4.00000    1.000000    
     52 Si    c    0.029144 *  0.877648 *  0.465030 *   4.00000    1.000000    
     53 Si    c    0.123563 *  0.145831 *  0.799561 *   4.00000    1.000000    
     54 Si    c    0.846862 *  0.972009 *  0.131914 *   4.00000    1.000000    
     55 Si    c    0.122164 *  0.969425 *  0.364196 *   4.00000    1.000000    
     56 Si    c    0.846460 *  0.881800 *  0.030282 *   4.00000    1.000000    
     57 Ge    c    0.027262 *  0.149989 *  0.696893 *   4.00000    1.000000    
     58 Si    c    0.878792 *  0.025234 *  0.863757 *   4.00000    1.000000    
     59 Si    c    0.150895 *  0.121414 *  0.530294 *   4.00000    1.000000    
     60 Si    c    0.966501 *  0.850945 *  0.196741 *   4.00000    1.000000    
     61 O2    c    0.928506 *  0.007731 *  0.000338 *   0.87073    1.000000    
     62 O2    c    0.002150 *  0.928120 *  0.330417 *   0.87073    1.000000    
     63 O3    c    0.061488 *  0.061347 *  0.659967 *   1.33043    1.000000    
     64 O2    c    0.071945 *  0.001311 *  0.496592 *   0.87073    1.000000    
     65 O2    c    0.003425 *  0.068929 *  0.832969 *   0.87073    1.000000    
     66 O2    c    0.934365 *  0.940255 *  0.165169 *   0.87073    1.000000    
     67 O2    c    0.339890 *  0.576854 *  0.331601 *   0.87073    1.000000    
     68 O2    c    0.421351 *  0.765255 *  0.663211 *   0.87073    1.000000    
     69 O2    c    0.230302 *  0.658235 *  0.992425 *   0.87073    1.000000    
     70 O2    c    0.662737 *  0.420156 *  0.832893 *   0.87073    1.000000    
     71 O2    c    0.575780 *  0.236685 *  0.170311 *   0.87073    1.000000    
     72 O2    c    0.760150 *  0.339728 *  0.498827 *   0.87073    1.000000    
     73 O3    c    0.566003 *  0.336626 *  0.998750 *   1.33043    1.000000    
     74 O2    c    0.760447 *  0.423401 *  0.665491 *   0.87073    1.000000    
     75 O2    c    0.660711 *  0.237978 *  0.333825 *   0.87073    1.000000    
     76 O2    c    0.418302 *  0.657219 *  0.497512 *   0.87073    1.000000    
     77 O3    c    0.241133 *  0.581558 *  0.165954 *   1.33043    1.000000    
     78 O2    c    0.341380 *  0.759393 *  0.829422 *   0.87073    1.000000    
     79 O2    c    0.125057 *  0.213465 *  0.968640 *   0.87073    1.000000    
     80 O2    c    0.787765 *  0.911469 *  0.305445 *   0.87073    1.000000    
     81 O2    c    0.089035 *  0.872591 *  0.635983 *   0.87073    1.000000    
     82 O2    c    0.874484 *  0.786967 *  0.470690 *   0.87073    1.000000    
     83 O2    c    0.217177 *  0.086384 *  0.806766 *   0.87073    1.000000    
     84 O2    c    0.903527 *  0.124921 *  0.135155 *   0.87073    1.000000    
     85 O2    c    0.213628 *  0.123359 *  0.358731 *   0.87073    1.000000    
     86 O2    c    0.914598 *  0.796785 *  0.024026 *   0.87073    1.000000    
     87 O3    c    0.864052 *  0.087853 *  0.688892 *   1.33043    1.000000    
     88 O2    c    0.786471 *  0.871564 *  0.857542 *   0.87073    1.000000    
     89 O2    c    0.085581 *  0.210584 *  0.527331 *   0.87073    1.000000    
     90 O2    c    0.120335 *  0.905281 *  0.193054 *   0.87073    1.000000    
     91 O2    c    0.925983 *  0.860077 *  0.247532 *   0.87073    1.000000    
     92 O2    c    0.142558 *  0.065109 *  0.579559 *   0.87073    1.000000    
     93 O2    c    0.926953 *  0.058811 *  0.915088 *   0.87073    1.000000    
     94 O3    c    0.066758 *  0.121496 *  0.749560 *   1.33043    1.000000    
     95 O2    c    0.855120 *  0.926765 *  0.081978 *   0.87073    1.000000    
     96 O2    c    0.067680 *  0.928983 *  0.414325 *   0.87073    1.000000    
     97 O2    c    0.901904 *  0.203857 *  0.973973 *   0.87073    1.000000    
     98 O2    c    0.796003 *  0.696831 *  0.311136 *   0.87073    1.000000    
     99 O2    c    0.299703 *  0.101589 *  0.646134 *   0.87073    1.000000    
    100 O2    c    0.097162 *  0.794473 *  0.477173 *   0.87073    1.000000    
    101 O2    c    0.205676 *  0.299394 *  0.809111 *   0.87073    1.000000    
    102 O2    c    0.696509 *  0.900237 *  0.146374 *   0.87073    1.000000    
    103 O2    c    0.203742 *  0.899556 *  0.352682 *   0.87073    1.000000    
    104 O2    c    0.694565 *  0.798747 *  0.017105 *   0.87073    1.000000    
    105 O3    c    0.104464 *  0.313048 *  0.686772 *   1.33043    1.000000    
    106 O2    c    0.799959 *  0.097044 *  0.850521 *   0.87073    1.000000    
    107 O2    c    0.302318 *  0.206276 *  0.517909 *   0.87073    1.000000    
    108 O2    c    0.887104 *  0.701889 *  0.181127 *   0.87073    1.000000    
    109 O2    c    0.322090 *  0.643061 *  0.249331 *   0.87073    1.000000    
    110 O2    c    0.355970 *  0.678838 *  0.580270 *   0.87073    1.000000    
    111 O2    c    0.319301 *  0.676134 *  0.911371 *   0.87073    1.000000    
    112 O2    c    0.679435 *  0.357395 *  0.749286 *   0.87073    1.000000    
    113 O3    c    0.614537 *  0.301744 *  0.085176 *   1.33043    1.000000    
    114 O2    c    0.679306 *  0.324928 *  0.415599 *   0.87073    1.000000    
    115 O2    c    0.370625 *  0.331937 *  0.966576 *   0.87073    1.000000    
    116 O2    c    0.670733 *  0.042961 *  0.304453 *   0.87073    1.000000    
    117 O2    c    0.955316 *  0.625755 *  0.634589 *   0.87073    1.000000    
    118 O2    c    0.625979 *  0.670215 *  0.468423 *   0.87073    1.000000    
    119 O2    c    0.332254 *  0.955494 *  0.802380 *   0.87073    1.000000    
    120 O3    c    0.035326 *  0.370231 *  0.130891 *   1.33043    1.000000    
    121 O2    c    0.329337 *  0.371738 *  0.360230 *   0.87073    1.000000    
    122 O2    c    0.031541 *  0.665865 *  0.023548 *   0.87073    1.000000    
    123 O2    c    0.621258 *  0.958624 *  0.693452 *   0.87073    1.000000    
    124 O2    c    0.670306 *  0.624820 *  0.860547 *   0.87073    1.000000    
    125 O2    c    0.954376 *  0.327400 *  0.528489 *   0.87073    1.000000    
    126 O2    c    0.370222 *  0.037144 *  0.195970 *   0.87073    1.000000    
    127 O3    c    0.756027 *  0.286436 *  0.002316 *   1.33043    1.000000    
    128 O2    c    0.697628 *  0.466907 *  0.342374 *   0.87073    1.000000    
    129 O2    c    0.530248 *  0.232555 *  0.676867 *   0.87073    1.000000    
    130 O2    c    0.226861 *  0.692203 *  0.507772 *   0.87073    1.000000    
    131 O2    c    0.304439 *  0.531378 *  0.838760 *   0.87073    1.000000    
    132 O2    c    0.467371 *  0.771255 *  0.176785 *   0.87073    1.000000    
    133 O2    c    0.302107 *  0.767273 *  0.321839 *   0.87073    1.000000    
    134 O2    c    0.462754 *  0.697904 *  0.985144 *   0.87073    1.000000    
    135 O2    c    0.232397 *  0.536621 *  0.653118 *   0.87073    1.000000    
    136 O2    c    0.701136 *  0.229966 *  0.820705 *   0.87073    1.000000    
    137 O2    c    0.533106 *  0.304793 *  0.487366 *   0.87073    1.000000    
    138 O2    c    0.756265 *  0.466620 *  0.150361 *   0.87073    1.000000    
    139 O3    c    0.771018 *  0.545684 *  0.019752 *   1.33043    1.000000    
    140 O2    c    0.465691 *  0.249399 *  0.359679 *   0.87073    1.000000    
    141 O2    c    0.748263 *  0.219425 *  0.692559 *   0.87073    1.000000    
    142 O2    c    0.214400 *  0.461973 *  0.527411 *   0.87073    1.000000    
    143 O2    c    0.535735 *  0.749504 *  0.857615 *   0.87073    1.000000    
    144 O2    c    0.243531 *  0.777759 *  0.193490 *   0.87073    1.000000    
    145 O2    c    0.535095 *  0.784971 *  0.304797 *   0.87073    1.000000    
    146 O2    c    0.244865 *  0.465163 *  0.967452 *   0.87073    1.000000    
    147 O2    c    0.215750 *  0.750401 *  0.635117 *   0.87073    1.000000    
    148 O2    c    0.468861 *  0.214583 *  0.804706 *   0.87073    1.000000    
    149 O2    c    0.750267 *  0.535985 *  0.470543 *   0.87073    1.000000    
    150 O2    c    0.781916 *  0.257674 *  0.134878 *   0.87073    1.000000    
    151 O2    c    0.228226 *  0.323784 *  0.893780 *   0.87073    1.000000    
    152 O2    c    0.677878 *  0.910505 *  0.231394 *   0.87073    1.000000    
    153 O2    c    0.089753 *  0.765339 *  0.561579 *   0.87073    1.000000    
    154 O2    c    0.768824 *  0.676438 *  0.396206 *   0.87073    1.000000    
    155 O2    c    0.322104 *  0.092534 *  0.730995 *   0.87073    1.000000    
    156 O2    c    0.895487 *  0.232000 *  0.060160 *   0.87073    1.000000    
    157 O2    c    0.322805 *  0.232069 *  0.433110 *   0.87073    1.000000    
    158 O2    c    0.896874 *  0.670231 *  0.095613 *   0.87073    1.000000    
    159 O2    c    0.772015 *  0.096163 *  0.765420 *   0.87073    1.000000    
    160 O2    c    0.675212 *  0.767215 *  0.932540 *   0.87073    1.000000    
    161 O2    c    0.088307 *  0.320934 *  0.601826 *   0.87073    1.000000    
    162 O2    c    0.228618 *  0.902531 *  0.267936 *   0.87073    1.000000    
    163 O2    c    0.580889 *  0.559311 *  0.988498 *   0.87073    1.000000    
    164 O2    c    0.441002 *  0.024966 *  0.323847 *   0.87073    1.000000    
    165 O2    c    0.971373 *  0.415268 *  0.656132 *   0.87073    1.000000    
    166 O2    c    0.412302 *  0.441846 *  0.488205 *   0.87073    1.000000    
    167 O2    c    0.561994 *  0.970269 *  0.820162 *   0.87073    1.000000    
    168 O3    c    0.010905 *  0.587331 *  0.153194 *   1.33043    1.000000    
    169 O2    c    0.558405 *  0.586413 *  0.340542 *   0.87073    1.000000    
    170 O2    c    0.014698 *  0.439166 *  0.006286 *   0.87073    1.000000    
    171 O2    c    0.406588 *  0.971838 *  0.674338 *   0.87073    1.000000    
    172 O2    c    0.442338 *  0.410120 *  0.840658 *   0.87073    1.000000    
    173 O2    c    0.968540 *  0.555195 *  0.507289 *   0.87073    1.000000    
    174 O2    c    0.588871 *  0.029939 *  0.176476 *   0.87073    1.000000    
    175 O2    c    0.580880 *  0.161976 *  0.251167 *   0.87073    1.000000    
    176 O2    c    0.832272 *  0.414829 *  0.582035 *   0.87073    1.000000    
    177 O2    c    0.583968 *  0.420251 *  0.915497 *   0.87073    1.000000    
    178 O2    c    0.413024 *  0.833375 *  0.746834 *   0.87073    1.000000    
    179 O3    c    0.158220 *  0.589667 *  0.075920 *   1.33043    1.000000    
    180 O2    c    0.416131 *  0.581375 *  0.414380 *   0.87073    1.000000    
    181 F     c    0.448261 *  0.899402 *  0.248466 *   0.56000    1.000000    
    182 F     c    0.094628 *  0.545017 *  0.580940 *   0.56000    1.000000    
    183 F     c    0.447548 *  0.550125 *  0.912451 *   0.56000    1.000000    
    184 F     c    0.548091 *  0.097019 *  0.747668 *   0.56000    1.000000    
    185 F     c    0.854293 *  0.436521 *  0.070486 *   0.56000    1.000000    
    186 F     c    0.547846 *  0.452452 *  0.414013 *   0.56000    1.000000    
    187 O2    s    0.923916 *  0.006207 *  0.999691 *  -2.87073    1.000000    
    188 O2    s    0.001539 *  0.923677 *  0.330619 *  -2.87073    1.000000    
    189 O3    s    0.068146 *  0.065148 *  0.659969 *  -3.33043    1.000000    
    190 O2    s    0.075904 *  0.000775 *  0.496787 *  -2.87073    1.000000    
    191 O2    s    0.002650 *  0.072537 *  0.832741 *  -2.87073    1.000000    
    192 O2    s    0.928452 *  0.933955 *  0.165026 *  -2.87073    1.000000    
    193 O2    s    0.351786 *  0.584676 *  0.331589 *  -2.87073    1.000000    
    194 O2    s    0.413037 *  0.768866 *  0.663188 *  -2.87073    1.000000    
    195 O2    s    0.226287 *  0.646754 *  0.992719 *  -2.87073    1.000000    
    196 O2    s    0.650897 *  0.412554 *  0.832641 *  -2.87073    1.000000    
    197 O2    s    0.582011 *  0.231413 *  0.169587 *  -2.87073    1.000000    
    198 O2    s    0.764510 *  0.351660 *  0.498745 *  -2.87073    1.000000    
    199 O3    s    0.572011 *  0.348016 *  0.997961 *  -3.33043    1.000000    
    200 O2    s    0.764610 *  0.415765 *  0.665512 *  -2.87073    1.000000    
    201 O2    s    0.648757 *  0.233648 *  0.333716 *  -2.87073    1.000000    
    202 O2    s    0.411024 *  0.645477 *  0.497558 *  -2.87073    1.000000    
    203 O3    s    0.238663 *  0.589601 *  0.166355 *  -3.33043    1.000000    
    204 O2    s    0.353265 *  0.763858 *  0.829494 *  -2.87073    1.000000    
    205 O2    s    0.121065 *  0.216616 *  0.966080 *  -2.87073    1.000000    
    206 O2    s    0.784078 *  0.904756 *  0.302694 *  -2.87073    1.000000    
    207 O2    s    0.095370 *  0.875564 *  0.633311 *  -2.87073    1.000000    
    208 O2    s    0.877849 *  0.783397 *  0.468014 *  -2.87073    1.000000    
    209 O2    s    0.220381 *  0.092809 *  0.803792 *  -2.87073    1.000000    
    210 O2    s    0.897249 *  0.121290 *  0.132678 *  -2.87073    1.000000    
    211 O2    s    0.217013 *  0.120167 *  0.361378 *  -2.87073    1.000000    
    212 O2    s    0.905643 *  0.792158 *  0.026330 *  -2.87073    1.000000    
    213 O3    s    0.865661 *  0.093443 *  0.691791 *  -3.33043    1.000000    
    214 O2    s    0.783235 *  0.875091 *  0.860306 *  -2.87073    1.000000    
    215 O2    s    0.092616 *  0.214162 *  0.529666 *  -2.87073    1.000000    
    216 O2    s    0.117047 *  0.899452 *  0.195549 *  -2.87073    1.000000    
    217 O2    s    0.925117 *  0.857684 *  0.247557 *  -2.87073    1.000000    
    218 O2    s    0.144288 *  0.067259 *  0.579572 *  -2.87073    1.000000    
    219 O2    s    0.926474 *  0.062116 *  0.914872 *  -2.87073    1.000000    
    220 O3    s    0.069366 *  0.126621 *  0.750284 *  -3.33043    1.000000    
    221 O2    s    0.853216 *  0.927020 *  0.082002 *  -2.87073    1.000000    
    222 O2    s    0.069551 *  0.927817 *  0.414313 *  -2.87073    1.000000    
    223 O2    s    0.908235 *  0.204383 *  0.976889 *  -2.87073    1.000000    
    224 O2    s    0.794763 *  0.703137 *  0.313731 *  -2.87073    1.000000    
    225 O2    s    0.293619 *  0.093208 *  0.648449 *  -2.87073    1.000000    
    226 O2    s    0.089718 *  0.793223 *  0.479754 *  -2.87073    1.000000    
    227 O2    s    0.206865 *  0.293247 *  0.812006 *  -2.87073    1.000000    
    228 O2    s    0.702790 *  0.908326 *  0.148832 *  -2.87073    1.000000    
    229 O2    s    0.205070 *  0.906996 *  0.349944 *  -2.87073    1.000000    
    230 O2    s    0.700908 *  0.797446 *  0.014624 *  -2.87073    1.000000    
    231 O3    s    0.097497 *  0.308308 *  0.683819 *  -3.33043    1.000000    
    232 O2    s    0.798232 *  0.089443 *  0.847991 *  -2.87073    1.000000    
    233 O2    s    0.296120 *  0.207306 *  0.515223 *  -2.87073    1.000000    
    234 O2    s    0.895656 *  0.707776 *  0.178982 *  -2.87073    1.000000    
    235 O2    s    0.328032 *  0.654913 *  0.249350 *  -2.87073    1.000000    
    236 O2    s    0.343961 *  0.672587 *  0.580277 *  -2.87073    1.000000    
    237 O2    s    0.325384 *  0.670205 *  0.911519 *  -2.87073    1.000000    
    238 O2    s    0.673572 *  0.345771 *  0.749178 *  -2.87073    1.000000    
    239 O3    s    0.627469 *  0.308233 *  0.086497 *  -3.33043    1.000000    
    240 O2    s    0.673273 *  0.330559 *  0.415555 *  -2.87073    1.000000    
    241 O2    s    0.373193 *  0.341631 *  0.964491 *  -2.87073    1.000000    
    242 O2    s    0.660759 *  0.036230 *  0.302219 *  -2.87073    1.000000    
    243 O2    s    0.961976 *  0.622324 *  0.632442 *  -2.87073    1.000000    
    244 O2    s    0.622581 *  0.660069 *  0.466221 *  -2.87073    1.000000    
    245 O2    s    0.342222 *  0.962314 *  0.800108 *  -2.87073    1.000000    
    246 O3    s    0.027739 *  0.371161 *  0.129191 *  -3.33043    1.000000    
    247 O2    s    0.339449 *  0.375161 *  0.362542 *  -2.87073    1.000000    
    248 O2    s    0.025932 *  0.656749 *  0.025377 *  -2.87073    1.000000    
    249 O2    s    0.617734 *  0.965309 *  0.695680 *  -2.87073    1.000000    
    250 O2    s    0.660314 *  0.621594 *  0.862793 *  -2.87073    1.000000    
    251 O2    s    0.961208 *  0.337475 *  0.530768 *  -2.87073    1.000000    
    252 O2    s    0.373270 *  0.030528 *  0.198283 *  -2.87073    1.000000    
    253 O3    s    0.766378 *  0.293365 *  0.005505 *  -3.33043    1.000000    
    254 O2    s    0.690002 *  0.466326 *  0.345521 *  -2.87073    1.000000    
    255 O2    s    0.531166 *  0.225564 *  0.679925 *  -2.87073    1.000000    
    256 O2    s    0.219994 *  0.684982 *  0.510923 *  -2.87073    1.000000    
    257 O2    s    0.311875 *  0.531983 *  0.842116 *  -2.87073    1.000000    
    258 O2    s    0.466908 *  0.778214 *  0.180011 *  -2.87073    1.000000    
    259 O2    s    0.309784 *  0.774362 *  0.318741 *  -2.87073    1.000000    
    260 O2    s    0.461999 *  0.690091 *  0.982059 *  -2.87073    1.000000    
    261 O2    s    0.224986 *  0.537161 *  0.650087 *  -2.87073    1.000000    
    262 O2    s    0.693409 *  0.223138 *  0.817623 *  -2.87073    1.000000    
    263 O2    s    0.533762 *  0.312409 *  0.484288 *  -2.87073    1.000000    
    264 O2    s    0.763167 *  0.466316 *  0.147873 *  -2.87073    1.000000    
    265 O3    s    0.780620 *  0.547499 *  0.022850 *  -3.33043    1.000000    
    266 O2    s    0.468473 *  0.257446 *  0.362305 *  -2.87073    1.000000    
    267 O2    s    0.740084 *  0.214263 *  0.695171 *  -2.87073    1.000000    
    268 O2    s    0.209127 *  0.464901 *  0.529844 *  -2.87073    1.000000    
    269 O2    s    0.532750 *  0.741238 *  0.860260 *  -2.87073    1.000000    
    270 O2    s    0.251724 *  0.783518 *  0.196103 *  -2.87073    1.000000    
    271 O2    s    0.532365 *  0.789972 *  0.302221 *  -2.87073    1.000000    
    272 O2    s    0.253093 *  0.468190 *  0.964852 *  -2.87073    1.000000    
    273 O2    s    0.210379 *  0.742316 *  0.632529 *  -2.87073    1.000000    
    274 O2    s    0.471539 *  0.209523 *  0.802066 *  -2.87073    1.000000    
    275 O2    s    0.742351 *  0.533089 *  0.467914 *  -2.87073    1.000000    
    276 O2    s    0.785142 *  0.262789 *  0.132460 *  -2.87073    1.000000    
    277 O2    s    0.238158 *  0.333307 *  0.894710 *  -2.87073    1.000000    
    278 O2    s    0.668147 *  0.909989 *  0.232268 *  -2.87073    1.000000    
    279 O2    s    0.090053 *  0.756006 *  0.562431 *  -2.87073    1.000000    
    280 O2    s    0.759247 *  0.666736 *  0.397029 *  -2.87073    1.000000    
    281 O2    s    0.331861 *  0.092667 *  0.731770 *  -2.87073    1.000000    
    282 O2    s    0.895614 *  0.240059 *  0.061139 *  -2.87073    1.000000    
    283 O2    s    0.332560 *  0.241483 *  0.432197 *  -2.87073    1.000000    
    284 O2    s    0.896081 *  0.661866 *  0.095346 *  -2.87073    1.000000    
    285 O2    s    0.762059 *  0.095829 *  0.764726 *  -2.87073    1.000000    
    286 O2    s    0.665519 *  0.757887 *  0.931595 *  -2.87073    1.000000    
    287 O2    s    0.089028 *  0.330668 *  0.600746 *  -2.87073    1.000000    
    288 O2    s    0.237981 *  0.902490 *  0.267002 *  -2.87073    1.000000    
    289 O2    s    0.577167 *  0.560123 *  0.985145 *  -2.87073    1.000000    
    290 O2    s    0.440872 *  0.020428 *  0.320496 *  -2.87073    1.000000    
    291 O2    s    0.975972 *  0.419679 *  0.652785 *  -2.87073    1.000000    
    292 O2    s    0.416926 *  0.441642 *  0.484848 *  -2.87073    1.000000    
    293 O2    s    0.562030 *  0.975282 *  0.816991 *  -2.87073    1.000000    
    294 O3    s    0.006541 *  0.584644 *  0.150331 *  -3.33043    1.000000    
    295 O2    s    0.558716 *  0.581728 *  0.343948 *  -2.87073    1.000000    
    296 O2    s    0.011413 *  0.439863 *  0.008879 *  -2.87073    1.000000    
    297 O2    s    0.411715 *  0.976889 *  0.677724 *  -2.87073    1.000000    
    298 O2    s    0.442109 *  0.415038 *  0.843911 *  -2.87073    1.000000    
    299 O2    s    0.973847 *  0.555898 *  0.510664 *  -2.87073    1.000000    
    300 O2    s    0.583848 *  0.024549 *  0.179830 *  -2.87073    1.000000    
    301 O2    s    0.575470 *  0.150996 *  0.251196 *  -2.87073    1.000000    
    302 O2    s    0.843355 *  0.420523 *  0.582058 *  -2.87073    1.000000    
    303 O2    s    0.578459 *  0.425101 *  0.915172 *  -2.87073    1.000000    
    304 O2    s    0.418999 *  0.844561 *  0.746880 *  -2.87073    1.000000    
    305 O3    s    0.149234 *  0.584819 *  0.075523 *  -3.33043    1.000000    
    306 O2    s    0.421696 *  0.575927 *  0.414411 *  -2.87073    1.000000    
    307 F     s    0.447764 *  0.898701 *  0.248310 *  -1.56000    1.000000    
    308 F     s    0.094993 *  0.545045 *  0.580898 *  -1.56000    1.000000    
    309 F     s    0.446946 *  0.550650 *  0.912333 *  -1.56000    1.000000    
    310 F     s    0.548310 *  0.097393 *  0.747593 *  -1.56000    1.000000    
    311 F     s    0.845244 *  0.432950 *  0.068489 *  -1.56000    1.000000    
    312 F     s    0.547998 *  0.452295 *  0.413916 *  -1.56000    1.000000    
--------------------------------------------------------------------------------



********************************************************************************
*  General input information                                                   *
********************************************************************************

  Species output for all configurations : 

--------------------------------------------------------------------------------
  Species    Type    Atomic    Atomic    Charge       Radii (Angs)     Library
                     Number     Mass       (e)     Cova   Ionic  VDW   Symbol
--------------------------------------------------------------------------------
    Si       Core       14      28.09   4.000000   1.200  0.000  2.100          
    O1       Core        8      16.00   1.733957   0.730  0.000  1.360          
    O1       Shell       8       0.00  -3.733957   0.730  0.000  1.360          
    O2       Core        8      16.00   0.870733   0.730  0.000  1.360          
    O2       Shell       8       0.00  -2.870733   0.730  0.000  1.360          
    O3       Core        8      16.00   1.330431   0.730  0.000  1.360          
    O3       Shell       8       0.00  -3.330431   0.730  0.000  1.360          
    F        Core        9      19.00   0.560000   0.710  0.000  1.300          
    F        Shell       9       0.00  -1.560000   0.710  0.000  1.300          
    Ge       Core       32      72.61   4.000000   1.170  0.000  1.750          
--------------------------------------------------------------------------------


  Lattice summation method               =    Ewald          (3-D)
                                         =    Parry          (2-D)
                                         =    Saunders et al (1-D)
  Accuracy factor for lattice sums       =   12.000


  Time limit = Infinity

  Maximum range for interatomic potentials =        16.000000 Angstroms

  Taper potentials to zero over   1.0000 Angstroms using polynomial

  General interatomic potentials :

--------------------------------------------------------------------------------
Atom  Types   Potential         A         B         C         D     Cutoffs(Ang)
  1     2                                                            Min    Max 
--------------------------------------------------------------------------------
Si   c O1   s Buckingham    0.132E+04 0.318      10.1      0.00     0.000 16.000
Si   c O2   s Buckingham    0.132E+04 0.318      10.1      0.00     0.000 16.000
Si   c O3   s Buckingham    0.132E+04 0.318      10.1      0.00     0.000 16.000
Ge   c O1   s Buckingham    0.150E+04 0.326      16.8      0.00     0.000 16.000
Ge   c O2   s Buckingham    0.150E+04 0.326      16.8      0.00     0.000 16.000
Ge   c O3   s Buckingham    0.150E+04 0.326      16.8      0.00     0.000 16.000
O1   s O1   s Buckingham    0.228E+05 0.149      10.9      0.00     0.000 16.000
O1   s O2   s Buckingham    0.228E+05 0.149      10.9      0.00     0.000 16.000
O1   s O3   s Buckingham    0.228E+05 0.149      10.9      0.00     0.000 16.000
O2   s O2   s Buckingham    0.228E+05 0.149      10.9      0.00     0.000 16.000
O2   s O3   s Buckingham    0.228E+05 0.149      10.9      0.00     0.000 16.000
O3   s O3   s Buckingham    0.228E+05 0.149      10.9      0.00     0.000 16.000
Si   c F    s Buckingham     977.     0.282      0.00      0.00     0.000 16.000
Ge   c F    s Buckingham     681.     0.320      0.00      0.00     0.000 16.000
F    s F    s Buckingham     540.     0.262      0.00      0.00     0.000 16.000
O1   s F    s Buckingham    0.168E+04 0.268      0.00      0.00     0.000 16.000
O2   s F    s Buckingham    0.168E+04 0.268      0.00      0.00     0.000 16.000
O3   s F    s Buckingham    0.168E+04 0.268      0.00      0.00     0.000 16.000
O2   c O2   s Spring (c-s)   76.0      0.00      0.00      0.00     0.000  0.800
O3   c O3   s Spring (c-s)   128.      0.00      0.00      0.00     0.000  0.800
O1   c O1   s Spring (c-s)   180.      0.00      0.00      0.00     0.000  0.800
F    c F    s Spring (c-s)   33.5      0.00      0.00      0.00     0.000  0.800
--------------------------------------------------------------------------------

  General Three-body potentials :

  Harmonic form:

--------------------------------------------------------------------------------
Atom    Atom    Atom           Force Constants            Theta     Cutoffs  
  1       2       3     (eVrad**-2/eVrad**-3/eVrad**-4)   (deg)  1-2  1-3  2-3
--------------------------------------------------------------------------------
Si    c O1    s O1    s  1.261        0.0000    0.0000   109.470 0.00 0.00 0.00
                                                                 1.90 1.90 3.50
Si    c O1    s O2    s  1.261        0.0000    0.0000   109.470 0.00 0.00 0.00
                                                                 1.90 1.90 3.50
Si    c O2    s O2    s  1.261        0.0000    0.0000   109.470 0.00 0.00 0.00
                                                                 1.90 1.90 3.50
--------------------------------------------------------------------------------

********************************************************************************
*  Output for configuration   1                                                *
********************************************************************************


  Components of energy : 

--------------------------------------------------------------------------------
  Interatomic potentials     =        2061.00418565 eV
  Three-body potentials      =           0.42617229 eV
  Monopole - monopole (real) =       -6610.50555792 eV
  Monopole - monopole (recip)=       -3170.60048294 eV
  Monopole - monopole (total)=       -9781.10604087 eV
  Neutralising energy        =          -6.45850276 eV
--------------------------------------------------------------------------------
  Total lattice energy       =       -7726.13418569 eV
--------------------------------------------------------------------------------
  Total lattice energy       =         -745453.8441 kJ/(mole unit cells)
--------------------------------------------------------------------------------


  Number of variables =      939

  Maximum number of calculations  =          5000
  Maximum Hessian update interval =            10
  Maximum step size               =   0.100000000
  Maximum parameter tolerance     =   0.000010000
  Maximum function  tolerance     =   0.000010000
  Maximum gradient  tolerance     =   0.001000000
  Maximum gradient  component     =   0.010000000

  Symmetry not applied to optimisation

  Cell parameters to be optimised using strains

  Newton-Raphson optimiser to be used

  BFGS hessian update to be used

  Dumpfile to be written after every cycle

  Start of bulk optimisation :

  Cycle:      0 Energy:     -7726.134186  Gnorm:      0.005206  CPU:    2.044
  ** Hessian calculated **
  Cycle:      1 Energy:     -7726.154250  Gnorm:      0.004591  CPU:    6.670
  Cycle:      2 Energy:     -7726.177946  Gnorm:      0.003734  CPU:   10.912
  Cycle:      3 Energy:     -7726.203248  Gnorm:      0.002617  CPU:   15.160
  Cycle:      4 Energy:     -7726.217030  Gnorm:      0.001758  CPU:   19.410
  Cycle:      5 Energy:     -7726.220318  Gnorm:      0.001086  CPU:   23.658
  Cycle:      6 Energy:     -7726.221134  Gnorm:      0.000606  CPU:   27.908
  Cycle:      7 Energy:     -7726.221339  Gnorm:      0.000321  CPU:   32.150
  Cycle:      8 Energy:     -7726.221384  Gnorm:      0.000197  CPU:   35.699
  Cycle:      9 Energy:     -7726.221396  Gnorm:      0.000139  CPU:   38.569
  Cycle:     10 Energy:     -7726.221403  Gnorm:      0.000098  CPU:   41.428
  ** Hessian calculated **
  Cycle:     11 Energy:     -7726.221403  Gnorm:      0.000054  CPU:   45.972
  Cycle:     12 Energy:     -7726.221403  Gnorm:      0.000038  CPU:   48.831
  Cycle:     13 Energy:     -7726.221403  Gnorm:      0.000029  CPU:   51.690


  **** Optimisation achieved ****


  Final energy =   -7726.22140263 eV
  Final Gnorm  =       0.00002387

  Components of energy : 

--------------------------------------------------------------------------------
  Interatomic potentials     =        2061.43091042 eV
  Three-body potentials      =           0.42968980 eV
  Monopole - monopole (real) =       -6611.76823353 eV
  Monopole - monopole (recip)=       -3169.85677622 eV
  Monopole - monopole (total)=       -9781.62500975 eV
  Neutralising energy        =          -6.45699309 eV
--------------------------------------------------------------------------------
  Total lattice energy       =       -7726.22140263 eV
--------------------------------------------------------------------------------
  Total lattice energy       =         -745462.2592 kJ/(mole unit cells)
--------------------------------------------------------------------------------

  Final fractional coordinates of atoms :

--------------------------------------------------------------------------------
   No.  Atomic        x           y          z          Radius
        Label       (Frac)      (Frac)     (Frac)       (Angs) 
--------------------------------------------------------------------------------
     1  Ge    c     0.699600    0.375700    0.033890    0.000000
     2  Si    c     0.600324    0.308832    0.364511    0.000000
     3  Si    c     0.657995    0.287507    0.697759    0.000000
     4  Si    c     0.275338    0.603528    0.529841    0.000000
     5  Si    c     0.364127    0.661811    0.861585    0.000000
     6  Si    c     0.304148    0.687715    0.199267    0.000000
     7  Si    c     0.356521    0.685095    0.299626    0.000000
     8  Si    c     0.307124    0.609349    0.961577    0.000000
     9  Si    c     0.280945    0.665061    0.629744    0.000000
    10  Si    c     0.609189    0.286046    0.798946    0.000000
    11  Si    c     0.656753    0.364343    0.465189    0.000000
    12  Si    c     0.666148    0.303883    0.131815    0.000000
    13  Si    c     0.520129    0.407914    0.966283    0.000000
    14  Si    c     0.560585    0.095921    0.300887    0.000000
    15  Si    c     0.867231    0.456068    0.632176    0.000000
    16  Si    c     0.447563    0.566181    0.464828    0.000000
    17  Si    c     0.402694    0.873241    0.797604    0.000000
    18  Ge    c     0.091023    0.523144    0.130869    0.000000
    19  Si    c     0.394761    0.511515    0.363227    0.000000
    20  Si    c     0.095475    0.576114    0.025731    0.000000
    21  Si    c     0.448851    0.875315    0.695702    0.000000
    22  Si    c     0.570930    0.458193    0.863638    0.000000
    23  Si    c     0.866731    0.400675    0.530746    0.000000
    24  Si    c     0.505534    0.094054    0.199169    0.000000
    25  Si    c     0.289321    0.385990    0.847600    0.000000
    26  Si    c     0.581447    0.890051    0.184120    0.000000
    27  Si    c     0.074193    0.680478    0.514667    0.000000
    28  Si    c     0.675959    0.584862    0.348958    0.000000
    29  Si    c     0.378706    0.084524    0.683619    0.000000
    30  Si    c     0.881139    0.286282    0.011002    0.000000
    31  Si    c     0.377300    0.286968    0.478742    0.000000
    32  Si    c     0.869979    0.590039    0.143815    0.000000
    33  Si    c     0.686066    0.084504    0.811678    0.000000
    34  Si    c     0.586204    0.688441    0.977737    0.000000
    35  Si    c     0.079703    0.388812    0.646795    0.000000
    36  Si    c     0.278191    0.884154    0.313586    0.000000
    37  Si    c     0.239800    0.330998    0.948050    0.000000
    38  Si    c     0.638624    0.896025    0.285102    0.000000
    39  Si    c     0.069717    0.733394    0.615188    0.000000
    40  Si    c     0.726976    0.643781    0.449700    0.000000
    41  Si    c     0.326834    0.075322    0.784646    0.000000
    42  Si    c     0.883890    0.236448    0.114137    0.000000
    43  Si    c     0.318158    0.234372    0.378132    0.000000
    44  Si    c     0.892442    0.657675    0.040745    0.000000
    45  Si    c     0.727901    0.078562    0.710502    0.000000
    46  Si    c     0.645312    0.735734    0.877160    0.000000
    47  Si    c     0.067331    0.322704    0.546610    0.000000
    48  Si    c     0.224863    0.889585    0.212695    0.000000
    49  Si    c     0.960665    0.112361    0.963438    0.000000
    50  Si    c     0.855171    0.832305    0.298265    0.000000
    51  Si    c     0.131357    0.011978    0.630350    0.000000
    52  Si    c     0.007663    0.862146    0.464581    0.000000
    53  Si    c     0.109149    0.134503    0.799036    0.000000
    54  Si    c     0.826934    0.959441    0.131712    0.000000
    55  Si    c     0.099965    0.953697    0.363651    0.000000
    56  Si    c     0.834059    0.874433    0.029967    0.000000
    57  Ge    c     0.010789    0.137508    0.696358    0.000000
    58  Si    c     0.864393    0.014258    0.863193    0.000000
    59  Si    c     0.130184    0.105956    0.529698    0.000000
    60  Si    c     0.945230    0.836574    0.196500    0.000000
    61  O2    c     0.916071    0.000247    0.000116    0.000000
    62  O2    c     0.979034    0.911908    0.330291    0.000000
    63  O3    c     0.044287    0.047707    0.659758    0.000000
    64  O2    c     0.049933    0.985222    0.496372    0.000000
    65  O2    c     0.988508    0.057885    0.832218    0.000000
    66  O2    c     0.913104    0.926061    0.165010    0.000000
    67  O2    c     0.317683    0.561188    0.331356    0.000000
    68  O2    c     0.403946    0.752250    0.662447    0.000000
    69  O2    c     0.219696    0.647857    0.992865    0.000000
    70  O2    c     0.648034    0.408279    0.831992    0.000000
    71  O2    c     0.554694    0.221894    0.168767    0.000000
    72  O2    c     0.739916    0.324757    0.498106    0.000000
    73  O3    c     0.563406    0.332979    0.998451    0.000000
    74  O2    c     0.742618    0.409877    0.664751    0.000000
    75  O2    c     0.638158    0.222174    0.332832    0.000000
    76  O2    c     0.397620    0.641518    0.496812    0.000000
    77  O3    c     0.221145    0.566312    0.166623    0.000000
    78  O2    c     0.326075    0.746851    0.829061    0.000000
    79  O2    c     0.115264    0.202151    0.967992    0.000000
    80  O2    c     0.765181    0.895760    0.304995    0.000000
    81  O2    c     0.071104    0.858723    0.635390    0.000000
    82  O2    c     0.852998    0.771023    0.469920    0.000000
    83  O2    c     0.201846    0.073976    0.806221    0.000000
    84  O2    c     0.883205    0.111982    0.135405    0.000000
    85  O2    c     0.191592    0.107389    0.357952    0.000000
    86  O2    c     0.907564    0.793860    0.025002    0.000000
    87  O3    c     0.847601    0.075114    0.688396    0.000000
    88  O2    c     0.772204    0.860897    0.856774    0.000000
    89  O2    c     0.065390    0.195633    0.526729    0.000000
    90  O2    c     0.098771    0.890269    0.192361    0.000000
    91  O2    c     0.904819    0.845877    0.247269    0.000000
    92  O2    c     0.123145    0.050809    0.579119    0.000000
    93  O2    c     0.914327    0.048699    0.914453    0.000000
    94  O3    c     0.052623    0.111129    0.748994    0.000000
    95  O2    c     0.837749    0.917480    0.081568    0.000000
    96  O2    c     0.046552    0.914231    0.413949    0.000000
    97  O2    c     0.894977    0.197928    0.972919    0.000000
    98  O2    c     0.773280    0.681055    0.310329    0.000000
    99  O2    c     0.281916    0.087420    0.645420    0.000000
   100  O2    c     0.075993    0.779156    0.476502    0.000000
   101  O2    c     0.191635    0.287606    0.808925    0.000000
   102  O2    c     0.676162    0.886845    0.145659    0.000000
   103  O2    c     0.181135    0.883616    0.351904    0.000000
   104  O2    c     0.683468    0.789443    0.015960    0.000000
   105  O3    c     0.087609    0.300289    0.685997    0.000000
   106  O2    c     0.784717    0.085355    0.850037    0.000000
   107  O2    c     0.281340    0.189914    0.517021    0.000000
   108  O2    c     0.865856    0.687399    0.181223    0.000000
   109  O2    c     0.301120    0.628063    0.249147    0.000000
   110  O2    c     0.336862    0.664787    0.579415    0.000000
   111  O2    c     0.304604    0.663643    0.911145    0.000000
   112  O2    c     0.662497    0.344158    0.748456    0.000000
   113  O3    c     0.604022    0.295232    0.083459    0.000000
   114  O2    c     0.658035    0.309187    0.414729    0.000000
   115  O2    c     0.361839    0.322800    0.966592    0.000000
   116  O2    c     0.648054    0.027499    0.303487    0.000000
   117  O2    c     0.937098    0.611999    0.633866    0.000000
   118  O2    c     0.604529    0.653823    0.467648    0.000000
   119  O2    c     0.316815    0.942846    0.801819    0.000000
   120  O3    c     0.016727    0.357004    0.130684    0.000000
   121  O2    c     0.307140    0.355473    0.359455    0.000000
   122  O2    c     0.024100    0.660617    0.024390    0.000000
   123  O2    c     0.604721    0.945776    0.692648    0.000000
   124  O2    c     0.656385    0.614183    0.859409    0.000000
   125  O2    c     0.934560    0.312819    0.527812    0.000000
   126  O2    c     0.348445    0.021930    0.194807    0.000000
   127  O3    c     0.749820    0.282808    0.001347    0.000000
   128  O2    c     0.675328    0.450914    0.341455    0.000000
   129  O2    c     0.512966    0.218924    0.675990    0.000000
   130  O2    c     0.206492    0.677115    0.506878    0.000000
   131  O2    c     0.289693    0.519170    0.838424    0.000000
   132  O2    c     0.446544    0.756783    0.176080    0.000000
   133  O2    c     0.279792    0.751723    0.321397    0.000000
   134  O2    c     0.450840    0.687561    0.984559    0.000000
   135  O2    c     0.214669    0.523389    0.652317    0.000000
   136  O2    c     0.685267    0.217395    0.819988    0.000000
   137  O2    c     0.512219    0.288753    0.486522    0.000000
   138  O2    c     0.737024    0.453926    0.149722    0.000000
   139  O3    c     0.766454    0.543291    0.019078    0.000000
   140  O2    c     0.443629    0.233185    0.358888    0.000000
   141  O2    c     0.731453    0.206349    0.691744    0.000000
   142  O2    c     0.194419    0.447145    0.526645    0.000000
   143  O2    c     0.520906    0.737929    0.856794    0.000000
   144  O2    c     0.222050    0.762581    0.192642    0.000000
   145  O2    c     0.513024    0.770084    0.304596    0.000000
   146  O2    c     0.233634    0.453865    0.967518    0.000000
   147  O2    c     0.197591    0.736689    0.634319    0.000000
   148  O2    c     0.453136    0.201794    0.804117    0.000000
   149  O2    c     0.728995    0.520016    0.469653    0.000000
   150  O2    c     0.763319    0.245388    0.134028    0.000000
   151  O2    c     0.217067    0.312679    0.893740    0.000000
   152  O2    c     0.655707    0.895067    0.230821    0.000000
   153  O2    c     0.070375    0.750902    0.560833    0.000000
   154  O2    c     0.746768    0.660199    0.395368    0.000000
   155  O2    c     0.305891    0.079547    0.730402    0.000000
   156  O2    c     0.879851    0.220577    0.059690    0.000000
   157  O2    c     0.301325    0.216097    0.432369    0.000000
   158  O2    c     0.883623    0.660437    0.096022    0.000000
   159  O2    c     0.755708    0.083318    0.764770    0.000000
   160  O2    c     0.662046    0.757017    0.931480    0.000000
   161  O2    c     0.069612    0.307182    0.601158    0.000000
   162  O2    c     0.206650    0.886935    0.267064    0.000000
   163  O2    c     0.570590    0.550601    0.987828    0.000000
   164  O2    c     0.418494    0.009078    0.322859    0.000000
   165  O2    c     0.953830    0.402245    0.655435    0.000000
   166  O2    c     0.391430    0.425622    0.487601    0.000000
   167  O2    c     0.546478    0.957913    0.819638    0.000000
   168  O3    c     0.990766    0.571906    0.153934    0.000000
   169  O2    c     0.535896    0.570063    0.339791    0.000000
   170  O2    c     0.004798    0.431368    0.007098    0.000000
   171  O2    c     0.389626    0.958509    0.673688    0.000000
   172  O2    c     0.429028    0.399322    0.840036    0.000000
   173  O2    c     0.948213    0.540403    0.506545    0.000000
   174  O2    c     0.567376    0.015187    0.175644    0.000000
   175  O2    c     0.557881    0.146249    0.250099    0.000000
   176  O2    c     0.813379    0.400756    0.581374    0.000000
   177  O2    c     0.572669    0.411315    0.914821    0.000000
   178  O2    c     0.397425    0.820715    0.746309    0.000000
   179  O3    c     0.144523    0.579920    0.076987    0.000000
   180  O2    c     0.394071    0.564487    0.413852    0.000000
   181  F     c     0.425010    0.882571    0.247380    0.000000
   182  F     c     0.075784    0.531109    0.580011    0.000000
   183  F     c     0.434219    0.540036    0.911797    0.000000
   184  F     c     0.532038    0.084160    0.746823    0.000000
   185  F     c     0.845908    0.430480    0.070902    0.000000
   186  F     c     0.525987    0.435803    0.413074    0.000000
   187  O2    s     0.911709    0.998511    0.999392    0.000000
   188  O2    s     0.978612    0.907597    0.330416    0.000000
   189  O3    s     0.050944    0.051553    0.659702    0.000000
   190  O2    s     0.054067    0.984813    0.496498    0.000000
   191  O2    s     0.987836    0.061481    0.832048    0.000000
   192  O2    s     0.907297    0.919901    0.164849    0.000000
   193  O2    s     0.329628    0.568981    0.331315    0.000000
   194  O2    s     0.395702    0.755800    0.662441    0.000000
   195  O2    s     0.215443    0.636479    0.993173    0.000000
   196  O2    s     0.636251    0.400738    0.831775    0.000000
   197  O2    s     0.561033    0.216915    0.168142    0.000000
   198  O2    s     0.744208    0.336596    0.498003    0.000000
   199  O3    s     0.568219    0.344224    0.997416    0.000000
   200  O2    s     0.746833    0.402229    0.664760    0.000000
   201  O2    s     0.626238    0.217842    0.332733    0.000000
   202  O2    s     0.390327    0.629770    0.496862    0.000000
   203  O3    s     0.218707    0.574655    0.166913    0.000000
   204  O2    s     0.337970    0.751351    0.829109    0.000000
   205  O2    s     0.111138    0.205508    0.965490    0.000000
   206  O2    s     0.761521    0.889094    0.302239    0.000000
   207  O2    s     0.077382    0.861686    0.632722    0.000000
   208  O2    s     0.856372    0.767502    0.467278    0.000000
   209  O2    s     0.205107    0.080479    0.803249    0.000000
   210  O2    s     0.877163    0.108399    0.132813    0.000000
   211  O2    s     0.194959    0.104204    0.360620    0.000000
   212  O2    s     0.898183    0.788471    0.027140    0.000000
   213  O3    s     0.849197    0.080703    0.691279    0.000000
   214  O2    s     0.768986    0.864395    0.859530    0.000000
   215  O2    s     0.072404    0.199177    0.529051    0.000000
   216  O2    s     0.095533    0.884493    0.194881    0.000000
   217  O2    s     0.903810    0.843315    0.247277    0.000000
   218  O2    s     0.124885    0.052873    0.579102    0.000000
   219  O2    s     0.913992    0.052071    0.914258    0.000000
   220  O3    s     0.054989    0.115975    0.749718    0.000000
   221  O2    s     0.836099    0.917545    0.081608    0.000000
   222  O2    s     0.048272    0.912878    0.413906    0.000000
   223  O2    s     0.900719    0.198022    0.975946    0.000000
   224  O2    s     0.772104    0.687341    0.312964    0.000000
   225  O2    s     0.275897    0.079150    0.647755    0.000000
   226  O2    s     0.068602    0.777931    0.479104    0.000000
   227  O2    s     0.192837    0.281500    0.811767    0.000000
   228  O2    s     0.682397    0.894885    0.148156    0.000000
   229  O2    s     0.182529    0.891107    0.349194    0.000000
   230  O2    s     0.689831    0.788402    0.013613    0.000000
   231  O3    s     0.080582    0.295547    0.683063    0.000000
   232  O2    s     0.783063    0.077767    0.847511    0.000000
   233  O2    s     0.275174    0.191075    0.514368    0.000000
   234  O2    s     0.874700    0.693400    0.179050    0.000000
   235  O2    s     0.307137    0.640090    0.249218    0.000000
   236  O2    s     0.324887    0.658558    0.579474    0.000000
   237  O2    s     0.310893    0.657864    0.911295    0.000000
   238  O2    s     0.656675    0.332545    0.748372    0.000000
   239  O3    s     0.616724    0.301314    0.085343    0.000000
   240  O2    s     0.651976    0.314788    0.414699    0.000000
   241  O2    s     0.364091    0.332192    0.964496    0.000000
   242  O2    s     0.638106    0.020754    0.301290    0.000000
   243  O2    s     0.943780    0.608597    0.631717    0.000000
   244  O2    s     0.601189    0.643739    0.465464    0.000000
   245  O2    s     0.326752    0.949661    0.799557    0.000000
   246  O3    s     0.009107    0.357963    0.129006    0.000000
   247  O2    s     0.317268    0.358890    0.361786    0.000000
   248  O2    s     0.018220    0.651637    0.026168    0.000000
   249  O2    s     0.601149    0.952374    0.694892    0.000000
   250  O2    s     0.646482    0.610967    0.861705    0.000000
   251  O2    s     0.941357    0.322848    0.530068    0.000000
   252  O2    s     0.351627    0.015478    0.197127    0.000000
   253  O3    s     0.760569    0.289441    0.004628    0.000000
   254  O2    s     0.667727    0.450341    0.344622    0.000000
   255  O2    s     0.513854    0.211932    0.679069    0.000000
   256  O2    s     0.199635    0.669928    0.510070    0.000000
   257  O2    s     0.297251    0.519843    0.841773    0.000000
   258  O2    s     0.446245    0.763885    0.179357    0.000000
   259  O2    s     0.287493    0.758807    0.318307    0.000000
   260  O2    s     0.450060    0.679689    0.981494    0.000000
   261  O2    s     0.207304    0.523995    0.649309    0.000000
   262  O2    s     0.677558    0.210582    0.816930    0.000000
   263  O2    s     0.512883    0.296386    0.483455    0.000000
   264  O2    s     0.744158    0.453806    0.147343    0.000000
   265  O3    s     0.775947    0.544815    0.022363    0.000000
   266  O2    s     0.446393    0.241262    0.361511    0.000000
   267  O2    s     0.723229    0.201120    0.694371    0.000000
   268  O2    s     0.189099    0.450023    0.529094    0.000000
   269  O2    s     0.518071    0.729686    0.859469    0.000000
   270  O2    s     0.230310    0.768530    0.195303    0.000000
   271  O2    s     0.510284    0.774969    0.301986    0.000000
   272  O2    s     0.241919    0.457026    0.964895    0.000000
   273  O2    s     0.192281    0.728638    0.631756    0.000000
   274  O2    s     0.455842    0.196802    0.801472    0.000000
   275  O2    s     0.721118    0.517149    0.467046    0.000000
   276  O2    s     0.766613    0.250388    0.131670    0.000000
   277  O2    s     0.226983    0.322283    0.894605    0.000000
   278  O2    s     0.646074    0.894646    0.231672    0.000000
   279  O2    s     0.070690    0.741577    0.561704    0.000000
   280  O2    s     0.737251    0.650556    0.396212    0.000000
   281  O2    s     0.315636    0.079655    0.731156    0.000000
   282  O2    s     0.880365    0.228743    0.060643    0.000000
   283  O2    s     0.311075    0.225476    0.431433    0.000000
   284  O2    s     0.883009    0.652527    0.095655    0.000000
   285  O2    s     0.745765    0.083015    0.764092    0.000000
   286  O2    s     0.652351    0.747610    0.930572    0.000000
   287  O2    s     0.070320    0.316869    0.600053    0.000000
   288  O2    s     0.216040    0.886923    0.266161    0.000000
   289  O2    s     0.566986    0.551578    0.984521    0.000000
   290  O2    s     0.418365    0.004607    0.319535    0.000000
   291  O2    s     0.958385    0.406585    0.652075    0.000000
   292  O2    s     0.395995    0.425432    0.484230    0.000000
   293  O2    s     0.546512    0.962890    0.816471    0.000000
   294  O3    s     0.986604    0.569645    0.150994    0.000000
   295  O2    s     0.536257    0.565394    0.343211    0.000000
   296  O2    s     0.001674    0.432055    0.009535    0.000000
   297  O2    s     0.394779    0.963554    0.677059    0.000000
   298  O2    s     0.428740    0.404169    0.843296    0.000000
   299  O2    s     0.953528    0.541043    0.509920    0.000000
   300  O2    s     0.562346    0.009899    0.178968    0.000000
   301  O2    s     0.552645    0.135441    0.250098    0.000000
   302  O2    s     0.824433    0.406419    0.581353    0.000000
   303  O2    s     0.567284    0.416032    0.914447    0.000000
   304  O2    s     0.403308    0.831825    0.746332    0.000000
   305  O3    s     0.135457    0.574954    0.076440    0.000000
   306  O2    s     0.399711    0.559123    0.413867    0.000000
   307  F     s     0.424353    0.881643    0.247171    0.000000
   308  F     s     0.076178    0.531169    0.579944    0.000000
   309  F     s     0.433527    0.540643    0.911658    0.000000
   310  F     s     0.532278    0.084536    0.746725    0.000000
   311  F     s     0.835789    0.426793    0.068440    0.000000
   312  F     s     0.526119    0.435593    0.412954    0.000000
--------------------------------------------------------------------------------

  Final Cartesian lattice vectors (Angstroms) :

       11.959867    0.002863   -0.005195
       -6.074200   10.387008    0.009001
       -0.169061   -0.140695   29.473863


  Final cell parameters and derivatives :

--------------------------------------------------------------------------------
       a           11.959869 Angstrom     dE/de1(xx)     0.000536 eV/strain
       b           12.032703 Angstrom     dE/de2(yy)     0.000302 eV/strain
       c           29.474683 Angstrom     dE/de3(zz)     0.001055 eV/strain
       alpha       90.027333 Degrees      dE/de4(yz)    -0.000014 eV/strain
       beta        90.353593 Degrees      dE/de5(xz)    -0.000002 eV/strain
       gamma      120.304887 Degrees      dE/de6(xy)     0.000323 eV/strain
--------------------------------------------------------------------------------

  Primitive cell volume =          3661.970740 Angs**3

  Density of cell =      1.747172 g/cm**3

  Non-primitive cell volume =          3661.970740 Angs**3


  Final internal derivatives :

--------------------------------------------------------------------------------
   No.  Atomic          a             b             c           Radius
        Label          (eV)          (eV)          (eV)        (eV/Angs)
--------------------------------------------------------------------------------
      1 Ge    c       0.000000      0.000000      0.000000      0.000000
      2 Si    c      -0.000043      0.000152      0.000415      0.000000
      3 Si    c      -0.000206      0.000104     -0.000027      0.000000
      4 Si    c       0.000360     -0.000022      0.000178      0.000000
      5 Si    c       0.000441     -0.000034      0.000495      0.000000
      6 Si    c       0.000320     -0.000170      0.000409      0.000000
      7 Si    c       0.000351      0.000345      0.000023      0.000000
      8 Si    c       0.000782     -0.000240     -0.000088      0.000000
      9 Si    c       0.000153     -0.000102      0.000192      0.000000
     10 Si    c      -0.000209      0.000072     -0.000270      0.000000
     11 Si    c      -0.000025     -0.000050      0.000164      0.000000
     12 Si    c       0.002248      0.000882      0.008889      0.000000
     13 Si    c      -0.000745     -0.000755      0.000054      0.000000
     14 Si    c      -0.000004      0.000153      0.000106      0.000000
     15 Si    c      -0.000260      0.000006      0.000016      0.000000
     16 Si    c       0.000203      0.000015      0.000166      0.000000
     17 Si    c       0.000217     -0.000123      0.000045      0.000000
     18 Ge    c       0.000769      0.000042      0.000553      0.000000
     19 Si    c       0.000232      0.000210      0.000455      0.000000
     20 Si    c       0.000410     -0.000156     -0.000754      0.000000
     21 Si    c       0.000099     -0.000231      0.000520      0.000000
     22 Si    c      -0.000283      0.000174      0.000144      0.000000
     23 Si    c      -0.000094      0.000214      0.000096      0.000000
     24 Si    c      -0.000111     -0.000608      0.001554      0.000000
     25 Si    c       0.000238      0.000164      0.000402      0.000000
     26 Si    c       0.000272      0.000074      0.000146      0.000000
     27 Si    c       0.000023      0.000137      0.000281      0.000000
     28 Si    c       0.000166      0.000321      0.000347      0.000000
     29 Si    c      -0.000173      0.000092      0.000271      0.000000
     30 Si    c       0.001802      0.000508     -0.001773      0.000000
     31 Si    c      -0.000020     -0.000134      0.000185      0.000000
     32 Si    c       0.000870      0.000443     -0.000313      0.000000
     33 Si    c       0.000126     -0.000242      0.000157      0.000000
     34 Si    c      -0.000127     -0.000000     -0.000604      0.000000
     35 Si    c       0.000055     -0.000174     -0.000074      0.000000
     36 Si    c       0.000113      0.000372     -0.000078      0.000000
     37 Si    c       0.000045      0.000081     -0.000102      0.000000
     38 Si    c       0.000064      0.000129     -0.000193      0.000000
     39 Si    c      -0.000163     -0.000032     -0.000237      0.000000
     40 Si    c       0.000149      0.000061     -0.000015      0.000000
     41 Si    c      -0.000109      0.000243     -0.000118      0.000000
     42 Si    c       0.001393     -0.000126     -0.000326      0.000000
     43 Si    c       0.000136      0.000093      0.000510      0.000000
     44 Si    c       0.000463     -0.000717     -0.003279      0.000000
     45 Si    c      -0.000022     -0.000336      0.000307      0.000000
     46 Si    c      -0.000092      0.000250      0.000357      0.000000
     47 Si    c       0.000218      0.000055      0.000356      0.000000
     48 Si    c       0.000314      0.000262      0.000528      0.000000
     49 Si    c      -0.000074      0.000171      0.000030      0.000000
     50 Si    c       0.000374      0.000154     -0.000135      0.000000
     51 Si    c       0.000012      0.000122      0.000123      0.000000
     52 Si    c       0.000074      0.000052     -0.000040      0.000000
     53 Si    c       0.000055      0.000179      0.000110      0.000000
     54 Si    c      -0.000137      0.000259      0.000645      0.000000
     55 Si    c       0.000082      0.000140      0.000306      0.000000
     56 Si    c      -0.000344      0.000543     -0.000466      0.000000
     57 Ge    c      -0.000102     -0.000059      0.000094      0.000000
     58 Si    c      -0.000073      0.000284     -0.000208      0.000000
     59 Si    c       0.000088      0.000089      0.000399      0.000000
     60 Si    c       0.000477     -0.000049      0.000752      0.000000
     61 O2    c      -0.000125      0.000056     -0.000028      0.000000
     62 O2    c       0.000161      0.000092      0.000036      0.000000
     63 O3    c       0.000209     -0.000054      0.000281      0.000000
     64 O2    c       0.000002     -0.000094      0.000253      0.000000
     65 O2    c       0.000171      0.000292      0.000223      0.000000
     66 O2    c       0.000168     -0.000138      0.000917      0.000000
     67 O2    c       0.000277      0.000349     -0.000140      0.000000
     68 O2    c      -0.000177     -0.000154      0.000347      0.000000
     69 O2    c       0.000957      0.000039      0.000600      0.000000
     70 O2    c       0.000015      0.000086     -0.000188      0.000000
     71 O2    c      -0.000459     -0.000468      0.002678      0.000000
     72 O2    c       0.000148      0.000180      0.000020      0.000000
     73 O3    c       0.000647     -0.001397      0.002759      0.000000
     74 O2    c      -0.000065     -0.000145     -0.000075      0.000000
     75 O2    c      -0.000053      0.000243     -0.000087      0.000000
     76 O2    c       0.000184     -0.000084      0.000204      0.000000
     77 O3    c       0.000899     -0.000441     -0.000507      0.000000
     78 O2    c       0.000312      0.000166     -0.000031      0.000000
     79 O2    c       0.000299      0.000031      0.000106      0.000000
     80 O2    c       0.000152      0.000226     -0.000010      0.000000
     81 O2    c      -0.000049     -0.000045     -0.000239      0.000000
     82 O2    c       0.000209     -0.000096     -0.000187      0.000000
     83 O2    c       0.000064      0.000178     -0.000295      0.000000
     84 O2    c       0.000254      0.000049      0.000463      0.000000
     85 O2    c       0.000192      0.000190      0.000373      0.000000
     86 O2    c       0.001768     -0.000549     -0.002000      0.000000
     87 O3    c      -0.000162     -0.000117      0.000694      0.000000
     88 O2    c      -0.000081      0.000249      0.000362      0.000000
     89 O2    c       0.000196      0.000200      0.000453      0.000000
     90 O2    c       0.000666      0.000102      0.000570      0.000000
     91 O2    c       0.000456      0.000109      0.000128      0.000000
     92 O2    c      -0.000066      0.000115      0.000455      0.000000
     93 O2    c      -0.000426      0.000150     -0.000579      0.000000
     94 O3    c      -0.000078     -0.000004      0.000813      0.000000
     95 O2    c      -0.000202      0.000514      0.001992      0.000000
     96 O2    c       0.000140      0.000096      0.000209      0.000000
     97 O2    c       0.000224     -0.000239     -0.001123      0.000000
     98 O2    c       0.000048      0.000193      0.000455      0.000000
     99 O2    c      -0.000110     -0.000119      0.000352      0.000000
    100 O2    c       0.000102      0.000082      0.000460      0.000000
    101 O2    c       0.000175      0.000231      0.000203      0.000000
    102 O2    c       0.000068      0.000142      0.000390      0.000000
    103 O2    c       0.000200      0.000267     -0.000314      0.000000
    104 O2    c      -0.000864      0.000067     -0.000287      0.000000
    105 O3    c      -0.000156     -0.000038     -0.000200      0.000000
    106 O2    c      -0.000005     -0.000048     -0.000096      0.000000
    107 O2    c      -0.000016     -0.000017     -0.000206      0.000000
    108 O2    c       0.000585     -0.000065      0.001330      0.000000
    109 O2    c       0.000180      0.000341      0.000191      0.000000
    110 O2    c      -0.000023     -0.000060      0.000422      0.000000
    111 O2    c       0.000755     -0.000146     -0.000299      0.000000
    112 O2    c      -0.000121     -0.000102      0.000011      0.000000
    113 O3    c      -0.001861     -0.001486      0.006348      0.000000
    114 O2    c      -0.000106      0.000059      0.000106      0.000000
    115 O2    c      -0.000386      0.000018     -0.000157      0.000000
    116 O2    c       0.000069      0.000280     -0.000048      0.000000
    117 O2    c       0.000003      0.000036     -0.000183      0.000000
    118 O2    c       0.000141     -0.000115      0.000014      0.000000
    119 O2    c       0.000039      0.000103      0.000046      0.000000
    120 O3    c       0.000903     -0.000369      0.000598      0.000000
    121 O2    c       0.000201      0.000235      0.000321      0.000000
    122 O2    c       0.001430      0.000684     -0.000781      0.000000
    123 O2    c      -0.000112     -0.000163      0.000263      0.000000
    124 O2    c       0.000056      0.000084      0.000158      0.000000
    125 O2    c       0.000245      0.000090      0.000136      0.000000
    126 O2    c       0.000426      0.000173      0.000428      0.000000
    127 O3    c       0.000599     -0.000678     -0.001750      0.000000
    128 O2    c      -0.000023      0.000158      0.000380      0.000000
    129 O2    c      -0.000116     -0.000094      0.000319      0.000000
    130 O2    c       0.000129      0.000064      0.000319      0.000000
    131 O2    c       0.000287      0.000270      0.000480      0.000000
    132 O2    c       0.000369      0.000139      0.000647      0.000000
    133 O2    c       0.000292      0.000347      0.000104      0.000000
    134 O2    c       0.000834     -0.000427      0.000052      0.000000
    135 O2    c      -0.000124     -0.000161     -0.000132      0.000000
    136 O2    c       0.000025     -0.000084     -0.000093      0.000000
    137 O2    c       0.000162      0.000023     -0.000234      0.000000
    138 O2    c       0.000263      0.000408      0.001612      0.000000
    139 O3    c      -0.000669     -0.000797     -0.000907      0.000000
    140 O2    c       0.000121      0.000185      0.000307      0.000000
    141 O2    c      -0.000148     -0.000337      0.000144      0.000000
    142 O2    c       0.000076      0.000025      0.000356      0.000000
    143 O2    c       0.000341     -0.000095      0.000657      0.000000
    144 O2    c       0.000620      0.000313      0.000629      0.000000
    145 O2    c       0.000259      0.000149      0.000019      0.000000
    146 O2    c       0.000343     -0.000154     -0.000094      0.000000
    147 O2    c      -0.000141      0.000009     -0.000096      0.000000
    148 O2    c      -0.000017      0.000042     -0.000344      0.000000
    149 O2    c       0.000019     -0.000079      0.000013      0.000000
    150 O2    c       0.000988     -0.000848      0.000668      0.000000
    151 O2    c       0.000116      0.000040      0.000397      0.000000
    152 O2    c       0.000165      0.000189      0.000288      0.000000
    153 O2    c       0.000037      0.000054      0.000300      0.000000
    154 O2    c      -0.000006      0.000001      0.000402      0.000000
    155 O2    c      -0.000003      0.000007      0.000436      0.000000
    156 O2    c       0.001130     -0.000577      0.002109      0.000000
    157 O2    c       0.000175      0.000111     -0.000036      0.000000
    158 O2    c       0.000876      0.001366      0.002243      0.000000
    159 O2    c      -0.000089     -0.000095     -0.000071      0.000000
    160 O2    c       0.000068     -0.000015     -0.000036      0.000000
    161 O2    c       0.000040     -0.000020      0.000074      0.000000
    162 O2    c       0.000281      0.000187     -0.000183      0.000000
    163 O2    c       0.000338     -0.000375     -0.000336      0.000000
    164 O2    c       0.000148      0.000290     -0.000251      0.000000
    165 O2    c      -0.000075     -0.000119     -0.000112      0.000000
    166 O2    c       0.000105      0.000055     -0.000003      0.000000
    167 O2    c       0.000150     -0.000050     -0.000189      0.000000
    168 O3    c       0.001612      0.000000      0.001016      0.000000
    169 O2    c       0.000122      0.000088      0.000548      0.000000
    170 O2    c       0.001631      0.000424     -0.001335      0.000000
    171 O2    c      -0.000025     -0.000141      0.000158      0.000000
    172 O2    c       0.000168      0.000254      0.000060      0.000000
    173 O2    c       0.000139      0.000149      0.000258      0.000000
    174 O2    c       0.000419      0.000005      0.000030      0.000000
    175 O2    c       0.000343      0.000091      0.000067      0.000000
    176 O2    c       0.000069      0.000145      0.000037      0.000000
    177 O2    c      -0.000105      0.000012     -0.001325      0.000000
    178 O2    c       0.000046     -0.000051      0.000381      0.000000
    179 O3    c       0.001347      0.000077     -0.000918      0.000000
    180 O2    c       0.000243      0.000059      0.000209      0.000000
    181 F     c       0.000264      0.000243      0.000219      0.000000
    182 F     c       0.000031      0.000090      0.000114      0.000000
    183 F     c       0.000318     -0.000075      0.000056      0.000000
    184 F     c      -0.000085     -0.000107      0.000098      0.000000
    185 F     c      -0.000298      0.000893     -0.002760      0.000000
    186 F     c       0.000070      0.000027      0.000141      0.000000
    187 O2    s       0.001001     -0.000850     -0.000764      0.000000
    188 O2    s       0.000074      0.000364      0.000335      0.000000
    189 O3    s       0.000172     -0.000018     -0.000314      0.000000
    190 O2    s       0.000040     -0.000098      0.000019      0.000000
    191 O2    s       0.000236      0.000339      0.000212      0.000000
    192 O2    s       0.000379     -0.000413      0.000965      0.000000
    193 O2    s       0.000363      0.000480      0.000118      0.000000
    194 O2    s      -0.000510      0.000000      0.000049      0.000000
    195 O2    s       0.000634      0.000170     -0.000042      0.000000
    196 O2    s       0.000079     -0.000011     -0.000171      0.000000
    197 O2    s       0.000975     -0.000149      0.005354      0.000000
    198 O2    s       0.000167      0.000029      0.000157      0.000000
    199 O3    s       0.001599     -0.000376      0.001139      0.000000
    200 O2    s       0.000185     -0.000470     -0.000025      0.000000
    201 O2    s      -0.000047      0.000188     -0.000074      0.000000
    202 O2    s       0.000176      0.000087      0.000292      0.000000
    203 O3    s       0.000814     -0.000329      0.000950      0.000000
    204 O2    s       0.000212      0.000348      0.000292      0.000000
    205 O2    s       0.000733     -0.000555     -0.000518      0.000000
    206 O2    s       0.000179      0.000230     -0.000577      0.000000
    207 O2    s       0.000114     -0.000140     -0.000161      0.000000
    208 O2    s       0.000191     -0.000064     -0.000260      0.000000
    209 O2    s       0.000118      0.000055     -0.000165      0.000000
    210 O2    s       0.000945      0.000069      0.001842      0.000000
    211 O2    s       0.000193      0.000185      0.000788      0.000000
    212 O2    s       0.001599     -0.000526     -0.003753      0.000000
    213 O3    s      -0.000209     -0.000070      0.000212      0.000000
    214 O2    s       0.000499     -0.000039      0.000873      0.000000
    215 O2    s       0.000214      0.000155      0.000218      0.000000
    216 O2    s       0.000484      0.000292      0.000784      0.000000
    217 O2    s       0.000418      0.000453      0.000175      0.000000
    218 O2    s       0.000078      0.000154      0.000174      0.000000
    219 O2    s       0.000072     -0.000427     -0.000627      0.000000
    220 O3    s      -0.000341      0.000164      0.000911      0.000000
    221 O2    s       0.000969     -0.000543      0.001763      0.000000
    222 O2    s       0.000227      0.000196      0.000258      0.000000
    223 O2    s       0.000308      0.000626     -0.002112      0.000000
    224 O2    s       0.000068      0.000275      0.000673      0.000000
    225 O2    s       0.000067     -0.000330      0.000231      0.000000
    226 O2    s       0.000227      0.000073      0.000354      0.000000
    227 O2    s       0.000069      0.000203      0.000168      0.000000
    228 O2    s       0.000224     -0.000272      0.002068      0.000000
    229 O2    s       0.000243      0.000281     -0.000218      0.000000
    230 O2    s      -0.000045     -0.000932     -0.001187      0.000000
    231 O3    s      -0.000452      0.000097     -0.000523      0.000000
    232 O2    s      -0.000047      0.000107     -0.000648      0.000000
    233 O2    s       0.000134     -0.000134     -0.000218      0.000000
    234 O2    s       0.000857      0.000164      0.001806      0.000000
    235 O2    s       0.000323      0.000548     -0.000254      0.000000
    236 O2    s      -0.000292      0.000238      0.000136      0.000000
    237 O2    s       0.000516      0.000476     -0.000478      0.000000
    238 O2    s       0.000145     -0.000479     -0.000136      0.000000
    239 O3    s      -0.000085      0.001554      0.001214      0.000000
    240 O2    s      -0.000167      0.000030      0.000181      0.000000
    241 O2    s      -0.000079     -0.000642     -0.000182      0.000000
    242 O2    s       0.000061      0.000266     -0.000046      0.000000
    243 O2    s       0.000231     -0.000279     -0.000224      0.000000
    244 O2    s       0.000185     -0.000094     -0.000191      0.000000
    245 O2    s       0.000154      0.000037     -0.000387      0.000000
    246 O3    s       0.000371      0.000066      0.001786      0.000000
    247 O2    s       0.000348      0.000159      0.000626      0.000000
    248 O2    s       0.000970      0.000215     -0.002686      0.000000
    249 O2    s      -0.000302     -0.000021      0.000750      0.000000
    250 O2    s       0.000531     -0.000060      0.000349      0.000000
    251 O2    s       0.000111      0.000281      0.000699      0.000000
    252 O2    s       0.000663      0.000212      0.000654      0.000000
    253 O3    s       0.001336      0.000006     -0.002866      0.000000
    254 O2    s      -0.000008      0.000182      0.000692      0.000000
    255 O2    s       0.000177     -0.000440      0.000602      0.000000
    256 O2    s       0.000153      0.000062      0.001026      0.000000
    257 O2    s       0.000154      0.000335      0.000081      0.000000
    258 O2    s       0.000321      0.000129      0.001346      0.000000
    259 O2    s       0.000391      0.000320     -0.000169      0.000000
    260 O2    s       0.000439     -0.000274      0.000065      0.000000
    261 O2    s      -0.000510      0.000174     -0.000340      0.000000
    262 O2    s      -0.000164     -0.000007     -0.000575      0.000000
    263 O2    s       0.000049     -0.000090     -0.000266      0.000000
    264 O2    s       0.000611     -0.000894      0.003681      0.000000
    265 O3    s      -0.000521      0.000472     -0.002867      0.000000
    266 O2    s       0.000057      0.000305      0.000620      0.000000
    267 O2    s      -0.000301     -0.000197      0.000750      0.000000
    268 O2    s      -0.000074      0.000382      0.000748      0.000000
    269 O2    s       0.000230      0.000155      0.000104      0.000000
    270 O2    s       0.000790      0.000352      0.001446      0.000000
    271 O2    s       0.000234      0.000208      0.000207      0.000000
    272 O2    s       0.000268      0.000049     -0.000089      0.000000
    273 O2    s      -0.000059     -0.000149     -0.000190      0.000000
    274 O2    s       0.000247     -0.000253     -0.000233      0.000000
    275 O2    s       0.000032     -0.000048     -0.000451      0.000000
    276 O2    s       0.000678      0.000120      0.003599      0.000000
    277 O2    s       0.000269     -0.000159      0.000109      0.000000
    278 O2    s       0.000402      0.000083      0.000305      0.000000
    279 O2    s       0.000382     -0.000241      0.000347      0.000000
    280 O2    s       0.000014      0.000116      0.000325      0.000000
    281 O2    s       0.000300     -0.000299      0.000154      0.000000
    282 O2    s       0.001741     -0.000011      0.002152      0.000000
    283 O2    s       0.000305      0.000037      0.000104      0.000000
    284 O2    s       0.000745      0.001833      0.001942      0.000000
    285 O2    s      -0.000399      0.000084     -0.000150      0.000000
    286 O2    s       0.001086     -0.000714     -0.000033      0.000000
    287 O2    s      -0.000299      0.000338     -0.000180      0.000000
    288 O2    s       0.000624      0.000254     -0.000002      0.000000
    289 O2    s       0.001069     -0.000341      0.000005      0.000000
    290 O2    s       0.000246      0.000449     -0.000308      0.000000
    291 O2    s      -0.000123     -0.000091     -0.000479      0.000000
    292 O2    s       0.000260     -0.000040     -0.000391      0.000000
    293 O2    s      -0.000209      0.000320     -0.000427      0.000000
    294 O3    s       0.001422     -0.000449      0.002504      0.000000
    295 O2    s       0.000208      0.000264      0.000665      0.000000
    296 O2    s       0.001686      0.000513     -0.002338      0.000000
    297 O2    s      -0.000009     -0.000150      0.000937      0.000000
    298 O2    s       0.000246      0.000026      0.000118      0.000000
    299 O2    s       0.000442     -0.000065      0.000830      0.000000
    300 O2    s       0.000290      0.000180      0.001293      0.000000
    301 O2    s       0.000430      0.000019      0.000071      0.000000
    302 O2    s       0.000354     -0.000131      0.000016      0.000000
    303 O2    s       0.000405     -0.000559     -0.000951      0.000000
    304 O2    s      -0.000194      0.000177      0.000117      0.000000
    305 O3    s       0.001121      0.000173     -0.000089      0.000000
    306 O2    s       0.000414      0.000157      0.000268      0.000000
    307 F     s       0.000421      0.000482      0.000554      0.000000
    308 F     s      -0.000019      0.000083      0.000223      0.000000
    309 F     s       0.000502     -0.000165     -0.000062      0.000000
    310 F     s      -0.000099     -0.000155      0.000148      0.000000
    311 F     s      -0.000543      0.000155     -0.003376      0.000000
    312 F     s       0.000079      0.000009      0.000129      0.000000
--------------------------------------------------------------------------------
  Maximum abs         0.002248      0.001833      0.008889      0.000000
--------------------------------------------------------------------------------


  Time to end of optimisation =      54.5528 seconds


  Peak dynamic memory used =      19.13 MB 


  Timing analysis for GULP :

--------------------------------------------------------------------------------
  Task / Subroutine                                          Time (Seconds)
--------------------------------------------------------------------------------
  Calculation of reciprocal space energy and derivatives          1.4155
  Calculation of real space energy and derivatives               47.4654
  Calculation of three-body energy and derivatives                4.8077
  Calculation of matrix inversion                                 0.7520
  Global summation overhead                                       0.0001
--------------------------------------------------------------------------------
  Total CPU time                                                 54.5529
--------------------------------------------------------------------------------


  Dump file written as out.res                                                 
  CIF file written as out.cif                                                 


  Job Finished at 01:46.00  1st November   2016                               

