********************************************************************************
*                       GENERAL UTILITY LATTICE PROGRAM                        *
*                                 Julian Gale                                  *
*                      Nanochemistry Research Institute                        *
*                           Department of Chemistry                            *
*                    Curtin University, Western Australia                      *
********************************************************************************
* Version = 4.2.0 * Last modified =  20th January 2014                         *
********************************************************************************
*  optimise     - perform optimisation run                                     *
*  conp         - constant pressure calculation                                *
*  qok          - running with non charge neutral cell is OK                   *
********************************************************************************

  Job Started  at 12:12.07  4th November   2016                               

  Number of CPUs =     1


  Total number of configurations input =   1

********************************************************************************
*  Input for Configuration =   1                                               *
********************************************************************************

  Formula = Ge3Si57O120F6                                               

  Number of irreducible atoms/shells =     312


  Total number atoms/shells =     312

  Dimensionality = 3               :  Bulk   


  Charge on solid   =  -6.000000 =>neutralising background added


  Cartesian lattice vectors (Angstroms) :

       11.981123    0.000000    0.000000
       -6.063881   10.352153    0.000000
       -0.149583   -0.064219   29.516511

  Cell parameters (Angstroms/Degrees):

  a =      11.9811    alpha =  89.9608
  b =      11.9974    beta  =  90.2904
  c =      29.5170    gamma = 120.3601

  Initial cell volume =        3660.945346 Angs**3

  Temperature of configuration =  0.000     K 

  Pressure of configuration =         0.000 GPa 

  Fractional coordinates of asymmetric unit :

--------------------------------------------------------------------------------
   No.  Atomic       x           y          z         Charge      Occupancy
        Label      (Frac)      (Frac)     (Frac)        (e)         (Frac)  
--------------------------------------------------------------------------------
      1 Ge    c    0.699600    0.375700    0.033890     4.00000    1.000000    
      2 Si    c    0.621777 *  0.322900 *  0.368516 *   4.00000    1.000000    
      3 Si    c    0.675782 *  0.297829 *  0.698151 *   4.00000    1.000000    
      4 Si    c    0.294794 *  0.621854 *  0.530676 *   4.00000    1.000000    
      5 Si    c    0.379053 *  0.676337 *  0.862636 *   4.00000    1.000000    
      6 Si    c    0.316458 *  0.699401 *  0.196288 *   4.00000    1.000000    
      7 Si    c    0.376626 *  0.699191 *  0.297577 *   4.00000    1.000000    
      8 Si    c    0.322614 *  0.621917 *  0.962628 *   4.00000    1.000000    
      9 Si    c    0.297980 *  0.677881 *  0.631073 *   4.00000    1.000000    
     10 Si    c    0.621373 *  0.298484 *  0.798484 *   4.00000    1.000000    
     11 Si    c    0.674413 *  0.381690 *  0.468915 *   4.00000    1.000000    
     12 Si    c    0.677700 *  0.313322 *  0.133317 *   4.00000    1.000000    
     13 Si    c    0.529833 *  0.415636 *  0.965459 *   4.00000    1.000000    
     14 Si    c    0.593055 *  0.120717 *  0.302453 *   4.00000    1.000000    
     15 Si    c    0.886881 *  0.470441 *  0.633837 *   4.00000    1.000000    
     16 Si    c    0.466596 *  0.584999 *  0.465595 *   4.00000    1.000000    
     17 Si    c    0.415613 *  0.885811 *  0.797622 *   4.00000    1.000000    
     18 Si    c    0.104017 *  0.533192 *  0.128898 *   4.00000    1.000000    
     19 Si    c    0.417446 *  0.529384 *  0.364133 *   4.00000    1.000000    
     20 Si    c    0.106259 *  0.580096 *  0.025882 *   4.00000    1.000000    
     21 Si    c    0.469042 *  0.888699 *  0.696197 *   4.00000    1.000000    
     22 Si    c    0.582653 *  0.470145 *  0.863424 *   4.00000    1.000000    
     23 Si    c    0.886365 *  0.418337 *  0.532530 *   4.00000    1.000000    
     24 Ge    c    0.528304 *  0.096232 *  0.203414 *   4.00000    1.000000    
     25 Si    c    0.301781 *  0.398797 *  0.847755 *   4.00000    1.000000    
     26 Si    c    0.601560 *  0.900346 *  0.178218 *   4.00000    1.000000    
     27 Si    c    0.093773 *  0.698743 *  0.516746 *   4.00000    1.000000    
     28 Si    c    0.697414 *  0.599706 *  0.351868 *   4.00000    1.000000    
     29 Si    c    0.397383 *  0.096684 *  0.682416 *   4.00000    1.000000    
     30 Si    c    0.889023 *  0.291874 *  0.012212 *   4.00000    1.000000    
     31 Si    c    0.395151 *  0.304599 *  0.480888 *   4.00000    1.000000    
     32 Si    c    0.887123 *  0.600599 *  0.140600 *   4.00000    1.000000    
     33 Si    c    0.697659 *  0.096814 *  0.811904 *   4.00000    1.000000    
     34 Si    c    0.600173 *  0.697748 *  0.978432 *   4.00000    1.000000    
     35 Si    c    0.096677 *  0.399304 *  0.646558 *   4.00000    1.000000    
     36 Si    c    0.304267 *  0.906445 *  0.314244 *   4.00000    1.000000    
     37 Si    c    0.251637 *  0.342150 *  0.947907 *   4.00000    1.000000    
     38 Si    c    0.664398 *  0.914727 *  0.280869 *   4.00000    1.000000    
     39 Si    c    0.088508 *  0.749676 *  0.617308 *   4.00000    1.000000    
     40 Si    c    0.746062 *  0.661755 *  0.452133 *   4.00000    1.000000    
     41 Si    c    0.339197 *  0.087560 *  0.782805 *   4.00000    1.000000    
     42 Si    c    0.897052 *  0.250106 *  0.115215 *   4.00000    1.000000    
     43 Si    c    0.339811 *  0.250986 *  0.380229 *   4.00000    1.000000    
     44 Si    c    0.900749 *  0.658247 *  0.038029 *   4.00000    1.000000    
     45 Si    c    0.748878 *  0.090403 *  0.711564 *   4.00000    1.000000    
     46 Si    c    0.659590 *  0.748962 *  0.878013 *   4.00000    1.000000    
     47 Si    c    0.086464 *  0.340225 *  0.546046 *   4.00000    1.000000    
     48 Si    c    0.247190 *  0.914059 *  0.212556 *   4.00000    1.000000    
     49 Si    c    0.973222 *  0.123621 *  0.961580 *   4.00000    1.000000    
     50 Si    c    0.876321 *  0.843981 *  0.298736 *   4.00000    1.000000    
     51 Si    c    0.149239 *  0.029023 *  0.631476 *   4.00000    1.000000    
     52 Si    c    0.027352 *  0.879113 *  0.465385 *   4.00000    1.000000    
     53 Si    c    0.122194 *  0.149729 *  0.796784 *   4.00000    1.000000    
     54 Ge    c    0.850518 *  0.970897 *  0.129275 *   4.00000    1.000000    
     55 Si    c    0.121065 *  0.969724 *  0.364231 *   4.00000    1.000000    
     56 Si    c    0.853482 *  0.881183 *  0.026078 *   4.00000    1.000000    
     57 Si    c    0.028576 *  0.150763 *  0.696155 *   4.00000    1.000000    
     58 Si    c    0.878790 *  0.028731 *  0.861293 *   4.00000    1.000000    
     59 Si    c    0.147508 *  0.122431 *  0.530852 *   4.00000    1.000000    
     60 Si    c    0.963286 *  0.843968 *  0.196889 *   4.00000    1.000000    
     61 O2    c    0.928699 *  0.000092 *  0.992672 *   0.87073    1.000000    
     62 O2    c    0.001726 *  0.928619 *  0.330030 *   0.87073    1.000000    
     63 O2    c    0.068081 *  0.071255 *  0.662701 *   0.87073    1.000000    
     64 O2    c    0.071196 *  0.003659 *  0.496527 *   0.87073    1.000000    
     65 O2    c    0.997452 *  0.068121 *  0.827644 *   0.87073    1.000000    
     66 O3    c    0.940047 *  0.940594 *  0.167583 *   1.33043    1.000000    
     67 O2    c    0.342628 *  0.578886 *  0.330497 *   0.87073    1.000000    
     68 O2    c    0.421698 *  0.763631 *  0.663524 *   0.87073    1.000000    
     69 O2    c    0.234117 *  0.656584 *  0.994904 *   0.87073    1.000000    
     70 O2    c    0.659306 *  0.420904 *  0.831300 *   0.87073    1.000000    
     71 O3    c    0.575194 *  0.236691 *  0.170933 *   1.33043    1.000000    
     72 O2    c    0.757294 *  0.341586 *  0.501342 *   0.87073    1.000000    
     73 O3    c    0.567589 *  0.335209 *  0.997579 *   1.33043    1.000000    
     74 O2    c    0.762077 *  0.422449 *  0.666106 *   0.87073    1.000000    
     75 O2    c    0.664092 *  0.235059 *  0.339960 *   0.87073    1.000000    
     76 O2    c    0.416892 *  0.661123 *  0.497331 *   0.87073    1.000000    
     77 O2    c    0.226882 *  0.579578 *  0.162889 *   0.87073    1.000000    
     78 O2    c    0.339828 *  0.760186 *  0.829757 *   0.87073    1.000000    
     79 O2    c    0.126639 *  0.215499 *  0.968498 *   0.87073    1.000000    
     80 O2    c    0.785394 *  0.907436 *  0.302230 *   0.87073    1.000000    
     81 O2    c    0.087526 *  0.875013 *  0.637369 *   0.87073    1.000000    
     82 O2    c    0.872847 *  0.789623 *  0.471677 *   0.87073    1.000000    
     83 O2    c    0.212910 *  0.086777 *  0.802816 *   0.87073    1.000000    
     84 O3    c    0.903591 *  0.132353 *  0.137651 *   1.33043    1.000000    
     85 O2    c    0.213062 *  0.124360 *  0.359715 *   0.87073    1.000000    
     86 O2    c    0.919661 *  0.794401 *  0.019684 *   0.87073    1.000000    
     87 O2    c    0.874103 *  0.089212 *  0.691299 *   0.87073    1.000000    
     88 O2    c    0.786920 *  0.874121 *  0.857662 *   0.87073    1.000000    
     89 O2    c    0.083692 *  0.212591 *  0.526101 *   0.87073    1.000000    
     90 O2    c    0.115189 *  0.899137 *  0.193616 *   0.87073    1.000000    
     91 O2    c    0.921287 *  0.845975 *  0.248096 *   0.87073    1.000000    
     92 O2    c    0.134439 *  0.065359 *  0.580531 *   0.87073    1.000000    
     93 O2    c    0.938052 *  0.074075 *  0.910635 *   0.87073    1.000000    
     94 O2    c    0.071275 *  0.136205 *  0.745869 *   0.87073    1.000000    
     95 O3    c    0.879146 *  0.939355 *  0.076047 *   1.33043    1.000000    
     96 O2    c    0.065115 *  0.927079 *  0.414155 *   0.87073    1.000000    
     97 O2    c    0.900774 *  0.200453 *  0.974578 *   0.87073    1.000000    
     98 O2    c    0.796364 *  0.694763 *  0.313592 *   0.87073    1.000000    
     99 O2    c    0.301113 *  0.099868 *  0.643908 *   0.87073    1.000000    
    100 O2    c    0.095653 *  0.796897 *  0.478247 *   0.87073    1.000000    
    101 O2    c    0.204184 *  0.301401 *  0.808989 *   0.87073    1.000000    
    102 O3    c    0.688059 *  0.879392 *  0.141658 *   1.33043    1.000000    
    103 O2    c    0.205902 *  0.902645 *  0.352696 *   0.87073    1.000000    
    104 O2    c    0.698881 *  0.796571 *  0.016988 *   0.87073    1.000000    
    105 O2    c    0.099330 *  0.302970 *  0.684574 *   0.87073    1.000000    
    106 O2    c    0.796101 *  0.097651 *  0.849946 *   0.87073    1.000000    
    107 O2    c    0.299438 *  0.207717 *  0.519399 *   0.87073    1.000000    
    108 O2    c    0.886143 *  0.696860 *  0.179022 *   0.87073    1.000000    
    109 O2    c    0.318675 *  0.646561 *  0.247082 *   0.87073    1.000000    
    110 O2    c    0.354427 *  0.679243 *  0.580673 *   0.87073    1.000000    
    111 O2    c    0.320884 *  0.678395 *  0.912454 *   0.87073    1.000000    
    112 O2    c    0.677525 *  0.355784 *  0.748238 *   0.87073    1.000000    
    113 O3    c    0.612382 *  0.302343 *  0.084543 *   1.33043    1.000000    
    114 O2    c    0.677364 *  0.326504 *  0.419002 *   0.87073    1.000000    
    115 O2    c    0.372151 *  0.330734 *  0.965635 *   0.87073    1.000000    
    116 O2    c    0.675764 *  0.045299 *  0.301273 *   0.87073    1.000000    
    117 O2    c    0.956640 *  0.626980 *  0.635940 *   0.87073    1.000000    
    118 O2    c    0.623383 *  0.673281 *  0.468649 *   0.87073    1.000000    
    119 O2    c    0.328627 *  0.954675 *  0.800534 *   0.87073    1.000000    
    120 O2    c    0.031306 *  0.378236 *  0.130227 *   0.87073    1.000000    
    121 O2    c    0.330602 *  0.372866 *  0.360515 *   0.87073    1.000000    
    122 O2    c    0.033811 *  0.662601 *  0.022972 *   0.87073    1.000000    
    123 O2    c    0.625543 *  0.957931 *  0.693039 *   0.87073    1.000000    
    124 O2    c    0.668884 *  0.626629 *  0.859615 *   0.87073    1.000000    
    125 O2    c    0.953607 *  0.330262 *  0.527924 *   0.87073    1.000000    
    126 O3    c    0.360676 *  0.043779 *  0.193209 *   1.33043    1.000000    
    127 O3    c    0.756647 *  0.285245 *  0.002312 *   1.33043    1.000000    
    128 O2    c    0.694983 *  0.464642 *  0.344676 *   0.87073    1.000000    
    129 O2    c    0.532641 *  0.230652 *  0.675054 *   0.87073    1.000000    
    130 O2    c    0.226558 *  0.696984 *  0.508521 *   0.87073    1.000000    
    131 O2    c    0.304135 *  0.533580 *  0.839376 *   0.87073    1.000000    
    132 O2    c    0.460793 *  0.768058 *  0.176104 *   0.87073    1.000000    
    133 O2    c    0.305514 *  0.772170 *  0.318112 *   0.87073    1.000000    
    134 O2    c    0.466250 *  0.699220 *  0.985500 *   0.87073    1.000000    
    135 O2    c    0.231025 *  0.534435 *  0.653213 *   0.87073    1.000000    
    136 O2    c    0.697003 *  0.230033 *  0.819966 *   0.87073    1.000000    
    137 O2    c    0.529263 *  0.306160 *  0.489515 *   0.87073    1.000000    
    138 O2    c    0.755197 *  0.466908 *  0.148613 *   0.87073    1.000000    
    139 O3    c    0.772687 *  0.544798 *  0.017419 *   1.33043    1.000000    
    140 O2    c    0.465069 *  0.247468 *  0.362208 *   0.87073    1.000000    
    141 O2    c    0.750909 *  0.217475 *  0.692404 *   0.87073    1.000000    
    142 O2    c    0.213225 *  0.465271 *  0.526017 *   0.87073    1.000000    
    143 O2    c    0.535745 *  0.752815 *  0.858103 *   0.87073    1.000000    
    144 O2    c    0.251095 *  0.787441 *  0.195097 *   0.87073    1.000000    
    145 O2    c    0.531374 *  0.790537 *  0.297268 *   0.87073    1.000000    
    146 O2    c    0.248359 *  0.466124 *  0.967727 *   0.87073    1.000000    
    147 O2    c    0.215470 *  0.750753 *  0.636101 *   0.87073    1.000000    
    148 O2    c    0.465035 *  0.213996 *  0.802641 *   0.87073    1.000000    
    149 O2    c    0.745505 *  0.537760 *  0.473433 *   0.87073    1.000000    
    150 O2    c    0.775980 *  0.255554 *  0.134883 *   0.87073    1.000000    
    151 O2    c    0.228920 *  0.324782 *  0.893659 *   0.87073    1.000000    
    152 O2    c    0.678198 *  0.915459 *  0.226554 *   0.87073    1.000000    
    153 O2    c    0.090152 *  0.768933 *  0.563011 *   0.87073    1.000000    
    154 O2    c    0.768096 *  0.675942 *  0.397989 *   0.87073    1.000000    
    155 O2    c    0.322019 *  0.090683 *  0.728511 *   0.87073    1.000000    
    156 O2    c    0.891002 *  0.227512 *  0.061015 *   0.87073    1.000000    
    157 O2    c    0.320678 *  0.233355 *  0.434379 *   0.87073    1.000000    
    158 O2    c    0.893249 *  0.670393 *  0.093291 *   0.87073    1.000000    
    159 O2    c    0.768252 *  0.092830 *  0.765746 *   0.87073    1.000000    
    160 O2    c    0.676724 *  0.767997 *  0.932340 *   0.87073    1.000000    
    161 O2    c    0.089651 *  0.323659 *  0.600200 *   0.87073    1.000000    
    162 O2    c    0.238733 *  0.914539 *  0.267644 *   0.87073    1.000000    
    163 O2    c    0.581465 *  0.557752 *  0.987886 *   0.87073    1.000000    
    164 O2    c    0.447630 *  0.025812 *  0.322541 *   0.87073    1.000000    
    165 O2    c    0.972674 *  0.414507 *  0.656113 *   0.87073    1.000000    
    166 O2    c    0.409405 *  0.444110 *  0.488694 *   0.87073    1.000000    
    167 O2    c    0.557733 *  0.971275 *  0.820344 *   0.87073    1.000000    
    168 O2    c    0.013459 *  0.586291 *  0.147804 *   0.87073    1.000000    
    169 O2    c    0.559751 *  0.589929 *  0.341755 *   0.87073    1.000000    
    170 O2    c    0.016698 *  0.435274 *  0.007012 *   0.87073    1.000000    
    171 O2    c    0.410227 *  0.971099 *  0.672978 *   0.87073    1.000000    
    172 O2    c    0.440872 *  0.411303 *  0.840051 *   0.87073    1.000000    
    173 O2    c    0.967232 *  0.558786 *  0.508285 *   0.87073    1.000000    
    174 O3    c    0.598354 *  0.027282 *  0.166812 *   1.33043    1.000000    
    175 O3    c    0.599523 *  0.185188 *  0.255092 *   1.33043    1.000000    
    176 O2    c    0.833368 *  0.416694 *  0.583124 *   0.87073    1.000000    
    177 O2    c    0.583963 *  0.420538 *  0.914274 *   0.87073    1.000000    
    178 O2    c    0.415225 *  0.833949 *  0.746616 *   0.87073    1.000000    
    179 O2    c    0.153903 *  0.583334 *  0.078078 *   0.87073    1.000000    
    180 O2    c    0.413967 *  0.583245 *  0.414310 *   0.87073    1.000000    
    181 F     c    0.472808 *  0.947147 *  0.239095 *   0.56000    1.000000    
    182 F     c    0.094496 *  0.547635 *  0.580608 *   0.56000    1.000000    
    183 F     c    0.448873 *  0.551999 *  0.912236 *   0.56000    1.000000    
    184 F     c    0.547622 *  0.096457 *  0.746219 *   0.56000    1.000000    
    185 F     c    0.852989 *  0.436291 *  0.069540 *   0.56000    1.000000    
    186 F     c    0.545135 *  0.454166 *  0.415019 *   0.56000    1.000000    
    187 O2    s    0.925116 *  0.000644 *  0.992938 *  -2.87073    1.000000    
    188 O2    s    0.001141 *  0.923893 *  0.330376 *  -2.87073    1.000000    
    189 O2    s    0.072783 *  0.075316 *  0.662907 *  -2.87073    1.000000    
    190 O2    s    0.074763 *  0.002875 *  0.496843 *  -2.87073    1.000000    
    191 O2    s    0.998256 *  0.072909 *  0.827923 *  -2.87073    1.000000    
    192 O3    s    0.934933 *  0.932771 *  0.167477 *  -3.33043    1.000000    
    193 O2    s    0.353660 *  0.586768 *  0.330322 *  -2.87073    1.000000    
    194 O2    s    0.413623 *  0.767472 *  0.663464 *  -2.87073    1.000000    
    195 O2    s    0.229579 *  0.645091 *  0.994908 *  -2.87073    1.000000    
    196 O2    s    0.647609 *  0.413178 *  0.831133 *  -2.87073    1.000000    
    197 O3    s    0.583033 *  0.235030 *  0.169151 *  -3.33043    1.000000    
    198 O2    s    0.761795 *  0.353713 *  0.501111 *  -2.87073    1.000000    
    199 O3    s    0.573200 *  0.346787 *  0.996806 *  -3.33043    1.000000    
    200 O2    s    0.766346 *  0.414797 *  0.666003 *  -2.87073    1.000000    
    201 O2    s    0.652521 *  0.232517 *  0.339114 *  -2.87073    1.000000    
    202 O2    s    0.409671 *  0.649219 *  0.497416 *  -2.87073    1.000000    
    203 O2    s    0.223659 *  0.587334 *  0.162915 *  -2.87073    1.000000    
    204 O2    s    0.351708 *  0.764786 *  0.829746 *  -2.87073    1.000000    
    205 O2    s    0.122937 *  0.218675 *  0.965635 *  -2.87073    1.000000    
    206 O2    s    0.782355 *  0.901518 *  0.299654 *  -2.87073    1.000000    
    207 O2    s    0.094166 *  0.878319 *  0.634690 *  -2.87073    1.000000    
    208 O2    s    0.876060 *  0.785840 *  0.469005 *  -2.87073    1.000000    
    209 O2    s    0.216383 *  0.093509 *  0.800131 *  -2.87073    1.000000    
    210 O3    s    0.898590 *  0.130987 *  0.134740 *  -3.33043    1.000000    
    211 O2    s    0.216334 *  0.120974 *  0.362276 *  -2.87073    1.000000    
    212 O2    s    0.910569 *  0.789826 *  0.022232 *  -2.87073    1.000000    
    213 O2    s    0.877644 *  0.095892 *  0.693870 *  -2.87073    1.000000    
    214 O2    s    0.783602 *  0.877755 *  0.860125 *  -2.87073    1.000000    
    215 O2    s    0.090720 *  0.216115 *  0.528622 *  -2.87073    1.000000    
    216 O2    s    0.112790 *  0.894481 *  0.196114 *  -2.87073    1.000000    
    217 O2    s    0.920727 *  0.845517 *  0.248261 *  -2.87073    1.000000    
    218 O2    s    0.137561 *  0.067804 *  0.580555 *  -2.87073    1.000000    
    219 O2    s    0.935213 *  0.074488 *  0.910751 *  -2.87073    1.000000    
    220 O2    s    0.072098 *  0.139402 *  0.745891 *  -2.87073    1.000000    
    221 O3    s    0.873855 *  0.936177 *  0.075712 *  -3.33043    1.000000    
    222 O2    s    0.067250 *  0.926589 *  0.414187 *  -2.87073    1.000000    
    223 O2    s    0.907579 *  0.201506 *  0.977079 *  -2.87073    1.000000    
    224 O2    s    0.794756 *  0.701054 *  0.315965 *  -2.87073    1.000000    
    225 O2    s    0.294609 *  0.091994 *  0.646458 *  -2.87073    1.000000    
    226 O2    s    0.088171 *  0.795722 *  0.480772 *  -2.87073    1.000000    
    227 O2    s    0.205317 *  0.295065 *  0.811612 *  -2.87073    1.000000    
    228 O3    s    0.692730 *  0.888705 *  0.144183 *  -3.33043    1.000000    
    229 O2    s    0.207217 *  0.909978 *  0.349949 *  -2.87073    1.000000    
    230 O2    s    0.705043 *  0.795555 *  0.014140 *  -2.87073    1.000000    
    231 O2    s    0.091580 *  0.296830 *  0.681870 *  -2.87073    1.000000    
    232 O2    s    0.794677 *  0.090236 *  0.847204 *  -2.87073    1.000000    
    233 O2    s    0.293169 *  0.208716 *  0.516608 *  -2.87073    1.000000    
    234 O2    s    0.894474 *  0.702775 *  0.176989 *  -2.87073    1.000000    
    235 O2    s    0.324317 *  0.657152 *  0.247122 *  -2.87073    1.000000    
    236 O2    s    0.342596 *  0.673211 *  0.580638 *  -2.87073    1.000000    
    237 O2    s    0.326901 *  0.672433 *  0.912548 *  -2.87073    1.000000    
    238 O2    s    0.671637 *  0.344020 *  0.748203 *  -2.87073    1.000000    
    239 O3    s    0.624731 *  0.308469 *  0.085723 *  -3.33043    1.000000    
    240 O2    s    0.671191 *  0.331950 *  0.418896 *  -2.87073    1.000000    
    241 O2    s    0.374675 *  0.340609 *  0.963621 *  -2.87073    1.000000    
    242 O2    s    0.666610 *  0.038882 *  0.299234 *  -2.87073    1.000000    
    243 O2    s    0.963351 *  0.623774 *  0.633750 *  -2.87073    1.000000    
    244 O2    s    0.620098 *  0.663012 *  0.466592 *  -2.87073    1.000000    
    245 O2    s    0.338649 *  0.961542 *  0.798363 *  -2.87073    1.000000    
    246 O2    s    0.025474 *  0.381975 *  0.128549 *  -2.87073    1.000000    
    247 O2    s    0.340488 *  0.376496 *  0.362912 *  -2.87073    1.000000    
    248 O2    s    0.028068 *  0.653340 *  0.024804 *  -2.87073    1.000000    
    249 O2    s    0.622343 *  0.964714 *  0.695316 *  -2.87073    1.000000    
    250 O2    s    0.659037 *  0.623344 *  0.861935 *  -2.87073    1.000000    
    251 O2    s    0.960558 *  0.340363 *  0.530290 *  -2.87073    1.000000    
    252 O3    s    0.359424 *  0.033040 *  0.196024 *  -3.33043    1.000000    
    253 O3    s    0.767177 *  0.291787 *  0.005475 *  -3.33043    1.000000    
    254 O2    s    0.687732 *  0.464381 *  0.347892 *  -2.87073    1.000000    
    255 O2    s    0.533128 *  0.223479 *  0.678225 *  -2.87073    1.000000    
    256 O2    s    0.219620 *  0.689450 *  0.511680 *  -2.87073    1.000000    
    257 O2    s    0.311550 *  0.534050 *  0.842661 *  -2.87073    1.000000    
    258 O2    s    0.459458 *  0.774018 *  0.178520 *  -2.87073    1.000000    
    259 O2    s    0.312804 *  0.778423 *  0.315561 *  -2.87073    1.000000    
    260 O2    s    0.465316 *  0.691235 *  0.982426 *  -2.87073    1.000000    
    261 O2    s    0.223702 *  0.534918 *  0.650186 *  -2.87073    1.000000    
    262 O2    s    0.689292 *  0.223082 *  0.816875 *  -2.87073    1.000000    
    263 O2    s    0.530109 *  0.313870 *  0.486422 *  -2.87073    1.000000    
    264 O2    s    0.762437 *  0.467200 *  0.146240 *  -2.87073    1.000000    
    265 O3    s    0.782248 *  0.546590 *  0.020665 *  -3.33043    1.000000    
    266 O2    s    0.467651 *  0.255643 *  0.364747 *  -2.87073    1.000000    
    267 O2    s    0.742839 *  0.212015 *  0.695026 *  -2.87073    1.000000    
    268 O2    s    0.207969 *  0.468070 *  0.528615 *  -2.87073    1.000000    
    269 O2    s    0.532777 *  0.744360 *  0.860689 *  -2.87073    1.000000    
    270 O2    s    0.258068 *  0.790722 *  0.197016 *  -2.87073    1.000000    
    271 O2    s    0.528780 *  0.793986 *  0.295545 *  -2.87073    1.000000    
    272 O2    s    0.256575 *  0.469334 *  0.965106 *  -2.87073    1.000000    
    273 O2    s    0.210110 *  0.742927 *  0.633548 *  -2.87073    1.000000    
    274 O2    s    0.467743 *  0.209000 *  0.800070 *  -2.87073    1.000000    
    275 O2    s    0.738016 *  0.534923 *  0.470678 *  -2.87073    1.000000    
    276 O2    s    0.780126 *  0.260757 *  0.132506 *  -2.87073    1.000000    
    277 O2    s    0.238961 *  0.334423 *  0.894499 *  -2.87073    1.000000    
    278 O2    s    0.669580 *  0.914060 *  0.227806 *  -2.87073    1.000000    
    279 O2    s    0.090354 *  0.759503 *  0.563839 *  -2.87073    1.000000    
    280 O2    s    0.758269 *  0.666361 *  0.398853 *  -2.87073    1.000000    
    281 O2    s    0.331744 *  0.090976 *  0.729380 *  -2.87073    1.000000    
    282 O2    s    0.891347 *  0.236024 *  0.061917 *  -2.87073    1.000000    
    283 O2    s    0.330455 *  0.242661 *  0.433448 *  -2.87073    1.000000    
    284 O2    s    0.893219 *  0.661715 *  0.093056 *  -2.87073    1.000000    
    285 O2    s    0.758831 *  0.092991 *  0.764763 *  -2.87073    1.000000    
    286 O2    s    0.666991 *  0.758726 *  0.931391 *  -2.87073    1.000000    
    287 O2    s    0.090038 *  0.333317 *  0.599248 *  -2.87073    1.000000    
    288 O2    s    0.246709 *  0.913657 *  0.267138 *  -2.87073    1.000000    
    289 O2    s    0.578023 *  0.558861 *  0.984558 *  -2.87073    1.000000    
    290 O2    s    0.446147 *  0.021841 *  0.319625 *  -2.87073    1.000000    
    291 O2    s    0.977259 *  0.418923 *  0.652741 *  -2.87073    1.000000    
    292 O2    s    0.414064 *  0.443847 *  0.485404 *  -2.87073    1.000000    
    293 O2    s    0.557976 *  0.976104 *  0.817025 *  -2.87073    1.000000    
    294 O2    s    0.009893 *  0.582031 *  0.145038 *  -2.87073    1.000000    
    295 O2    s    0.559332 *  0.584499 *  0.345166 *  -2.87073    1.000000    
    296 O2    s    0.013335 *  0.436500 *  0.009598 *  -2.87073    1.000000    
    297 O2    s    0.415117 *  0.976207 *  0.676392 *  -2.87073    1.000000    
    298 O2    s    0.440665 *  0.416234 *  0.843306 *  -2.87073    1.000000    
    299 O2    s    0.972635 *  0.559325 *  0.511683 *  -2.87073    1.000000    
    300 O3    s    0.593946 *  0.018176 *  0.170396 *  -3.33043    1.000000    
    301 O3    s    0.594117 *  0.172401 *  0.256709 *  -3.33043    1.000000    
    302 O2    s    0.844542 *  0.422475 *  0.583082 *  -2.87073    1.000000    
    303 O2    s    0.578455 *  0.425363 *  0.913983 *  -2.87073    1.000000    
    304 O2    s    0.420859 *  0.844994 *  0.746621 *  -2.87073    1.000000    
    305 O2    s    0.143890 *  0.577724 *  0.078236 *  -2.87073    1.000000    
    306 O2    s    0.419651 *  0.577823 *  0.414299 *  -2.87073    1.000000    
    307 F     s    0.476716 *  0.957134 *  0.236708 *  -1.56000    1.000000    
    308 F     s    0.094820 *  0.547712 *  0.580471 *  -1.56000    1.000000    
    309 F     s    0.448321 *  0.552613 *  0.912119 *  -1.56000    1.000000    
    310 F     s    0.547882 *  0.096919 *  0.746080 *  -1.56000    1.000000    
    311 F     s    0.843540 *  0.432779 *  0.067325 *  -1.56000    1.000000    
    312 F     s    0.545197 *  0.454133 *  0.414858 *  -1.56000    1.000000    
--------------------------------------------------------------------------------



********************************************************************************
*  General input information                                                   *
********************************************************************************

  Species output for all configurations : 

--------------------------------------------------------------------------------
  Species    Type    Atomic    Atomic    Charge       Radii (Angs)     Library
                     Number     Mass       (e)     Cova   Ionic  VDW   Symbol
--------------------------------------------------------------------------------
    Si       Core       14      28.09   4.000000   1.200  0.000  2.100          
    O1       Core        8      16.00   1.733957   0.730  0.000  1.360          
    O1       Shell       8       0.00  -3.733957   0.730  0.000  1.360          
    O2       Core        8      16.00   0.870733   0.730  0.000  1.360          
    O2       Shell       8       0.00  -2.870733   0.730  0.000  1.360          
    O3       Core        8      16.00   1.330431   0.730  0.000  1.360          
    O3       Shell       8       0.00  -3.330431   0.730  0.000  1.360          
    F        Core        9      19.00   0.560000   0.710  0.000  1.300          
    F        Shell       9       0.00  -1.560000   0.710  0.000  1.300          
    Ge       Core       32      72.61   4.000000   1.170  0.000  1.750          
--------------------------------------------------------------------------------


  Lattice summation method               =    Ewald          (3-D)
                                         =    Parry          (2-D)
                                         =    Saunders et al (1-D)
  Accuracy factor for lattice sums       =   12.000


  Time limit = Infinity

  Maximum range for interatomic potentials =        16.000000 Angstroms

  Taper potentials to zero over   1.0000 Angstroms using polynomial

  General interatomic potentials :

--------------------------------------------------------------------------------
Atom  Types   Potential         A         B         C         D     Cutoffs(Ang)
  1     2                                                            Min    Max 
--------------------------------------------------------------------------------
Si   c O1   s Buckingham    0.132E+04 0.318      10.1      0.00     0.000 16.000
Si   c O2   s Buckingham    0.132E+04 0.318      10.1      0.00     0.000 16.000
Si   c O3   s Buckingham    0.132E+04 0.318      10.1      0.00     0.000 16.000
Ge   c O1   s Buckingham    0.150E+04 0.326      16.8      0.00     0.000 16.000
Ge   c O2   s Buckingham    0.150E+04 0.326      16.8      0.00     0.000 16.000
Ge   c O3   s Buckingham    0.150E+04 0.326      16.8      0.00     0.000 16.000
O1   s O1   s Buckingham    0.228E+05 0.149      10.9      0.00     0.000 16.000
O1   s O2   s Buckingham    0.228E+05 0.149      10.9      0.00     0.000 16.000
O1   s O3   s Buckingham    0.228E+05 0.149      10.9      0.00     0.000 16.000
O2   s O2   s Buckingham    0.228E+05 0.149      10.9      0.00     0.000 16.000
O2   s O3   s Buckingham    0.228E+05 0.149      10.9      0.00     0.000 16.000
O3   s O3   s Buckingham    0.228E+05 0.149      10.9      0.00     0.000 16.000
Si   c F    s Buckingham     977.     0.282      0.00      0.00     0.000 16.000
Ge   c F    s Buckingham     681.     0.320      0.00      0.00     0.000 16.000
F    s F    s Buckingham     540.     0.262      0.00      0.00     0.000 16.000
O1   s F    s Buckingham    0.168E+04 0.268      0.00      0.00     0.000 16.000
O2   s F    s Buckingham    0.168E+04 0.268      0.00      0.00     0.000 16.000
O3   s F    s Buckingham    0.168E+04 0.268      0.00      0.00     0.000 16.000
O2   c O2   s Spring (c-s)   76.0      0.00      0.00      0.00     0.000  0.800
O3   c O3   s Spring (c-s)   128.      0.00      0.00      0.00     0.000  0.800
O1   c O1   s Spring (c-s)   180.      0.00      0.00      0.00     0.000  0.800
F    c F    s Spring (c-s)   33.5      0.00      0.00      0.00     0.000  0.800
--------------------------------------------------------------------------------

  General Three-body potentials :

  Harmonic form:

--------------------------------------------------------------------------------
Atom    Atom    Atom           Force Constants            Theta     Cutoffs  
  1       2       3     (eVrad**-2/eVrad**-3/eVrad**-4)   (deg)  1-2  1-3  2-3
--------------------------------------------------------------------------------
Si    c O1    s O1    s  1.261        0.0000    0.0000   109.470 0.00 0.00 0.00
                                                                 1.90 1.90 3.50
Si    c O1    s O2    s  1.261        0.0000    0.0000   109.470 0.00 0.00 0.00
                                                                 1.90 1.90 3.50
Si    c O2    s O2    s  1.261        0.0000    0.0000   109.470 0.00 0.00 0.00
                                                                 1.90 1.90 3.50
--------------------------------------------------------------------------------

********************************************************************************
*  Output for configuration   1                                                *
********************************************************************************


  Components of energy : 

--------------------------------------------------------------------------------
  Interatomic potentials     =        2063.55519502 eV
  Three-body potentials      =           0.46256267 eV
  Monopole - monopole (real) =       -6614.12842668 eV
  Monopole - monopole (recip)=       -3170.15135915 eV
  Monopole - monopole (total)=       -9784.27978584 eV
  Neutralising energy        =          -6.45759588 eV
--------------------------------------------------------------------------------
  Total lattice energy       =       -7726.71962403 eV
--------------------------------------------------------------------------------
  Total lattice energy       =         -745510.3300 kJ/(mole unit cells)
--------------------------------------------------------------------------------


  Number of variables =      939

  Maximum number of calculations  =          5000
  Maximum Hessian update interval =            10
  Maximum step size               =   0.100000000
  Maximum parameter tolerance     =   0.000010000
  Maximum function  tolerance     =   0.000010000
  Maximum gradient  tolerance     =   0.001000000
  Maximum gradient  component     =   0.010000000

  Symmetry not applied to optimisation

  Cell parameters to be optimised using strains

  Newton-Raphson optimiser to be used

  BFGS hessian update to be used

  Dumpfile to be written after every cycle

  Start of bulk optimisation :

  Cycle:      0 Energy:     -7726.719624  Gnorm:      0.004655  CPU:    2.021
  ** Hessian calculated **
  Cycle:      1 Energy:     -7726.744596  Gnorm:      0.003871  CPU:    6.577
  Cycle:      2 Energy:     -7726.771699  Gnorm:      0.002809  CPU:   10.757
  Cycle:      3 Energy:     -7726.792799  Gnorm:      0.001741  CPU:   14.934
  Cycle:      4 Energy:     -7726.798026  Gnorm:      0.001109  CPU:   19.111
  Cycle:      5 Energy:     -7726.799346  Gnorm:      0.000641  CPU:   23.286
  Cycle:      6 Energy:     -7726.799684  Gnorm:      0.000350  CPU:   27.462
  Cycle:      7 Energy:     -7726.799771  Gnorm:      0.000186  CPU:   31.638
  Cycle:      8 Energy:     -7726.799785  Gnorm:      0.000132  CPU:   34.459
  Cycle:      9 Energy:     -7726.799793  Gnorm:      0.000093  CPU:   37.280
  Cycle:     10 Energy:     -7726.799796  Gnorm:      0.000066  CPU:   40.101
  ** Hessian calculated **
  Cycle:     11 Energy:     -7726.799796  Gnorm:      0.000041  CPU:   44.613
  Cycle:     12 Energy:     -7726.799796  Gnorm:      0.000031  CPU:   47.435


  **** Optimisation achieved ****


  Final energy =   -7726.79979649 eV
  Final Gnorm  =       0.00002523

  Components of energy : 

--------------------------------------------------------------------------------
  Interatomic potentials     =        2063.78803630 eV
  Three-body potentials      =           0.47538057 eV
  Monopole - monopole (real) =       -6615.44135200 eV
  Monopole - monopole (recip)=       -3169.16626766 eV
  Monopole - monopole (total)=       -9784.60761966 eV
  Neutralising energy        =          -6.45559369 eV
--------------------------------------------------------------------------------
  Total lattice energy       =       -7726.79979649 eV
--------------------------------------------------------------------------------
  Total lattice energy       =         -745518.0654 kJ/(mole unit cells)
--------------------------------------------------------------------------------

  Final fractional coordinates of atoms :

--------------------------------------------------------------------------------
   No.  Atomic        x           y          z          Radius
        Label       (Frac)      (Frac)     (Frac)       (Angs) 
--------------------------------------------------------------------------------
     1  Ge    c     0.699600    0.375700    0.033890    0.000000
     2  Si    c     0.602081    0.320106    0.368116    0.000000
     3  Si    c     0.660444    0.295236    0.698003    0.000000
     4  Si    c     0.275276    0.619197    0.530381    0.000000
     5  Si    c     0.366283    0.673048    0.862852    0.000000
     6  Si    c     0.299147    0.695392    0.196640    0.000000
     7  Si    c     0.359516    0.697884    0.298133    0.000000
     8  Si    c     0.311857    0.617548    0.963016    0.000000
     9  Si    c     0.281609    0.676711    0.630875    0.000000
    10  Si    c     0.607485    0.295372    0.798503    0.000000
    11  Si    c     0.655365    0.379608    0.468682    0.000000
    12  Si    c     0.661186    0.305905    0.132589    0.000000
    13  Si    c     0.524442    0.414143    0.965984    0.000000
    14  Si    c     0.574861    0.118689    0.301825    0.000000
    15  Si    c     0.870579    0.469010    0.633764    0.000000
    16  Si    c     0.447220    0.582396    0.465585    0.000000
    17  Si    c     0.402056    0.882746    0.797768    0.000000
    18  Si    c     0.087682    0.526070    0.129866    0.000000
    19  Si    c     0.397753    0.525958    0.364179    0.000000
    20  Si    c     0.096086    0.575860    0.026769    0.000000
    21  Si    c     0.454535    0.887210    0.696030    0.000000
    22  Si    c     0.571746    0.468737    0.863341    0.000000
    23  Si    c     0.867848    0.416268    0.532329    0.000000
    24  Ge    c     0.508331    0.090207    0.202730    0.000000
    25  Si    c     0.290560    0.396172    0.847854    0.000000
    26  Si    c     0.583258    0.895678    0.177689    0.000000
    27  Si    c     0.074653    0.696260    0.516482    0.000000
    28  Si    c     0.677188    0.596566    0.351704    0.000000
    29  Si    c     0.382019    0.094352    0.682142    0.000000
    30  Si    c     0.881944    0.286529    0.012202    0.000000
    31  Si    c     0.376270    0.302558    0.480654    0.000000
    32  Si    c     0.870524    0.593083    0.141031    0.000000
    33  Si    c     0.684127    0.094159    0.812009    0.000000
    34  Si    c     0.589939    0.695060    0.978072    0.000000
    35  Si    c     0.080628    0.398241    0.646346    0.000000
    36  Si    c     0.286528    0.904304    0.314249    0.000000
    37  Si    c     0.244975    0.339535    0.948245    0.000000
    38  Si    c     0.646614    0.912889    0.280660    0.000000
    39  Si    c     0.071539    0.747830    0.617164    0.000000
    40  Si    c     0.726623    0.659472    0.452022    0.000000
    41  Si    c     0.325532    0.084370    0.782808    0.000000
    42  Si    c     0.881902    0.243722    0.115762    0.000000
    43  Si    c     0.320130    0.248141    0.379960    0.000000
    44  Si    c     0.893118    0.657811    0.038516    0.000000
    45  Si    c     0.734245    0.088703    0.711447    0.000000
    46  Si    c     0.647347    0.746795    0.877615    0.000000
    47  Si    c     0.067769    0.337803    0.545727    0.000000
    48  Si    c     0.227865    0.908395    0.212303    0.000000
    49  Si    c     0.966734    0.119970    0.960891    0.000000
    50  Si    c     0.856896    0.840186    0.298430    0.000000
    51  Si    c     0.133276    0.027171    0.631179    0.000000
    52  Si    c     0.008010    0.876668    0.465095    0.000000
    53  Si    c     0.109574    0.147805    0.796386    0.000000
    54  Ge    c     0.832112    0.964485    0.128921    0.000000
    55  Si    c     0.102348    0.966925    0.363910    0.000000
    56  Si    c     0.843615    0.879369    0.025799    0.000000
    57  Si    c     0.014365    0.150145    0.695881    0.000000
    58  Si    c     0.866543    0.026418    0.860793    0.000000
    59  Si    c     0.128912    0.120095    0.530551    0.000000
    60  Si    c     0.942931    0.835364    0.196832    0.000000
    61  O2    c     0.921099    0.995429    0.991508    0.000000
    62  O2    c     0.983564    0.924505    0.329245    0.000000
    63  O2    c     0.052804    0.070403    0.662205    0.000000
    64  O2    c     0.052504    0.001628    0.496064    0.000000
    65  O2    c     0.983302    0.065559    0.826388    0.000000
    66  O3    c     0.919674    0.930358    0.166680    0.000000
    67  O2    c     0.323830    0.576885    0.330764    0.000000
    68  O2    c     0.405997    0.762373    0.663136    0.000000
    69  O2    c     0.223959    0.651473    0.995912    0.000000
    70  O2    c     0.646906    0.418361    0.831055    0.000000
    71  O3    c     0.556146    0.229414    0.169419    0.000000
    72  O2    c     0.738419    0.339755    0.501196    0.000000
    73  O3    c     0.566039    0.336148    0.997158    0.000000
    74  O2    c     0.746103    0.420301    0.666136    0.000000
    75  O2    c     0.645068    0.233278    0.339312    0.000000
    76  O2    c     0.397347    0.658461    0.497104    0.000000
    77  O2    c     0.209714    0.573172    0.164248    0.000000
    78  O2    c     0.326913    0.757087    0.829946    0.000000
    79  O2    c     0.119917    0.211401    0.968271    0.000000
    80  O2    c     0.767979    0.905792    0.301903    0.000000
    81  O2    c     0.071251    0.873358    0.637236    0.000000
    82  O2    c     0.853530    0.787461    0.471427    0.000000
    83  O2    c     0.199157    0.083700    0.802621    0.000000
    84  O3    c     0.885702    0.125285    0.138659    0.000000
    85  O2    c     0.193247    0.121517    0.359517    0.000000
    86  O2    c     0.911828    0.794014    0.021025    0.000000
    87  O2    c     0.859839    0.088127    0.691371    0.000000
    88  O2    c     0.774323    0.872130    0.857294    0.000000
    89  O2    c     0.064447    0.209717    0.526066    0.000000
    90  O2    c     0.094904    0.891656    0.193719    0.000000
    91  O2    c     0.899541    0.839269    0.247651    0.000000
    92  O2    c     0.117478    0.062718    0.580143    0.000000
    93  O2    c     0.929932    0.072649    0.909731    0.000000
    94  O2    c     0.060113    0.136766    0.745291    0.000000
    95  O3    c     0.865138    0.939321    0.075388    0.000000
    96  O2    c     0.045311    0.923747    0.413707    0.000000
    97  O2    c     0.894500    0.196282    0.974698    0.000000
    98  O2    c     0.775998    0.691558    0.313506    0.000000
    99  O2    c     0.285161    0.097441    0.643714    0.000000
   100  O2    c     0.075981    0.794315    0.478038    0.000000
   101  O2    c     0.191944    0.298767    0.809265    0.000000
   102  O3    c     0.669520    0.874245    0.141111    0.000000
   103  O2    c     0.188879    0.901661    0.352699    0.000000
   104  O2    c     0.689566    0.794508    0.016372    0.000000
   105  O2    c     0.084145    0.302098    0.684252    0.000000
   106  O2    c     0.782972    0.094834    0.850046    0.000000
   107  O2    c     0.280612    0.205845    0.519127    0.000000
   108  O2    c     0.867415    0.687706    0.179651    0.000000
   109  O2    c     0.301739    0.644948    0.247706    0.000000
   110  O2    c     0.336222    0.677170    0.580252    0.000000
   111  O2    c     0.308314    0.674128    0.912889    0.000000
   112  O2    c     0.662643    0.352648    0.748188    0.000000
   113  O3    c     0.603350    0.298316    0.082913    0.000000
   114  O2    c     0.657942    0.324347    0.418702    0.000000
   115  O2    c     0.366175    0.329722    0.966175    0.000000
   116  O2    c     0.658112    0.043788    0.300706    0.000000
   117  O2    c     0.939983    0.625347    0.635932    0.000000
   118  O2    c     0.604001    0.670818    0.468569    0.000000
   119  O2    c     0.315081    0.951628    0.800586    0.000000
   120  O2    c     0.015543    0.371363    0.131314    0.000000
   121  O2    c     0.310544    0.369690    0.360191    0.000000
   122  O2    c     0.025804    0.660494    0.024100    0.000000
   123  O2    c     0.610996    0.956381    0.692729    0.000000
   124  O2    c     0.657165    0.625036    0.859103    0.000000
   125  O2    c     0.934776    0.327990    0.527699    0.000000
   126  O3    c     0.340647    0.038150    0.192753    0.000000
   127  O3    c     0.750720    0.281993    0.001944    0.000000
   128  O2    c     0.674814    0.461759    0.344399    0.000000
   129  O2    c     0.517225    0.228163    0.674846    0.000000
   130  O2    c     0.207155    0.694272    0.508054    0.000000
   131  O2    c     0.291480    0.530296    0.839680    0.000000
   132  O2    c     0.442872    0.763146    0.176088    0.000000
   133  O2    c     0.288729    0.770880    0.318762    0.000000
   134  O2    c     0.455831    0.695741    0.985683    0.000000
   135  O2    c     0.214882    0.533317    0.652906    0.000000
   136  O2    c     0.683234    0.227028    0.820052    0.000000
   137  O2    c     0.510359    0.304066    0.489249    0.000000
   138  O2    c     0.738398    0.459490    0.148030    0.000000
   139  O3    c     0.768136    0.543321    0.016858    0.000000
   140  O2    c     0.445352    0.244610    0.361951    0.000000
   141  O2    c     0.736073    0.215487    0.692148    0.000000
   142  O2    c     0.193960    0.462745    0.525511    0.000000
   143  O2    c     0.522871    0.750089    0.857947    0.000000
   144  O2    c     0.233179    0.782822    0.194651    0.000000
   145  O2    c     0.514238    0.789415    0.297743    0.000000
   146  O2    c     0.238975    0.461939    0.968149    0.000000
   147  O2    c     0.198713    0.749030    0.635879    0.000000
   148  O2    c     0.451217    0.210576    0.802817    0.000000
   149  O2    c     0.725992    0.535433    0.473211    0.000000
   150  O2    c     0.760099    0.248907    0.134621    0.000000
   151  O2    c     0.220544    0.321968    0.894017    0.000000
   152  O2    c     0.659722    0.912333    0.226282    0.000000
   153  O2    c     0.071899    0.766612    0.562821    0.000000
   154  O2    c     0.747885    0.672986    0.397831    0.000000
   155  O2    c     0.307677    0.087859    0.728498    0.000000
   156  O2    c     0.879616    0.222018    0.061464    0.000000
   157  O2    c     0.301349    0.231111    0.434161    0.000000
   158  O2    c     0.879559    0.664621    0.093762    0.000000
   159  O2    c     0.754112    0.090678    0.765662    0.000000
   160  O2    c     0.665441    0.766120    0.931943    0.000000
   161  O2    c     0.072362    0.322366    0.599927    0.000000
   162  O2    c     0.220014    0.909678    0.267430    0.000000
   163  O2    c     0.573928    0.556630    0.987799    0.000000
   164  O2    c     0.429753    0.024131    0.322022    0.000000
   165  O2    c     0.957058    0.413823    0.656027    0.000000
   166  O2    c     0.390665    0.441827    0.488738    0.000000
   167  O2    c     0.544323    0.968642    0.820383    0.000000
   168  O2    c     0.996331    0.578253    0.148581    0.000000
   169  O2    c     0.539541    0.586528    0.341487    0.000000
   170  O2    c     0.007235    0.431386    0.007565    0.000000
   171  O2    c     0.395365    0.969234    0.672748    0.000000
   172  O2    c     0.429909    0.409944    0.839878    0.000000
   173  O2    c     0.948050    0.556494    0.508006    0.000000
   174  O3    c     0.578056    0.021152    0.166031    0.000000
   175  O3    c     0.580212    0.181230    0.254149    0.000000
   176  O2    c     0.816083    0.415098    0.583076    0.000000
   177  O2    c     0.575271    0.420320    0.914098    0.000000
   178  O2    c     0.401555    0.832018    0.746521    0.000000
   179  O2    c     0.140210    0.576672    0.079306    0.000000
   180  O2    c     0.394065    0.579863    0.414298    0.000000
   181  F     c     0.453990    0.942916    0.238785    0.000000
   182  F     c     0.076725    0.546022    0.580127    0.000000
   183  F     c     0.438248    0.550704    0.912345    0.000000
   184  F     c     0.533717    0.094164    0.746030    0.000000
   185  F     c     0.846105    0.433118    0.070163    0.000000
   186  F     c     0.524712    0.451384    0.414698    0.000000
   187  O2    s     0.917401    0.996442    0.991929    0.000000
   188  O2    s     0.982774    0.919958    0.329691    0.000000
   189  O2    s     0.057589    0.074381    0.662450    0.000000
   190  O2    s     0.055981    0.000742    0.496411    0.000000
   191  O2    s     0.984478    0.070453    0.826856    0.000000
   192  O3    s     0.914620    0.922979    0.166690    0.000000
   193  O2    s     0.335019    0.584739    0.330598    0.000000
   194  O2    s     0.397964    0.766150    0.663108    0.000000
   195  O2    s     0.219282    0.640142    0.995874    0.000000
   196  O2    s     0.635194    0.410655    0.830921    0.000000
   197  O3    s     0.564223    0.227870    0.167769    0.000000
   198  O2    s     0.742923    0.351811    0.500946    0.000000
   199  O3    s     0.570599    0.347514    0.996227    0.000000
   200  O2    s     0.750429    0.412693    0.665994    0.000000
   201  O2    s     0.633534    0.230592    0.338495    0.000000
   202  O2    s     0.390184    0.646537    0.497191    0.000000
   203  O2    s     0.206520    0.581134    0.164116    0.000000
   204  O2    s     0.338667    0.761685    0.829924    0.000000
   205  O2    s     0.116035    0.214563    0.965446    0.000000
   206  O2    s     0.764712    0.899639    0.299347    0.000000
   207  O2    s     0.077846    0.876623    0.634539    0.000000
   208  O2    s     0.856713    0.783634    0.468770    0.000000
   209  O2    s     0.202738    0.090537    0.799943    0.000000
   210  O3    s     0.880957    0.124124    0.135574    0.000000
   211  O2    s     0.196635    0.118123    0.362053    0.000000
   212  O2    s     0.902552    0.788991    0.023353    0.000000
   213  O2    s     0.863362    0.094793    0.693888    0.000000
   214  O2    s     0.771122    0.875779    0.859741    0.000000
   215  O2    s     0.071588    0.213339    0.528523    0.000000
   216  O2    s     0.092677    0.887086    0.196174    0.000000
   217  O2    s     0.899467    0.838959    0.247848    0.000000
   218  O2    s     0.120529    0.065297    0.580178    0.000000
   219  O2    s     0.926842    0.072733    0.909964    0.000000
   220  O2    s     0.060410    0.139548    0.745360    0.000000
   221  O3    s     0.859876    0.935333    0.075080    0.000000
   222  O2    s     0.047633    0.923431    0.413764    0.000000
   223  O2    s     0.901186    0.197529    0.977199    0.000000
   224  O2    s     0.774509    0.697830    0.315859    0.000000
   225  O2    s     0.278739    0.089661    0.646235    0.000000
   226  O2    s     0.068586    0.793186    0.480546    0.000000
   227  O2    s     0.193137    0.292494    0.811799    0.000000
   228  O3    s     0.674278    0.883474    0.143618    0.000000
   229  O2    s     0.189934    0.908682    0.349916    0.000000
   230  O2    s     0.695767    0.793549    0.013601    0.000000
   231  O2    s     0.076408    0.295988    0.681558    0.000000
   232  O2    s     0.781633    0.087522    0.847267    0.000000
   233  O2    s     0.274353    0.206774    0.516329    0.000000
   234  O2    s     0.875804    0.693858    0.177528    0.000000
   235  O2    s     0.307394    0.655468    0.247702    0.000000
   236  O2    s     0.324430    0.671175    0.580269    0.000000
   237  O2    s     0.314459    0.668315    0.912946    0.000000
   238  O2    s     0.656789    0.340884    0.748137    0.000000
   239  O3    s     0.615594    0.304272    0.084545    0.000000
   240  O2    s     0.651788    0.329703    0.418586    0.000000
   241  O2    s     0.368299    0.339176    0.964140    0.000000
   242  O2    s     0.648937    0.037293    0.298708    0.000000
   243  O2    s     0.946694    0.622153    0.633721    0.000000
   244  O2    s     0.600758    0.660573    0.466516    0.000000
   245  O2    s     0.325049    0.958461    0.798428    0.000000
   246  O2    s     0.009684    0.375087    0.129557    0.000000
   247  O2    s     0.320498    0.373314    0.362631    0.000000
   248  O2    s     0.019908    0.651272    0.025842    0.000000
   249  O2    s     0.607768    0.963096    0.695033    0.000000
   250  O2    s     0.647381    0.621754    0.861475    0.000000
   251  O2    s     0.941762    0.338071    0.530053    0.000000
   252  O3    s     0.339515    0.027458    0.195572    0.000000
   253  O3    s     0.761456    0.288675    0.005213    0.000000
   254  O2    s     0.667595    0.461453    0.347620    0.000000
   255  O2    s     0.517695    0.220982    0.678010    0.000000
   256  O2    s     0.200237    0.686782    0.511253    0.000000
   257  O2    s     0.299025    0.530900    0.842929    0.000000
   258  O2    s     0.441586    0.769237    0.178493    0.000000
   259  O2    s     0.295888    0.777082    0.316131    0.000000
   260  O2    s     0.454887    0.687755    0.982578    0.000000
   261  O2    s     0.207548    0.533800    0.649902    0.000000
   262  O2    s     0.675555    0.220048    0.816961    0.000000
   263  O2    s     0.511204    0.311778    0.486159    0.000000
   264  O2    s     0.745881    0.460021    0.145770    0.000000
   265  O3    s     0.777714    0.545354    0.020272    0.000000
   266  O2    s     0.447974    0.252785    0.364471    0.000000
   267  O2    s     0.727983    0.209992    0.694791    0.000000
   268  O2    s     0.188720    0.465482    0.528149    0.000000
   269  O2    s     0.520010    0.741666    0.860544    0.000000
   270  O2    s     0.240064    0.786086    0.196670    0.000000
   271  O2    s     0.511602    0.792771    0.295955    0.000000
   272  O2    s     0.247305    0.465302    0.965527    0.000000
   273  O2    s     0.193392    0.741245    0.633337    0.000000
   274  O2    s     0.453908    0.205630    0.800215    0.000000
   275  O2    s     0.718568    0.532630    0.470465    0.000000
   276  O2    s     0.764347    0.254066    0.132291    0.000000
   277  O2    s     0.230497    0.331683    0.894806    0.000000
   278  O2    s     0.651202    0.910922    0.227505    0.000000
   279  O2    s     0.072150    0.757215    0.563650    0.000000
   280  O2    s     0.738134    0.663450    0.398712    0.000000
   281  O2    s     0.317395    0.088168    0.729323    0.000000
   282  O2    s     0.880031    0.230479    0.062276    0.000000
   283  O2    s     0.311133    0.240365    0.433210    0.000000
   284  O2    s     0.879849    0.656338    0.093501    0.000000
   285  O2    s     0.744684    0.090827    0.764704    0.000000
   286  O2    s     0.655712    0.756729    0.930987    0.000000
   287  O2    s     0.072727    0.331938    0.598967    0.000000
   288  O2    s     0.228053    0.909011    0.266944    0.000000
   289  O2    s     0.570479    0.557756    0.984515    0.000000
   290  O2    s     0.428256    0.020076    0.319150    0.000000
   291  O2    s     0.961536    0.418105    0.652641    0.000000
   292  O2    s     0.395245    0.441549    0.485409    0.000000
   293  O2    s     0.544519    0.973402    0.817085    0.000000
   294  O2    s     0.992890    0.574172    0.145794    0.000000
   295  O2    s     0.539246    0.581139    0.344944    0.000000
   296  O2    s     0.004021    0.432382    0.010133    0.000000
   297  O2    s     0.400221    0.974333    0.676163    0.000000
   298  O2    s     0.429574    0.414707    0.843162    0.000000
   299  O2    s     0.953521    0.557027    0.511412    0.000000
   300  O3    s     0.573912    0.012128    0.169644    0.000000
   301  O3    s     0.574921    0.168555    0.255849    0.000000
   302  O2    s     0.827232    0.420835    0.583002    0.000000
   303  O2    s     0.569873    0.424952    0.913780    0.000000
   304  O2    s     0.407090    0.842951    0.746550    0.000000
   305  O2    s     0.130274    0.571282    0.079374    0.000000
   306  O2    s     0.399865    0.574491    0.414297    0.000000
   307  F     s     0.457886    0.953014    0.236318    0.000000
   308  F     s     0.077044    0.546123    0.579960    0.000000
   309  F     s     0.437663    0.551433    0.912241    0.000000
   310  F     s     0.534004    0.094630    0.745878    0.000000
   311  F     s     0.835663    0.429250    0.067536    0.000000
   312  F     s     0.524688    0.451359    0.414521    0.000000
--------------------------------------------------------------------------------

  Final Cartesian lattice vectors (Angstroms) :

       11.986078   -0.002094   -0.011371
       -6.068197   10.367602    0.004596
       -0.177647   -0.067587   29.490956


  Final cell parameters and derivatives :

--------------------------------------------------------------------------------
       a           11.986083 Angstrom     dE/de1(xx)     0.001086 eV/strain
       b           12.012919 Angstrom     dE/de2(yy)     0.000760 eV/strain
       c           29.491568 Angstrom     dE/de3(zz)     0.002759 eV/strain
       alpha       89.917065 Degrees      dE/de4(yz)    -0.000203 eV/strain
       beta        90.399465 Degrees      dE/de5(xz)     0.000115 eV/strain
       gamma      120.350616 Degrees      dE/de6(xy)     0.000194 eV/strain
--------------------------------------------------------------------------------

  Primitive cell volume =          3664.352703 Angs**3

  Density of cell =      1.746036 g/cm**3

  Non-primitive cell volume =          3664.352703 Angs**3


  Final internal derivatives :

--------------------------------------------------------------------------------
   No.  Atomic          a             b             c           Radius
        Label          (eV)          (eV)          (eV)        (eV/Angs)
--------------------------------------------------------------------------------
      1 Ge    c       0.000000      0.000000      0.000000      0.000000
      2 Si    c       0.000075     -0.000035      0.000586      0.000000
      3 Si    c      -0.000063      0.000029      0.000462      0.000000
      4 Si    c       0.000571     -0.000038      0.000374      0.000000
      5 Si    c      -0.000082      0.000197      0.000305      0.000000
      6 Si    c       0.000628     -0.000005      0.000900      0.000000
      7 Si    c       0.000134     -0.000426     -0.000110      0.000000
      8 Si    c       0.000118     -0.000052     -0.000103      0.000000
      9 Si    c       0.000194     -0.000130      0.000175      0.000000
     10 Si    c       0.000035      0.000080     -0.000157      0.000000
     11 Si    c       0.000174     -0.000237      0.000114      0.000000
     12 Si    c       0.002388      0.000226      0.008718      0.000000
     13 Si    c      -0.000127     -0.001217      0.002474      0.000000
     14 Si    c      -0.000152      0.000022      0.000775      0.000000
     15 Si    c      -0.000253     -0.000048     -0.000158      0.000000
     16 Si    c       0.000118     -0.000096      0.000222      0.000000
     17 Si    c       0.000008     -0.000210      0.000291      0.000000
     18 Si    c       0.000536      0.000142     -0.000643      0.000000
     19 Si    c       0.000214      0.000212      0.000403      0.000000
     20 Si    c       0.000413     -0.000057     -0.000520      0.000000
     21 Si    c      -0.000002     -0.000278      0.000872      0.000000
     22 Si    c       0.000073     -0.000243      0.000039      0.000000
     23 Si    c      -0.000127      0.000134      0.000384      0.000000
     24 Ge    c      -0.000050     -0.000446      0.000572      0.000000
     25 Si    c      -0.000104      0.000160      0.000052      0.000000
     26 Si    c       0.000236     -0.000301     -0.000282      0.000000
     27 Si    c      -0.000021      0.000163      0.000415      0.000000
     28 Si    c       0.000273      0.000225      0.000279      0.000000
     29 Si    c      -0.000132     -0.000070      0.000514      0.000000
     30 Si    c       0.001002      0.001008     -0.001872      0.000000
     31 Si    c      -0.000006     -0.000339      0.000007      0.000000
     32 Si    c       0.001038      0.000035     -0.000446      0.000000
     33 Si    c       0.000028     -0.000089      0.000025      0.000000
     34 Si    c       0.000051      0.000066     -0.000184      0.000000
     35 Si    c       0.000019     -0.000258      0.000108      0.000000
     36 Si    c      -0.000272      0.000035      0.000360      0.000000
     37 Si    c       0.000000     -0.000110     -0.000032      0.000000
     38 Si    c       0.000340     -0.000438     -0.000102      0.000000
     39 Si    c      -0.000137     -0.000025     -0.000286      0.000000
     40 Si    c       0.000259     -0.000137     -0.000300      0.000000
     41 Si    c       0.000098      0.000070     -0.000156      0.000000
     42 Si    c       0.000996      0.000755     -0.001101      0.000000
     43 Si    c       0.000126     -0.000070      0.000652      0.000000
     44 Si    c       0.001414      0.000195     -0.002096      0.000000
     45 Si    c       0.000035     -0.000289      0.000794      0.000000
     46 Si    c      -0.000000      0.000204      0.000367      0.000000
     47 Si    c       0.000404     -0.000079      0.000693      0.000000
     48 Si    c       0.000332      0.000314     -0.000076      0.000000
     49 Si    c       0.000231      0.000596      0.000673      0.000000
     50 Si    c      -0.000033     -0.000026      0.000161      0.000000
     51 Si    c       0.000150      0.000036     -0.000148      0.000000
     52 Si    c       0.000171     -0.000079     -0.000020      0.000000
     53 Si    c       0.000092      0.000274     -0.000148      0.000000
     54 Ge    c      -0.000943     -0.000310      0.002755      0.000000
     55 Si    c      -0.000028      0.000014      0.000609      0.000000
     56 Si    c      -0.001243     -0.001535     -0.003233      0.000000
     57 Si    c      -0.000004      0.000032      0.000113      0.000000
     58 Si    c      -0.000410      0.000114     -0.000839      0.000000
     59 Si    c       0.000142     -0.000109      0.000566      0.000000
     60 Si    c       0.000684     -0.000133     -0.001123      0.000000
     61 O2    c       0.000420      0.000740     -0.003177      0.000000
     62 O2    c      -0.000036      0.000255      0.000218      0.000000
     63 O2    c       0.000454      0.000110     -0.000141      0.000000
     64 O2    c       0.000061     -0.000195      0.000119      0.000000
     65 O2    c       0.000223      0.000119     -0.000078      0.000000
     66 O3    c       0.000687      0.001054      0.003740      0.000000
     67 O2    c       0.000271     -0.000126      0.000080      0.000000
     68 O2    c      -0.000118     -0.000237      0.000099      0.000000
     69 O2    c       0.000690      0.000204      0.000514      0.000000
     70 O2    c       0.000032      0.000159      0.000276      0.000000
     71 O3    c      -0.000871     -0.000612      0.003401      0.000000
     72 O2    c       0.000160      0.000083      0.000108      0.000000
     73 O3    c       0.001784     -0.001481      0.003638      0.000000
     74 O2    c      -0.000071     -0.000201     -0.000003      0.000000
     75 O2    c      -0.000119     -0.000009      0.000235      0.000000
     76 O2    c       0.000381     -0.000254      0.000169      0.000000
     77 O2    c       0.000455     -0.000615     -0.001481      0.000000
     78 O2    c       0.000175      0.000075      0.000325      0.000000
     79 O2    c       0.000033     -0.000144      0.000181      0.000000
     80 O2    c      -0.000179      0.000079     -0.000140      0.000000
     81 O2    c       0.000053     -0.000103     -0.000353      0.000000
     82 O2    c       0.000288     -0.000231     -0.000257      0.000000
     83 O2    c       0.000289      0.000002     -0.000174      0.000000
     84 O3    c       0.000582      0.001267      0.001378      0.000000
     85 O2    c       0.000220      0.000020      0.000236      0.000000
     86 O2    c       0.002253     -0.001306     -0.002237      0.000000
     87 O2    c      -0.000132     -0.000164      0.000369      0.000000
     88 O2    c      -0.000132      0.000065      0.000327      0.000000
     89 O2    c       0.000432      0.000052      0.000437      0.000000
     90 O2    c       0.000749      0.000191     -0.000393      0.000000
     91 O2    c       0.000347      0.000376      0.002678      0.000000
     92 O2    c       0.000194      0.000052      0.000171      0.000000
     93 O2    c      -0.000320      0.000028     -0.000798      0.000000
     94 O2    c      -0.000085      0.000016      0.000315      0.000000
     95 O3    c       0.001495      0.000480      0.003681      0.000000
     96 O2    c       0.000179     -0.000021      0.000657      0.000000
     97 O2    c       0.000027      0.000605     -0.000376      0.000000
     98 O2    c       0.000023     -0.000008      0.000319      0.000000
     99 O2    c       0.000086     -0.000176      0.000407      0.000000
    100 O2    c       0.000074     -0.000027      0.000535      0.000000
    101 O2    c      -0.000029      0.000353      0.000035      0.000000
    102 O3    c      -0.000375     -0.000046      0.000142      0.000000
    103 O2    c      -0.000148     -0.000357     -0.000026      0.000000
    104 O2    c      -0.000531     -0.000310     -0.000591      0.000000
    105 O2    c      -0.000152      0.000002     -0.000344      0.000000
    106 O2    c      -0.000248      0.000172     -0.000379      0.000000
    107 O2    c       0.000071     -0.000189     -0.000301      0.000000
    108 O2    c       0.000142     -0.001031     -0.000452      0.000000
    109 O2    c       0.000274     -0.000609      0.001489      0.000000
    110 O2    c       0.000152     -0.000113      0.000316      0.000000
    111 O2    c       0.000232      0.000088      0.000099      0.000000
    112 O2    c       0.000005     -0.000149      0.000127      0.000000
    113 O3    c      -0.002601     -0.001107      0.005303      0.000000
    114 O2    c       0.000026     -0.000160      0.000000      0.000000
    115 O2    c       0.000289     -0.000344      0.000237      0.000000
    116 O2    c      -0.000144     -0.000112      0.000074      0.000000
    117 O2    c      -0.000008     -0.000029     -0.000252      0.000000
    118 O2    c       0.000179     -0.000230     -0.000107      0.000000
    119 O2    c       0.000141      0.000148     -0.000042      0.000000
    120 O2    c       0.000496      0.000475     -0.000053      0.000000
    121 O2    c       0.000278      0.000003      0.000378      0.000000
    122 O2    c       0.000994      0.000296     -0.000352      0.000000
    123 O2    c      -0.000009     -0.000232      0.000461      0.000000
    124 O2    c       0.000150     -0.000086     -0.000075      0.000000
    125 O2    c       0.000437     -0.000012      0.000333      0.000000
    126 O3    c       0.000487      0.000083      0.000757      0.000000
    127 O3    c       0.000953      0.000265     -0.000370      0.000000
    128 O2    c       0.000110     -0.000098      0.000290      0.000000
    129 O2    c      -0.000003     -0.000208      0.000589      0.000000
    130 O2    c       0.000242     -0.000048      0.000504      0.000000
    131 O2    c      -0.000071      0.000311      0.000291      0.000000
    132 O2    c       0.000339     -0.000174      0.000115      0.000000
    133 O2    c       0.000033     -0.000350     -0.000207      0.000000
    134 O2    c      -0.000024     -0.000001      0.000167      0.000000
    135 O2    c      -0.000129     -0.000124     -0.000252      0.000000
    136 O2    c      -0.000083     -0.000050     -0.000210      0.000000
    137 O2    c       0.000284     -0.000178     -0.000343      0.000000
    138 O2    c       0.000330      0.000154      0.000611      0.000000
    139 O3    c      -0.000632     -0.000415     -0.001065      0.000000
    140 O2    c       0.000186     -0.000055      0.000201      0.000000
    141 O2    c      -0.000035     -0.000376      0.000446      0.000000
    142 O2    c       0.000311     -0.000077      0.000517      0.000000
    143 O2    c       0.000012      0.000140      0.000307      0.000000
    144 O2    c       0.000055      0.000247     -0.000008      0.000000
    145 O2    c      -0.000001     -0.000355     -0.000194      0.000000
    146 O2    c      -0.000131      0.000062      0.000179      0.000000
    147 O2    c      -0.000024     -0.000023     -0.000092      0.000000
    148 O2    c       0.000103      0.000027     -0.000177      0.000000
    149 O2    c       0.000186     -0.000316     -0.000177      0.000000
    150 O2    c       0.000533     -0.000245      0.000239      0.000000
    151 O2    c      -0.000276      0.000014      0.000783      0.000000
    152 O2    c       0.000338     -0.000270      0.000403      0.000000
    153 O2    c       0.000032      0.000039      0.000501      0.000000
    154 O2    c       0.000149     -0.000084      0.000361      0.000000
    155 O2    c       0.000083      0.000000      0.000433      0.000000
    156 O2    c       0.000620     -0.000026     -0.000994      0.000000
    157 O2    c       0.000190     -0.000093     -0.000088      0.000000
    158 O2    c       0.000326      0.000943      0.002992      0.000000
    159 O2    c      -0.000055     -0.000175     -0.000400      0.000000
    160 O2    c       0.000175     -0.000073     -0.000330      0.000000
    161 O2    c       0.000159     -0.000127     -0.000307      0.000000
    162 O2    c      -0.000063      0.000219     -0.001049      0.000000
    163 O2    c       0.000410     -0.000216      0.000090      0.000000
    164 O2    c      -0.000003      0.000114      0.000267      0.000000
    165 O2    c      -0.000172     -0.000223     -0.000129      0.000000
    166 O2    c       0.000038     -0.000146     -0.000265      0.000000
    167 O2    c       0.000049     -0.000005     -0.000173      0.000000
    168 O2    c       0.001188      0.000063      0.000009      0.000000
    169 O2    c       0.000314      0.000061      0.000449      0.000000
    170 O2    c       0.001236      0.000438     -0.000176      0.000000
    171 O2    c      -0.000001     -0.000302      0.000531      0.000000
    172 O2    c       0.000300     -0.000120     -0.000144      0.000000
    173 O2    c       0.000095      0.000055      0.000535      0.000000
    174 O3    c       0.000347      0.000334      0.000095      0.000000
    175 O3    c      -0.000038      0.000359     -0.000372      0.000000
    176 O2    c      -0.000042      0.000045      0.000230      0.000000
    177 O2    c       0.000471     -0.000650     -0.001798      0.000000
    178 O2    c       0.000034     -0.000132      0.000247      0.000000
    179 O2    c       0.000934      0.000347      0.000629      0.000000
    180 O2    c       0.000229      0.000009      0.000040      0.000000
    181 F     c       0.000176      0.000167     -0.000076      0.000000
    182 F     c      -0.000012     -0.000035      0.000147      0.000000
    183 F     c       0.000001      0.000018     -0.000062      0.000000
    184 F     c      -0.000080     -0.000223      0.000146      0.000000
    185 F     c       0.000343      0.000365     -0.002389      0.000000
    186 F     c       0.000262     -0.000124      0.000112      0.000000
    187 O2    s       0.000405     -0.000029     -0.004015      0.000000
    188 O2    s       0.000020      0.000119      0.001030      0.000000
    189 O2    s       0.000434      0.000158      0.000136      0.000000
    190 O2    s       0.000127     -0.000209      0.000332      0.000000
    191 O2    s       0.000405     -0.000114      0.000211      0.000000
    192 O3    s      -0.000033      0.000774      0.003453      0.000000
    193 O2    s       0.000180      0.000131      0.000140      0.000000
    194 O2    s      -0.000331     -0.000111      0.000200      0.000000
    195 O2    s       0.000615      0.000234      0.000155      0.000000
    196 O2    s       0.000047      0.000187     -0.000531      0.000000
    197 O3    s       0.000666      0.000583      0.004129      0.000000
    198 O2    s       0.000324     -0.000260     -0.000179      0.000000
    199 O3    s       0.001586     -0.000636      0.002210      0.000000
    200 O2    s       0.000154     -0.000532     -0.000171      0.000000
    201 O2    s      -0.000035     -0.000171     -0.000150      0.000000
    202 O2    s       0.000273     -0.000043      0.000122      0.000000
    203 O2    s       0.000436     -0.000289     -0.000149      0.000000
    204 O2    s       0.000141      0.000107     -0.000082      0.000000
    205 O2    s       0.000533     -0.000544      0.000278      0.000000
    206 O2    s      -0.000230      0.000103      0.000675      0.000000
    207 O2    s       0.000187     -0.000124     -0.000106      0.000000
    208 O2    s       0.000232     -0.000277     -0.000177      0.000000
    209 O2    s       0.000184      0.000134     -0.000276      0.000000
    210 O3    s       0.000223      0.001025      0.003565      0.000000
    211 O2    s       0.000268     -0.000017      0.000975      0.000000
    212 O2    s       0.001789     -0.001365     -0.004500      0.000000
    213 O2    s      -0.000153     -0.000204      0.000231      0.000000
    214 O2    s       0.000055     -0.000147      0.000087      0.000000
    215 O2    s       0.000399      0.000041      0.000324      0.000000
    216 O2    s       0.000929     -0.000187      0.000685      0.000000
    217 O2    s       0.001024      0.000124      0.002368      0.000000
    218 O2    s       0.000414      0.000003      0.000222      0.000000
    219 O2    s       0.000104     -0.000407     -0.000534      0.000000
    220 O2    s       0.000006      0.000008     -0.000002      0.000000
    221 O3    s      -0.000603     -0.000288      0.003277      0.000000
    222 O2    s       0.000277     -0.000007      0.000341      0.000000
    223 O2    s       0.000233      0.001170     -0.000420      0.000000
    224 O2    s       0.000318     -0.000175      0.001168      0.000000
    225 O2    s       0.000166     -0.000368      0.000337      0.000000
    226 O2    s       0.000312     -0.000084      0.000402      0.000000
    227 O2    s       0.000220      0.000057     -0.000032      0.000000
    228 O3    s      -0.000170     -0.000186      0.002176      0.000000
    229 O2    s      -0.000113     -0.000366      0.000296      0.000000
    230 O2    s      -0.000540     -0.000291     -0.002690      0.000000
    231 O2    s      -0.000241      0.000066     -0.000468      0.000000
    232 O2    s      -0.000387      0.000137     -0.000817      0.000000
    233 O2    s       0.000213     -0.000456     -0.000444      0.000000
    234 O2    s       0.001339     -0.001288      0.000326      0.000000
    235 O2    s       0.000025     -0.000213      0.000900      0.000000
    236 O2    s      -0.000149      0.000267     -0.000104      0.000000
    237 O2    s       0.000528      0.000020     -0.000159      0.000000
    238 O2    s       0.000253     -0.000353     -0.000164      0.000000
    239 O3    s       0.000619      0.001353     -0.002286      0.000000
    240 O2    s      -0.000042     -0.000142      0.000072      0.000000
    241 O2    s      -0.000286      0.000001     -0.000541      0.000000
    242 O2    s      -0.000321     -0.000005     -0.000231      0.000000
    243 O2    s       0.000291     -0.000372     -0.000312      0.000000
    244 O2    s       0.000286     -0.000495     -0.000103      0.000000
    245 O2    s       0.000185      0.000015     -0.000468      0.000000
    246 O2    s       0.000990      0.000080      0.001028      0.000000
    247 O2    s       0.000591     -0.000097      0.000849      0.000000
    248 O2    s       0.000718      0.000319     -0.001441      0.000000
    249 O2    s      -0.000236     -0.000127      0.000480      0.000000
    250 O2    s      -0.000080      0.000128      0.000603      0.000000
    251 O2    s       0.000222      0.000196      0.000418      0.000000
    252 O3    s       0.000716     -0.000186      0.000335      0.000000
    253 O3    s       0.000457      0.000485      0.000184      0.000000
    254 O2    s       0.000168      0.000076      0.000931      0.000000
    255 O2    s       0.000250     -0.000582      0.000343      0.000000
    256 O2    s       0.000281     -0.000070      0.000827      0.000000
    257 O2    s       0.000176      0.000114      0.000100      0.000000
    258 O2    s       0.000346      0.000368      0.000805      0.000000
    259 O2    s       0.000003     -0.000324     -0.000128      0.000000
    260 O2    s       0.000597     -0.000499     -0.000511      0.000000
    261 O2    s      -0.000422      0.000123     -0.000506      0.000000
    262 O2    s      -0.000047     -0.000081     -0.000724      0.000000
    263 O2    s       0.000087     -0.000291     -0.000242      0.000000
    264 O2    s       0.000709     -0.000196      0.001211      0.000000
    265 O3    s      -0.000421      0.000228     -0.001860      0.000000
    266 O2    s       0.000046      0.000065      0.000850      0.000000
    267 O2    s      -0.000161     -0.000230      0.000399      0.000000
    268 O2    s       0.000084      0.000404      0.000592      0.000000
    269 O2    s       0.000309     -0.000128      0.000285      0.000000
    270 O2    s       0.000506      0.000225      0.001238      0.000000
    271 O2    s      -0.000352     -0.000016      0.000365      0.000000
    272 O2    s       0.000612     -0.000276     -0.000241      0.000000
    273 O2    s       0.000078     -0.000214     -0.000447      0.000000
    274 O2    s       0.000174     -0.000042     -0.000680      0.000000
    275 O2    s       0.000166     -0.000150     -0.000455      0.000000
    276 O2    s       0.000614      0.000044      0.002647      0.000000
    277 O2    s       0.000444     -0.000520      0.000267      0.000000
    278 O2    s      -0.000108      0.000290     -0.000116      0.000000
    279 O2    s       0.000600     -0.000425      0.000076      0.000000
    280 O2    s       0.000297     -0.000115      0.000173      0.000000
    281 O2    s       0.000374     -0.000284      0.000065      0.000000
    282 O2    s       0.001364     -0.000235     -0.000689      0.000000
    283 O2    s       0.000320     -0.000285     -0.000006      0.000000
    284 O2    s       0.000825      0.001115      0.001937      0.000000
    285 O2    s      -0.000342      0.000030     -0.000001      0.000000
    286 O2    s       0.000689     -0.000331     -0.000091      0.000000
    287 O2    s      -0.000248      0.000292      0.000091      0.000000
    288 O2    s       0.000239     -0.000088     -0.000259      0.000000
    289 O2    s       0.000525      0.000223     -0.000388      0.000000
    290 O2    s       0.000192     -0.000075     -0.000218      0.000000
    291 O2    s      -0.000145     -0.000236     -0.000798      0.000000
    292 O2    s       0.000267     -0.000354     -0.000349      0.000000
    293 O2    s      -0.000066      0.000048     -0.000602      0.000000
    294 O2    s       0.000841      0.000181      0.000697      0.000000
    295 O2    s       0.000431     -0.000099      0.001312      0.000000
    296 O2    s       0.001768     -0.000396     -0.001035      0.000000
    297 O2    s       0.000001     -0.000291      0.000629      0.000000
    298 O2    s       0.000016      0.000153      0.000332      0.000000
    299 O2    s       0.000619     -0.000298      0.000512      0.000000
    300 O3    s       0.000377     -0.000040      0.001129      0.000000
    301 O3    s       0.000366     -0.000327      0.001193      0.000000
    302 O2    s       0.000339     -0.000466     -0.000221      0.000000
    303 O2    s      -0.000136      0.000013     -0.000794      0.000000
    304 O2    s      -0.000215     -0.000084      0.000086      0.000000
    305 O2    s       0.000966      0.000568      0.000488      0.000000
    306 O2    s       0.000705     -0.000369      0.000328      0.000000
    307 F     s       0.000354      0.000190     -0.000006      0.000000
    308 F     s      -0.000088     -0.000060      0.000128      0.000000
    309 F     s       0.000228     -0.000092     -0.000318      0.000000
    310 F     s      -0.000049     -0.000254      0.000077      0.000000
    311 F     s      -0.001054      0.000434     -0.001957      0.000000
    312 F     s       0.000269     -0.000104      0.000136      0.000000
--------------------------------------------------------------------------------
  Maximum abs         0.002601      0.001535      0.008718      0.000000
--------------------------------------------------------------------------------


  Time to end of optimisation =      50.2582 seconds


  Peak dynamic memory used =      19.13 MB 


  Timing analysis for GULP :

--------------------------------------------------------------------------------
  Task / Subroutine                                          Time (Seconds)
--------------------------------------------------------------------------------
  Calculation of reciprocal space energy and derivatives          1.3597
  Calculation of real space energy and derivatives               43.6384
  Calculation of three-body energy and derivatives                4.4221
  Calculation of matrix inversion                                 0.7453
--------------------------------------------------------------------------------
  Total CPU time                                                 50.2582
--------------------------------------------------------------------------------


  Dump file written as out.res                                                 
  CIF file written as out.cif                                                 


  Job Finished at 12:12.57  4th November   2016                               

