********************************************************************************
*                       GENERAL UTILITY LATTICE PROGRAM                        *
*                                 Julian Gale                                  *
*                      Nanochemistry Research Institute                        *
*                           Department of Chemistry                            *
*                    Curtin University, Western Australia                      *
********************************************************************************
* Version = 4.2.0 * Last modified =  20th January 2014                         *
********************************************************************************
*  optimise     - perform optimisation run                                     *
*  conp         - constant pressure calculation                                *
*  qok          - running with non charge neutral cell is OK                   *
********************************************************************************

  Job Started  at 02:40.01  8th November   2016                               

  Number of CPUs =     1


  Total number of configurations input =   1

********************************************************************************
*  Input for Configuration =   1                                               *
********************************************************************************

  Formula = Ge3Si57O120F6                                               

  Number of irreducible atoms/shells =     312


  Total number atoms/shells =     312

  Dimensionality = 3               :  Bulk   


  Charge on solid   =  -6.000000 =>neutralising background added


  Cartesian lattice vectors (Angstroms) :

       11.969330    0.000000    0.000000
       -5.999116   10.385295    0.000000
        0.131783   -0.175231   29.447363

  Cell parameters (Angstroms/Degrees):

  a =      11.9693    alpha =  90.4235
  b =      11.9935    beta  =  89.7436
  c =      29.4482    gamma = 120.0131

  Initial cell volume =        3660.454940 Angs**3

  Temperature of configuration =  0.000     K 

  Pressure of configuration =         0.000 GPa 

  Fractional coordinates of asymmetric unit :

--------------------------------------------------------------------------------
   No.  Atomic       x           y          z         Charge      Occupancy
        Label      (Frac)      (Frac)     (Frac)        (e)         (Frac)  
--------------------------------------------------------------------------------
      1 Ge    c    0.699600    0.375700    0.033890     4.00000    1.000000    
      2 Si    c    0.620340 *  0.322069 *  0.365498 *   4.00000    1.000000    
      3 Si    c    0.676452 *  0.295708 *  0.698775 *   4.00000    1.000000    
      4 Si    c    0.299427 *  0.625284 *  0.532232 *   4.00000    1.000000    
      5 Si    c    0.378817 *  0.677590 *  0.865635 *   4.00000    1.000000    
      6 Si    c    0.329423 *  0.697482 *  0.199727 *   4.00000    1.000000    
      7 Si    c    0.381221 *  0.698613 *  0.300564 *   4.00000    1.000000    
      8 Si    c    0.324250 *  0.619857 *  0.966143 *   4.00000    1.000000    
      9 Si    c    0.297692 *  0.674662 *  0.633534 *   4.00000    1.000000    
     10 Si    c    0.621060 *  0.296480 *  0.799391 *   4.00000    1.000000    
     11 Si    c    0.678508 *  0.380497 *  0.465685 *   4.00000    1.000000    
     12 Si    c    0.692450 *  0.315077 *  0.136700 *   4.00000    1.000000    
     13 Si    c    0.529991 *  0.415839 *  0.965568 *   4.00000    1.000000    
     14 Si    c    0.582883 *  0.108810 *  0.301415 *   4.00000    1.000000    
     15 Si    c    0.886859 *  0.468412 *  0.633835 *   4.00000    1.000000    
     16 Si    c    0.469974 *  0.584475 *  0.466946 *   4.00000    1.000000    
     17 Si    c    0.416552 *  0.887196 *  0.800655 *   4.00000    1.000000    
     18 Si    c    0.119936 *  0.529619 *  0.135486 *   4.00000    1.000000    
     19 Si    c    0.416766 *  0.526623 *  0.365521 *   4.00000    1.000000    
     20 Si    c    0.116020 *  0.586510 *  0.032598 *   4.00000    1.000000    
     21 Si    c    0.469063 *  0.885031 *  0.698789 *   4.00000    1.000000    
     22 Si    c    0.583100 *  0.470426 *  0.863846 *   4.00000    1.000000    
     23 Si    c    0.886473 *  0.421223 *  0.531827 *   4.00000    1.000000    
     24 Si    c    0.526161 *  0.100792 *  0.200436 *   4.00000    1.000000    
     25 Si    c    0.302353 *  0.399974 *  0.849929 *   4.00000    1.000000    
     26 Si    c    0.606568 *  0.899937 *  0.185231 *   4.00000    1.000000    
     27 Si    c    0.097095 *  0.701523 *  0.518784 *   4.00000    1.000000    
     28 Si    c    0.697847 *  0.600048 *  0.349481 *   4.00000    1.000000    
     29 Si    c    0.398080 *  0.094077 *  0.684178 *   4.00000    1.000000    
     30 Si    c    0.905204 *  0.299081 *  0.017355 *   4.00000    1.000000    
     31 Si    c    0.402125 *  0.306203 *  0.481897 *   4.00000    1.000000    
     32 Ge    c    0.901359 *  0.588474 *  0.142207 *   4.00000    1.000000    
     33 Si    c    0.697513 *  0.096003 *  0.814426 *   4.00000    1.000000    
     34 Si    c    0.602751 *  0.696543 *  0.980707 *   4.00000    1.000000    
     35 Si    c    0.096194 *  0.396196 *  0.646846 *   4.00000    1.000000    
     36 Si    c    0.302266 *  0.898664 *  0.314495 *   4.00000    1.000000    
     37 Si    c    0.251789 *  0.340358 *  0.950188 *   4.00000    1.000000    
     38 Si    c    0.662379 *  0.909114 *  0.286122 *   4.00000    1.000000    
     39 Si    c    0.089003 *  0.746760 *  0.620115 *   4.00000    1.000000    
     40 Si    c    0.747193 *  0.658713 *  0.450348 *   4.00000    1.000000    
     41 Si    c    0.339794 *  0.088406 *  0.784981 *   4.00000    1.000000    
     42 Si    c    0.911770 *  0.248527 *  0.119604 *   4.00000    1.000000    
     43 Si    c    0.338379 *  0.248552 *  0.381752 *   4.00000    1.000000    
     44 Si    c    0.912536 *  0.667277 *  0.045409 *   4.00000    1.000000    
     45 Si    c    0.747888 *  0.087061 *  0.713718 *   4.00000    1.000000    
     46 Si    c    0.660184 *  0.748746 *  0.879873 *   4.00000    1.000000    
     47 Si    c    0.088687 *  0.345259 *  0.545526 *   4.00000    1.000000    
     48 Si    c    0.247370 *  0.899912 *  0.213816 *   4.00000    1.000000    
     49 Si    c    0.974333 *  0.121588 *  0.965268 *   4.00000    1.000000    
     50 Si    c    0.879930 *  0.847057 *  0.298678 *   4.00000    1.000000    
     51 Si    c    0.148688 *  0.024415 *  0.634781 *   4.00000    1.000000    
     52 Si    c    0.026389 *  0.875417 *  0.465615 *   4.00000    1.000000    
     53 Si    c    0.121834 *  0.151561 *  0.799664 *   4.00000    1.000000    
     54 Si    c    0.853421 *  0.968896 *  0.133227 *   4.00000    1.000000    
     55 Si    c    0.121846 *  0.967464 *  0.364722 *   4.00000    1.000000    
     56 Si    c    0.850819 *  0.880470 *  0.030784 *   4.00000    1.000000    
     57 Si    c    0.028005 *  0.149897 *  0.698798 *   4.00000    1.000000    
     58 Si    c    0.877692 *  0.028181 *  0.864515 *   4.00000    1.000000    
     59 Ge    c    0.150462 *  0.123690 *  0.531987 *   4.00000    1.000000    
     60 Si    c    0.966997 *  0.838988 *  0.196933 *   4.00000    1.000000    
     61 O2    c    0.928592 *  0.003321 *  0.998921 *   0.87073    1.000000    
     62 O2    c    0.002593 *  0.926590 *  0.331118 *   0.87073    1.000000    
     63 O2    c    0.070381 *  0.067423 *  0.668010 *   0.87073    1.000000    
     64 O3    c    0.061811 *  0.997234 *  0.496163 *   1.33043    1.000000    
     65 O2    c    0.000278 *  0.070862 *  0.832284 *   0.87073    1.000000    
     66 O2    c    0.936124 *  0.929725 *  0.164756 *   0.87073    1.000000    
     67 O2    c    0.340864 *  0.575580 *  0.333034 *   0.87073    1.000000    
     68 O2    c    0.420493 *  0.758861 *  0.666578 *   0.87073    1.000000    
     69 O2    c    0.240271 *  0.658403 *  0.999622 *   0.87073    1.000000    
     70 O2    c    0.659900 *  0.421136 *  0.831547 *   0.87073    1.000000    
     71 O2    c    0.570314 *  0.223742 *  0.168006 *   0.87073    1.000000    
     72 O2    c    0.762872 *  0.343741 *  0.498811 *   0.87073    1.000000    
     73 O3    c    0.571876 *  0.335698 *  0.997060 *   1.33043    1.000000    
     74 O2    c    0.761382 *  0.418657 *  0.666454 *   0.87073    1.000000    
     75 O2    c    0.658387 *  0.235907 *  0.333269 *   0.87073    1.000000    
     76 O2    c    0.422323 *  0.663174 *  0.499286 *   0.87073    1.000000    
     77 O2    c    0.248492 *  0.574495 *  0.166009 *   0.87073    1.000000    
     78 O2    c    0.340659 *  0.762697 *  0.833404 *   0.87073    1.000000    
     79 O2    c    0.128374 *  0.211285 *  0.970034 *   0.87073    1.000000    
     80 O2    c    0.788820 *  0.909925 *  0.306082 *   0.87073    1.000000    
     81 O2    c    0.088236 *  0.871171 *  0.641662 *   0.87073    1.000000    
     82 O2    c    0.872716 *  0.783387 *  0.470787 *   0.87073    1.000000    
     83 O2    c    0.212947 *  0.088590 *  0.804680 *   0.87073    1.000000    
     84 O2    c    0.912658 *  0.123215 *  0.138751 *   0.87073    1.000000    
     85 O2    c    0.212402 *  0.122182 *  0.361567 *   0.87073    1.000000    
     86 O2    c    0.916863 *  0.793361 *  0.022663 *   0.87073    1.000000    
     87 O2    c    0.873788 *  0.086622 *  0.693331 *   0.87073    1.000000    
     88 O2    c    0.786206 *  0.874138 *  0.859380 *   0.87073    1.000000    
     89 O3    c    0.084935 *  0.221054 *  0.523931 *   1.33043    1.000000    
     90 O2    c    0.122594 *  0.898218 *  0.192707 *   0.87073    1.000000    
     91 O2    c    0.930644 *  0.860841 *  0.247883 *   0.87073    1.000000    
     92 O3    c    0.127533 *  0.059020 *  0.585112 *   1.33043    1.000000    
     93 O2    c    0.930341 *  0.066822 *  0.915186 *   0.87073    1.000000    
     94 O2    c    0.067227 *  0.140226 *  0.749657 *   0.87073    1.000000    
     95 O2    c    0.863365 *  0.932636 *  0.081586 *   0.87073    1.000000    
     96 O2    c    0.066705 *  0.923015 *  0.414618 *   0.87073    1.000000    
     97 O2    c    0.910533 *  0.208527 *  0.977785 *   0.87073    1.000000    
     98 O2    c    0.796282 *  0.695416 *  0.311056 *   0.87073    1.000000    
     99 O2    c    0.301729 *  0.095441 *  0.645727 *   0.87073    1.000000    
    100 O2    c    0.100085 *  0.799482 *  0.480566 *   0.87073    1.000000    
    101 O2    c    0.204133 *  0.303202 *  0.811550 *   0.87073    1.000000    
    102 O2    c    0.702406 *  0.898269 *  0.146411 *   0.87073    1.000000    
    103 O2    c    0.205045 *  0.899083 *  0.352916 *   0.87073    1.000000    
    104 O2    c    0.698614 *  0.795918 *  0.019101 *   0.87073    1.000000    
    105 O2    c    0.097889 *  0.299842 *  0.684997 *   0.87073    1.000000    
    106 O2    c    0.795725 *  0.097724 *  0.852833 *   0.87073    1.000000    
    107 O3    c    0.313106 *  0.211500 *  0.521569 *   1.33043    1.000000    
    108 O3    c    0.894653 *  0.693076 *  0.184645 *   1.33043    1.000000    
    109 O2    c    0.326940 *  0.640695 *  0.250023 *   0.87073    1.000000    
    110 O2    c    0.356053 *  0.678740 *  0.583001 *   0.87073    1.000000    
    111 O2    c    0.322396 *  0.677588 *  0.916270 *   0.87073    1.000000    
    112 O2    c    0.677742 *  0.353455 *  0.749191 *   0.87073    1.000000    
    113 O3    c    0.635699 *  0.314307 *  0.086495 *   1.33043    1.000000    
    114 O2    c    0.679740 *  0.323715 *  0.415396 *   0.87073    1.000000    
    115 O2    c    0.373441 *  0.330653 *  0.968247 *   0.87073    1.000000    
    116 O2    c    0.671131 *  0.040943 *  0.304786 *   0.87073    1.000000    
    117 O2    c    0.956368 *  0.624237 *  0.638019 *   0.87073    1.000000    
    118 O2    c    0.626248 *  0.671026 *  0.469201 *   0.87073    1.000000    
    119 O2    c    0.329546 *  0.956549 *  0.803689 *   0.87073    1.000000    
    120 O2    c    0.043872 *  0.372771 *  0.136699 *   0.87073    1.000000    
    121 O2    c    0.328795 *  0.370492 *  0.362980 *   0.87073    1.000000    
    122 O2    c    0.047702 *  0.673571 *  0.030643 *   0.87073    1.000000    
    123 O2    c    0.625417 *  0.954021 *  0.695796 *   0.87073    1.000000    
    124 O2    c    0.669567 *  0.626441 *  0.860971 *   0.87073    1.000000    
    125 O2    c    0.955713 *  0.335224 *  0.528431 *   0.87073    1.000000    
    126 O2    c    0.370677 *  0.032506 *  0.196439 *   0.87073    1.000000    
    127 O3    c    0.770599 *  0.292677 *  0.011333 *   1.33043    1.000000    
    128 O2    c    0.694462 *  0.464115 *  0.342595 *   0.87073    1.000000    
    129 O2    c    0.532812 *  0.227183 *  0.676646 *   0.87073    1.000000    
    130 O2    c    0.230956 *  0.700932 *  0.511084 *   0.87073    1.000000    
    131 O2    c    0.303859 *  0.534585 *  0.842850 *   0.87073    1.000000    
    132 O2    c    0.472931 *  0.765840 *  0.177648 *   0.87073    1.000000    
    133 O2    c    0.304897 *  0.766499 *  0.322367 *   0.87073    1.000000    
    134 O2    c    0.467308 *  0.694147 *  0.988661 *   0.87073    1.000000    
    135 O2    c    0.229512 *  0.530835 *  0.655011 *   0.87073    1.000000    
    136 O2    c    0.696489 *  0.229453 *  0.822194 *   0.87073    1.000000    
    137 O2    c    0.536027 *  0.305881 *  0.488214 *   0.87073    1.000000    
    138 O3    c    0.755052 *  0.454119 *  0.159674 *   1.33043    1.000000    
    139 O3    c    0.789392 *  0.541358 *  0.025322 *   1.33043    1.000000    
    140 O2    c    0.463924 *  0.247008 *  0.362303 *   0.87073    1.000000    
    141 O2    c    0.749473 *  0.212894 *  0.693978 *   0.87073    1.000000    
    142 O2    c    0.216164 *  0.470204 *  0.526520 *   0.87073    1.000000    
    143 O2    c    0.534821 *  0.750652 *  0.861054 *   0.87073    1.000000    
    144 O2    c    0.252469 *  0.776017 *  0.194604 *   0.87073    1.000000    
    145 O2    c    0.537110 *  0.782462 *  0.305464 *   0.87073    1.000000    
    146 O2    c    0.246867 *  0.463605 *  0.970557 *   0.87073    1.000000    
    147 O2    c    0.215600 *  0.748159 *  0.639374 *   0.87073    1.000000    
    148 O2    c    0.464897 *  0.215112 *  0.804644 *   0.87073    1.000000    
    149 O2    c    0.751059 *  0.535856 *  0.470150 *   0.87073    1.000000    
    150 O2    c    0.786851 *  0.252438 *  0.137415 *   0.87073    1.000000    
    151 O2    c    0.230844 *  0.324264 *  0.895904 *   0.87073    1.000000    
    152 O2    c    0.681067 *  0.906872 *  0.231768 *   0.87073    1.000000    
    153 O2    c    0.093160 *  0.770333 *  0.565890 *   0.87073    1.000000    
    154 O2    c    0.766739 *  0.674833 *  0.396035 *   0.87073    1.000000    
    155 O2    c    0.323225 *  0.089781 *  0.730641 *   0.87073    1.000000    
    156 O2    c    0.912170 *  0.237445 *  0.064984 *   0.87073    1.000000    
    157 O2    c    0.320818 *  0.231956 *  0.436414 *   0.87073    1.000000    
    158 O3    c    0.906368 *  0.691353 *  0.098468 *   1.33043    1.000000    
    159 O2    c    0.767944 *  0.090728 *  0.768080 *   0.87073    1.000000    
    160 O2    c    0.677202 *  0.766599 *  0.934275 *   0.87073    1.000000    
    161 O2    c    0.093829 *  0.324007 *  0.599840 *   0.87073    1.000000    
    162 O2    c    0.229959 *  0.899371 *  0.268317 *   0.87073    1.000000    
    163 O2    c    0.589103 *  0.557407 *  0.989434 *   0.87073    1.000000    
    164 O2    c    0.440917 *  0.024676 *  0.323838 *   0.87073    1.000000    
    165 O2    c    0.969728 *  0.408708 *  0.655764 *   0.87073    1.000000    
    166 O2    c    0.413928 *  0.444829 *  0.490730 *   0.87073    1.000000    
    167 O2    c    0.558144 *  0.971006 *  0.823573 *   0.87073    1.000000    
    168 O3    c    0.041325 *  0.588515 *  0.159276 *   1.33043    1.000000    
    169 O2    c    0.557226 *  0.583849 *  0.341632 *   0.87073    1.000000    
    170 O2    c    0.021100 *  0.444974 *  0.011804 *   0.87073    1.000000    
    171 O2    c    0.412646 *  0.968999 *  0.675567 *   0.87073    1.000000    
    172 O2    c    0.441679 *  0.413731 *  0.841026 *   0.87073    1.000000    
    173 O2    c    0.970700 *  0.563241 *  0.509834 *   0.87073    1.000000    
    174 O2    c    0.590357 *  0.023658 *  0.176370 *   0.87073    1.000000    
    175 O2    c    0.582347 *  0.159696 *  0.250518 *   0.87073    1.000000    
    176 O2    c    0.832263 *  0.418724 *  0.582826 *   0.87073    1.000000    
    177 O2    c    0.583793 *  0.418206 *  0.914500 *   0.87073    1.000000    
    178 O2    c    0.415936 *  0.833312 *  0.749751 *   0.87073    1.000000    
    179 O2    c    0.163914 *  0.580683 *  0.083477 *   0.87073    1.000000    
    180 O2    c    0.416118 *  0.581913 *  0.416124 *   0.87073    1.000000    
    181 F     c    0.455382 *  0.901219 *  0.249715 *   0.56000    1.000000    
    182 F     c    0.095344 *  0.548326 *  0.583309 *   0.56000    1.000000    
    183 F     c    0.450164 *  0.547330 *  0.916026 *   0.56000    1.000000    
    184 F     c    0.548069 *  0.095178 *  0.749935 *   0.56000    1.000000    
    185 F     c    0.893564 *  0.474319 *  0.090772 *   0.56000    1.000000    
    186 F     c    0.545569 *  0.450707 *  0.416524 *   0.56000    1.000000    
    187 O2    s    0.925118 *  0.003170 *  0.998619 *  -2.87073    1.000000    
    188 O2    s    0.002398 *  0.922381 *  0.331299 *  -2.87073    1.000000    
    189 O2    s    0.074249 *  0.072066 *  0.667844 *  -2.87073    1.000000    
    190 O3    s    0.065738 *  0.995029 *  0.495973 *  -3.33043    1.000000    
    191 O2    s    0.000020 *  0.075034 *  0.832275 *  -2.87073    1.000000    
    192 O2    s    0.929942 *  0.924838 *  0.164492 *  -2.87073    1.000000    
    193 O2    s    0.352821 *  0.583248 *  0.333006 *  -2.87073    1.000000    
    194 O2    s    0.412957 *  0.763252 *  0.666515 *  -2.87073    1.000000    
    195 O2    s    0.235779 *  0.646939 *  0.999671 *  -2.87073    1.000000    
    196 O2    s    0.647969 *  0.413452 *  0.831585 *  -2.87073    1.000000    
    197 O2    s    0.578734 *  0.220491 *  0.168051 *  -2.87073    1.000000    
    198 O2    s    0.766990 *  0.355615 *  0.498803 *  -2.87073    1.000000    
    199 O3    s    0.577602 *  0.346857 *  0.996761 *  -3.33043    1.000000    
    200 O2    s    0.765478 *  0.411022 *  0.666458 *  -2.87073    1.000000    
    201 O2    s    0.646639 *  0.231655 *  0.333316 *  -2.87073    1.000000    
    202 O2    s    0.414580 *  0.651296 *  0.499384 *  -2.87073    1.000000    
    203 O2    s    0.243505 *  0.582169 *  0.166268 *  -2.87073    1.000000    
    204 O2    s    0.352317 *  0.766678 *  0.833378 *  -2.87073    1.000000    
    205 O2    s    0.124461 *  0.214901 *  0.967504 *  -2.87073    1.000000    
    206 O2    s    0.785195 *  0.903270 *  0.303266 *  -2.87073    1.000000    
    207 O2    s    0.094670 *  0.874361 *  0.638731 *  -2.87073    1.000000    
    208 O2    s    0.875839 *  0.779965 *  0.468076 *  -2.87073    1.000000    
    209 O2    s    0.216371 *  0.095253 *  0.802139 *  -2.87073    1.000000    
    210 O2    s    0.906455 *  0.120664 *  0.136162 *  -2.87073    1.000000    
    211 O2    s    0.215909 *  0.118976 *  0.363971 *  -2.87073    1.000000    
    212 O2    s    0.909385 *  0.790165 *  0.025725 *  -2.87073    1.000000    
    213 O2    s    0.877076 *  0.093374 *  0.695997 *  -2.87073    1.000000    
    214 O2    s    0.782912 *  0.877547 *  0.862014 *  -2.87073    1.000000    
    215 O3    s    0.090745 *  0.225562 *  0.526767 *  -3.33043    1.000000    
    216 O2    s    0.120378 *  0.892464 *  0.195365 *  -2.87073    1.000000    
    217 O2    s    0.928668 *  0.856954 *  0.248339 *  -2.87073    1.000000    
    218 O3    s    0.131841 *  0.060903 *  0.585881 *  -3.33043    1.000000    
    219 O2    s    0.929446 *  0.068741 *  0.915195 *  -2.87073    1.000000    
    220 O2    s    0.069043 *  0.142627 *  0.749622 *  -2.87073    1.000000    
    221 O2    s    0.860870 *  0.930853 *  0.081616 *  -2.87073    1.000000    
    222 O2    s    0.068471 *  0.922722 *  0.414649 *  -2.87073    1.000000    
    223 O2    s    0.916819 *  0.208948 *  0.980685 *  -2.87073    1.000000    
    224 O2    s    0.794828 *  0.701306 *  0.313724 *  -2.87073    1.000000    
    225 O2    s    0.295685 *  0.087948 *  0.648491 *  -2.87073    1.000000    
    226 O2    s    0.092066 *  0.797328 *  0.482964 *  -2.87073    1.000000    
    227 O2    s    0.205510 *  0.297062 *  0.814247 *  -2.87073    1.000000    
    228 O2    s    0.708598 *  0.905938 *  0.149006 *  -2.87073    1.000000    
    229 O2    s    0.206213 *  0.906347 *  0.350198 *  -2.87073    1.000000    
    230 O2    s    0.704726 *  0.794597 *  0.016394 *  -2.87073    1.000000    
    231 O2    s    0.090276 *  0.293741 *  0.682567 *  -2.87073    1.000000    
    232 O2    s    0.794464 *  0.090165 *  0.850178 *  -2.87073    1.000000    
    233 O3    s    0.308131 *  0.213286 *  0.518638 *  -3.33043    1.000000    
    234 O3    s    0.903256 *  0.702603 *  0.183228 *  -3.33043    1.000000    
    235 O2    s    0.332727 *  0.652417 *  0.250002 *  -2.87073    1.000000    
    236 O2    s    0.344372 *  0.672901 *  0.582995 *  -2.87073    1.000000    
    237 O2    s    0.328283 *  0.671736 *  0.916208 *  -2.87073    1.000000    
    238 O2    s    0.671776 *  0.341672 *  0.749188 *  -2.87073    1.000000    
    239 O3    s    0.646159 *  0.319488 *  0.086776 *  -3.33043    1.000000    
    240 O2    s    0.673569 *  0.329386 *  0.415481 *  -2.87073    1.000000    
    241 O2    s    0.376326 *  0.340503 *  0.965998 *  -2.87073    1.000000    
    242 O2    s    0.661184 *  0.034159 *  0.302493 *  -2.87073    1.000000    
    243 O2    s    0.963103 *  0.620990 *  0.635696 *  -2.87073    1.000000    
    244 O2    s    0.622686 *  0.660773 *  0.466989 *  -2.87073    1.000000    
    245 O2    s    0.339520 *  0.963129 *  0.801430 *  -2.87073    1.000000    
    246 O2    s    0.037605 *  0.375507 *  0.134758 *  -2.87073    1.000000    
    247 O2    s    0.338821 *  0.373861 *  0.365202 *  -2.87073    1.000000    
    248 O2    s    0.041541 *  0.663807 *  0.032332 *  -2.87073    1.000000    
    249 O2    s    0.622175 *  0.960869 *  0.697997 *  -2.87073    1.000000    
    250 O2    s    0.659685 *  0.623219 *  0.863256 *  -2.87073    1.000000    
    251 O2    s    0.962473 *  0.345447 *  0.530628 *  -2.87073    1.000000    
    252 O2    s    0.374031 *  0.025693 *  0.198702 *  -2.87073    1.000000    
    253 O3    s    0.778866 *  0.299983 *  0.013789 *  -3.33043    1.000000    
    254 O2    s    0.687185 *  0.463717 *  0.345697 *  -2.87073    1.000000    
    255 O2    s    0.533410 *  0.220230 *  0.679740 *  -2.87073    1.000000    
    256 O2    s    0.224014 *  0.693196 *  0.514116 *  -2.87073    1.000000    
    257 O2    s    0.311396 *  0.535133 *  0.845964 *  -2.87073    1.000000    
    258 O2    s    0.472169 *  0.772910 *  0.180776 *  -2.87073    1.000000    
    259 O2    s    0.312496 *  0.773413 *  0.319259 *  -2.87073    1.000000    
    260 O2    s    0.466646 *  0.686710 *  0.985473 *  -2.87073    1.000000    
    261 O2    s    0.222599 *  0.531557 *  0.651918 *  -2.87073    1.000000    
    262 O2    s    0.688889 *  0.222303 *  0.819023 *  -2.87073    1.000000    
    263 O2    s    0.536792 *  0.313775 *  0.485125 *  -2.87073    1.000000    
    264 O3    s    0.759483 *  0.449899 *  0.155976 *  -3.33043    1.000000    
    265 O3    s    0.794735 *  0.540890 *  0.028016 *  -3.33043    1.000000    
    266 O2    s    0.466725 *  0.255106 *  0.364719 *  -2.87073    1.000000    
    267 O2    s    0.741538 *  0.207805 *  0.696598 *  -2.87073    1.000000    
    268 O2    s    0.211154 *  0.473151 *  0.529151 *  -2.87073    1.000000    
    269 O2    s    0.532061 *  0.742701 *  0.863549 *  -2.87073    1.000000    
    270 O2    s    0.260142 *  0.781131 *  0.197171 *  -2.87073    1.000000    
    271 O2    s    0.534300 *  0.787434 *  0.302895 *  -2.87073    1.000000    
    272 O2    s    0.255352 *  0.466567 *  0.967979 *  -2.87073    1.000000    
    273 O2    s    0.210372 *  0.740197 *  0.636700 *  -2.87073    1.000000    
    274 O2    s    0.467595 *  0.209782 *  0.802012 *  -2.87073    1.000000    
    275 O2    s    0.742836 *  0.532743 *  0.467543 *  -2.87073    1.000000    
    276 O2    s    0.791438 *  0.258354 *  0.135379 *  -2.87073    1.000000    
    277 O2    s    0.240559 *  0.333921 *  0.896863 *  -2.87073    1.000000    
    278 O2    s    0.671225 *  0.906374 *  0.232589 *  -2.87073    1.000000    
    279 O2    s    0.093157 *  0.760759 *  0.566659 *  -2.87073    1.000000    
    280 O2    s    0.757379 *  0.665220 *  0.396904 *  -2.87073    1.000000    
    281 O2    s    0.332829 *  0.090075 *  0.731552 *  -2.87073    1.000000    
    282 O2    s    0.911430 *  0.245189 *  0.065691 *  -2.87073    1.000000    
    283 O2    s    0.330706 *  0.241100 *  0.435364 *  -2.87073    1.000000    
    284 O3    s    0.906568 *  0.681449 *  0.096255 *  -3.33043    1.000000    
    285 O2    s    0.758416 *  0.090882 *  0.767209 *  -2.87073    1.000000    
    286 O2    s    0.667630 *  0.757398 *  0.933335 *  -2.87073    1.000000    
    287 O2    s    0.093618 *  0.333667 *  0.599229 *  -2.87073    1.000000    
    288 O2    s    0.239399 *  0.899332 *  0.267424 *  -2.87073    1.000000    
    289 O2    s    0.584430 *  0.557883 *  0.986109 *  -2.87073    1.000000    
    290 O2    s    0.440948 *  0.019805 *  0.320471 *  -2.87073    1.000000    
    291 O2    s    0.974829 *  0.413749 *  0.652517 *  -2.87073    1.000000    
    292 O2    s    0.418662 *  0.444609 *  0.487310 *  -2.87073    1.000000    
    293 O2    s    0.558357 *  0.975874 *  0.820194 *  -2.87073    1.000000    
    294 O3    s    0.038516 *  0.582230 *  0.155489 *  -3.33043    1.000000    
    295 O2    s    0.557745 *  0.579449 *  0.344966 *  -2.87073    1.000000    
    296 O2    s    0.018483 *  0.444170 *  0.014625 *  -2.87073    1.000000    
    297 O2    s    0.417150 *  0.973876 *  0.678919 *  -2.87073    1.000000    
    298 O2    s    0.441436 *  0.418358 *  0.844377 *  -2.87073    1.000000    
    299 O2    s    0.975722 *  0.563333 *  0.513123 *  -2.87073    1.000000    
    300 O2    s    0.585346 *  0.018129 *  0.179807 *  -2.87073    1.000000    
    301 O2    s    0.576571 *  0.148222 *  0.250652 *  -2.87073    1.000000    
    302 O2    s    0.843509 *  0.424146 *  0.582850 *  -2.87073    1.000000    
    303 O2    s    0.578217 *  0.423428 *  0.914476 *  -2.87073    1.000000    
    304 O2    s    0.421473 *  0.844222 *  0.749777 *  -2.87073    1.000000    
    305 O2    s    0.154507 *  0.576194 *  0.083322 *  -2.87073    1.000000    
    306 O2    s    0.421763 *  0.576464 *  0.416182 *  -2.87073    1.000000    
    307 F     s    0.455426 *  0.901155 *  0.249640 *  -1.56000    1.000000    
    308 F     s    0.095646 *  0.548438 *  0.583355 *  -1.56000    1.000000    
    309 F     s    0.449706 *  0.547458 *  0.916108 *  -1.56000    1.000000    
    310 F     s    0.548344 *  0.095647 *  0.750001 *  -1.56000    1.000000    
    311 F     s    0.892427 *  0.479124 *  0.092769 *  -1.56000    1.000000    
    312 F     s    0.545534 *  0.450413 *  0.416613 *  -1.56000    1.000000    
--------------------------------------------------------------------------------



********************************************************************************
*  General input information                                                   *
********************************************************************************

  Species output for all configurations : 

--------------------------------------------------------------------------------
  Species    Type    Atomic    Atomic    Charge       Radii (Angs)     Library
                     Number     Mass       (e)     Cova   Ionic  VDW   Symbol
--------------------------------------------------------------------------------
    Si       Core       14      28.09   4.000000   1.200  0.000  2.100          
    O1       Core        8      16.00   1.733957   0.730  0.000  1.360          
    O1       Shell       8       0.00  -3.733957   0.730  0.000  1.360          
    O2       Core        8      16.00   0.870733   0.730  0.000  1.360          
    O2       Shell       8       0.00  -2.870733   0.730  0.000  1.360          
    O3       Core        8      16.00   1.330431   0.730  0.000  1.360          
    O3       Shell       8       0.00  -3.330431   0.730  0.000  1.360          
    F        Core        9      19.00   0.560000   0.710  0.000  1.300          
    F        Shell       9       0.00  -1.560000   0.710  0.000  1.300          
    Ge       Core       32      72.61   4.000000   1.170  0.000  1.750          
--------------------------------------------------------------------------------


  Lattice summation method               =    Ewald          (3-D)
                                         =    Parry          (2-D)
                                         =    Saunders et al (1-D)
  Accuracy factor for lattice sums       =   12.000


  Time limit = Infinity

  Maximum range for interatomic potentials =        16.000000 Angstroms

  Taper potentials to zero over   1.0000 Angstroms using polynomial

  General interatomic potentials :

--------------------------------------------------------------------------------
Atom  Types   Potential         A         B         C         D     Cutoffs(Ang)
  1     2                                                            Min    Max 
--------------------------------------------------------------------------------
Si   c O1   s Buckingham    0.132E+04 0.318      10.1      0.00     0.000 16.000
Si   c O2   s Buckingham    0.132E+04 0.318      10.1      0.00     0.000 16.000
Si   c O3   s Buckingham    0.132E+04 0.318      10.1      0.00     0.000 16.000
Ge   c O1   s Buckingham    0.150E+04 0.326      16.8      0.00     0.000 16.000
Ge   c O2   s Buckingham    0.150E+04 0.326      16.8      0.00     0.000 16.000
Ge   c O3   s Buckingham    0.150E+04 0.326      16.8      0.00     0.000 16.000
O1   s O1   s Buckingham    0.228E+05 0.149      10.9      0.00     0.000 16.000
O1   s O2   s Buckingham    0.228E+05 0.149      10.9      0.00     0.000 16.000
O1   s O3   s Buckingham    0.228E+05 0.149      10.9      0.00     0.000 16.000
O2   s O2   s Buckingham    0.228E+05 0.149      10.9      0.00     0.000 16.000
O2   s O3   s Buckingham    0.228E+05 0.149      10.9      0.00     0.000 16.000
O3   s O3   s Buckingham    0.228E+05 0.149      10.9      0.00     0.000 16.000
Si   c F    s Buckingham     977.     0.282      0.00      0.00     0.000 16.000
Ge   c F    s Buckingham     681.     0.320      0.00      0.00     0.000 16.000
F    s F    s Buckingham     540.     0.262      0.00      0.00     0.000 16.000
O1   s F    s Buckingham    0.168E+04 0.268      0.00      0.00     0.000 16.000
O2   s F    s Buckingham    0.168E+04 0.268      0.00      0.00     0.000 16.000
O3   s F    s Buckingham    0.168E+04 0.268      0.00      0.00     0.000 16.000
O2   c O2   s Spring (c-s)   76.0      0.00      0.00      0.00     0.000  0.800
O3   c O3   s Spring (c-s)   128.      0.00      0.00      0.00     0.000  0.800
O1   c O1   s Spring (c-s)   180.      0.00      0.00      0.00     0.000  0.800
F    c F    s Spring (c-s)   33.5      0.00      0.00      0.00     0.000  0.800
--------------------------------------------------------------------------------

  General Three-body potentials :

  Harmonic form:

--------------------------------------------------------------------------------
Atom    Atom    Atom           Force Constants            Theta     Cutoffs  
  1       2       3     (eVrad**-2/eVrad**-3/eVrad**-4)   (deg)  1-2  1-3  2-3
--------------------------------------------------------------------------------
Si    c O1    s O1    s  1.261        0.0000    0.0000   109.470 0.00 0.00 0.00
                                                                 1.90 1.90 3.50
Si    c O1    s O2    s  1.261        0.0000    0.0000   109.470 0.00 0.00 0.00
                                                                 1.90 1.90 3.50
Si    c O2    s O2    s  1.261        0.0000    0.0000   109.470 0.00 0.00 0.00
                                                                 1.90 1.90 3.50
--------------------------------------------------------------------------------

********************************************************************************
*  Output for configuration   1                                                *
********************************************************************************


  Components of energy : 

--------------------------------------------------------------------------------
  Interatomic potentials     =        2061.26425690 eV
  Three-body potentials      =           0.44620096 eV
  Monopole - monopole (real) =       -6610.94140445 eV
  Monopole - monopole (recip)=       -3170.29370861 eV
  Monopole - monopole (total)=       -9781.23511306 eV
  Neutralising energy        =          -6.45788425 eV
--------------------------------------------------------------------------------
  Total lattice energy       =       -7725.98253945 eV
--------------------------------------------------------------------------------
  Total lattice energy       =         -745439.2126 kJ/(mole unit cells)
--------------------------------------------------------------------------------


  Number of variables =      939

  Maximum number of calculations  =          5000
  Maximum Hessian update interval =            10
  Maximum step size               =   0.100000000
  Maximum parameter tolerance     =   0.000010000
  Maximum function  tolerance     =   0.000010000
  Maximum gradient  tolerance     =   0.001000000
  Maximum gradient  component     =   0.010000000

  Symmetry not applied to optimisation

  Cell parameters to be optimised using strains

  Newton-Raphson optimiser to be used

  BFGS hessian update to be used

  Dumpfile to be written after every cycle

  Start of bulk optimisation :

  Cycle:      0 Energy:     -7725.982539  Gnorm:      0.005638  CPU:    2.003
  ** Hessian calculated **
  Cycle:      1 Energy:     -7725.998870  Gnorm:      0.004685  CPU:    6.529
  Cycle:      2 Energy:     -7726.016411  Gnorm:      0.003446  CPU:   10.679
  Cycle:      3 Energy:     -7726.029059  Gnorm:      0.002159  CPU:   14.829
  Cycle:      4 Energy:     -7726.032122  Gnorm:      0.001313  CPU:   18.979
  Cycle:      5 Energy:     -7726.032883  Gnorm:      0.000730  CPU:   23.130
  Cycle:      6 Energy:     -7726.033074  Gnorm:      0.000387  CPU:   27.279
  Cycle:      7 Energy:     -7726.033107  Gnorm:      0.000275  CPU:   30.083
  Cycle:      8 Energy:     -7726.033123  Gnorm:      0.000193  CPU:   32.886
  Cycle:      9 Energy:     -7726.033131  Gnorm:      0.000136  CPU:   35.690
  Cycle:     10 Energy:     -7726.033135  Gnorm:      0.000095  CPU:   38.493
  ** Hessian calculated **
  Cycle:     11 Energy:     -7726.033135  Gnorm:      0.000037  CPU:   42.981


  **** Optimisation achieved ****


  Final energy =   -7726.03313467 eV
  Final Gnorm  =       0.00002593

  Components of energy : 

--------------------------------------------------------------------------------
  Interatomic potentials     =        2061.37208484 eV
  Three-body potentials      =           0.45085773 eV
  Monopole - monopole (real) =       -6610.61972318 eV
  Monopole - monopole (recip)=       -3170.77748190 eV
  Monopole - monopole (total)=       -9781.39720508 eV
  Neutralising energy        =          -6.45887216 eV
--------------------------------------------------------------------------------
  Total lattice energy       =       -7726.03313467 eV
--------------------------------------------------------------------------------
  Total lattice energy       =         -745444.0943 kJ/(mole unit cells)
--------------------------------------------------------------------------------

  Final fractional coordinates of atoms :

--------------------------------------------------------------------------------
   No.  Atomic        x           y          z          Radius
        Label       (Frac)      (Frac)     (Frac)       (Angs) 
--------------------------------------------------------------------------------
     1  Ge    c     0.699600    0.375700    0.033890    0.000000
     2  Si    c     0.613572    0.304936    0.364772    0.000000
     3  Si    c     0.668414    0.279905    0.697839    0.000000
     4  Si    c     0.295158    0.610280    0.532741    0.000000
     5  Si    c     0.374096    0.667792    0.866361    0.000000
     6  Si    c     0.324496    0.680011    0.200319    0.000000
     7  Si    c     0.375485    0.681715    0.301065    0.000000
     8  Si    c     0.322205    0.610696    0.967095    0.000000
     9  Si    c     0.290535    0.659113    0.634053    0.000000
    10  Si    c     0.614833    0.285431    0.798549    0.000000
    11  Si    c     0.673370    0.362993    0.464867    0.000000
    12  Si    c     0.684504    0.302478    0.136170    0.000000
    13  Si    c     0.527235    0.407530    0.964584    0.000000
    14  Si    c     0.575176    0.091758    0.300321    0.000000
    15  Si    c     0.879414    0.452046    0.632832    0.000000
    16  Si    c     0.464941    0.567241    0.467628    0.000000
    17  Si    c     0.410344    0.876198    0.801326    0.000000
    18  Si    c     0.113857    0.515242    0.136804    0.000000
    19  Si    c     0.410477    0.509548    0.366148    0.000000
    20  Si    c     0.114336    0.577443    0.034012    0.000000
    21  Si    c     0.461339    0.869669    0.699437    0.000000
    22  Si    c     0.578819    0.461550    0.862763    0.000000
    23  Si    c     0.882201    0.405587    0.530774    0.000000
    24  Si    c     0.518453    0.083487    0.198995    0.000000
    25  Si    c     0.297582    0.390630    0.849636    0.000000
    26  Si    c     0.600119    0.882517    0.185097    0.000000
    27  Si    c     0.092755    0.685967    0.518599    0.000000
    28  Si    c     0.691586    0.583235    0.349291    0.000000
    29  Si    c     0.390053    0.078304    0.684099    0.000000
    30  Si    c     0.901445    0.291696    0.017783    0.000000
    31  Si    c     0.397466    0.288873    0.481999    0.000000
    32  Ge    c     0.895437    0.574181    0.142855    0.000000
    33  Si    c     0.691056    0.084976    0.814475    0.000000
    34  Si    c     0.601381    0.687946    0.980691    0.000000
    35  Si    c     0.089148    0.380541    0.646424    0.000000
    36  Si    c     0.295030    0.881038    0.314025    0.000000
    37  Si    c     0.248829    0.331407    0.950140    0.000000
    38  Si    c     0.655712    0.892349    0.286022    0.000000
    39  Si    c     0.081426    0.730507    0.619902    0.000000
    40  Si    c     0.742139    0.641409    0.450253    0.000000
    41  Si    c     0.333600    0.077008    0.784979    0.000000
    42  Si    c     0.904528    0.235290    0.119569    0.000000
    43  Si    c     0.331911    0.231395    0.381911    0.000000
    44  Si    c     0.914943    0.664062    0.046985    0.000000
    45  Si    c     0.740243    0.071816    0.713764    0.000000
    46  Si    c     0.656015    0.739462    0.879587    0.000000
    47  Si    c     0.084758    0.330032    0.545121    0.000000
    48  Si    c     0.239941    0.880879    0.213226    0.000000
    49  Si    c     0.970560    0.114490    0.965256    0.000000
    50  Si    c     0.873516    0.830929    0.298696    0.000000
    51  Si    c     0.140301    0.007779    0.634794    0.000000
    52  Si    c     0.020887    0.858905    0.465660    0.000000
    53  Si    c     0.116702    0.141817    0.799769    0.000000
    54  Si    c     0.848699    0.956449    0.133623    0.000000
    55  Si    c     0.115270    0.950783    0.364650    0.000000
    56  Si    c     0.849773    0.873470    0.030817    0.000000
    57  Si    c     0.020605    0.134663    0.698830    0.000000
    58  Si    c     0.872432    0.019342    0.864705    0.000000
    59  Ge    c     0.145271    0.107271    0.531815    0.000000
    60  Si    c     0.960105    0.823644    0.196795    0.000000
    61  O2    c     0.925233    0.996272    0.998906    0.000000
    62  O2    c     0.995732    0.910040    0.331274    0.000000
    63  O2    c     0.062609    0.050985    0.668413    0.000000
    64  O3    c     0.055689    0.980640    0.496195    0.000000
    65  O2    c     0.995481    0.062511    0.832640    0.000000
    66  O2    c     0.932025    0.917364    0.164994    0.000000
    67  O2    c     0.334854    0.559347    0.333919    0.000000
    68  O2    c     0.412152    0.742747    0.667593    0.000000
    69  O2    c     0.239360    0.649044    0.001301    0.000000
    70  O2    c     0.654431    0.411471    0.830046    0.000000
    71  O2    c     0.561145    0.205972    0.166319    0.000000
    72  O2    c     0.759457    0.327287    0.497545    0.000000
    73  O3    c     0.572659    0.330917    0.996262    0.000000
    74  O2    c     0.752828    0.401629    0.664984    0.000000
    75  O2    c     0.650752    0.219120    0.331932    0.000000
    76  O2    c     0.418709    0.647069    0.500125    0.000000
    77  O2    c     0.242046    0.556409    0.167010    0.000000
    78  O2    c     0.334857    0.752852    0.834581    0.000000
    79  O2    c     0.124770    0.202738    0.969796    0.000000
    80  O2    c     0.782294    0.893772    0.306155    0.000000
    81  O2    c     0.079440    0.854430    0.641403    0.000000
    82  O2    c     0.867422    0.765673    0.470857    0.000000
    83  O2    c     0.207680    0.078714    0.804973    0.000000
    84  O2    c     0.904430    0.110064    0.139397    0.000000
    85  O2    c     0.205804    0.105411    0.361741    0.000000
    86  O2    c     0.919989    0.789660    0.023607    0.000000
    87  O2    c     0.866244    0.070724    0.693637    0.000000
    88  O2    c     0.781691    0.865408    0.859253    0.000000
    89  O3    c     0.081922    0.206484    0.523366    0.000000
    90  O2    c     0.114990    0.878592    0.192052    0.000000
    91  O2    c     0.925377    0.846273    0.247962    0.000000
    92  O3    c     0.119441    0.043065    0.585167    0.000000
    93  O2    c     0.924966    0.058683    0.915357    0.000000
    94  O2    c     0.061446    0.128280    0.749773    0.000000
    95  O2    c     0.861149    0.924645    0.081664    0.000000
    96  O2    c     0.060236    0.906139    0.414571    0.000000
    97  O2    c     0.907384    0.202104    0.977786    0.000000
    98  O2    c     0.789670    0.679121    0.310837    0.000000
    99  O2    c     0.293289    0.078169    0.645559    0.000000
   100  O2    c     0.096154    0.784336    0.480445    0.000000
   101  O2    c     0.199098    0.293689    0.811355    0.000000
   102  O2    c     0.697301    0.882249    0.146429    0.000000
   103  O2    c     0.198166    0.882198    0.352520    0.000000
   104  O2    c     0.698075    0.786634    0.018961    0.000000
   105  O2    c     0.090044    0.283968    0.684581    0.000000
   106  O2    c     0.789763    0.088177    0.852953    0.000000
   107  O3    c     0.308179    0.193569    0.521625    0.000000
   108  O3    c     0.884991    0.677570    0.184942    0.000000
   109  O2    c     0.321743    0.622749    0.250576    0.000000
   110  O2    c     0.350469    0.663494    0.583670    0.000000
   111  O2    c     0.319034    0.668090    0.917277    0.000000
   112  O2    c     0.670397    0.339711    0.747971    0.000000
   113  O3    c     0.632245    0.310969    0.086138    0.000000
   114  O2    c     0.673734    0.305930    0.414488    0.000000
   115  O2    c     0.370800    0.321426    0.967833    0.000000
   116  O2    c     0.663677    0.024243    0.304111    0.000000
   117  O2    c     0.948579    0.607649    0.637428    0.000000
   118  O2    c     0.621182    0.653357    0.469438    0.000000
   119  O2    c     0.323185    0.945527    0.804140    0.000000
   120  O2    c     0.035667    0.358551    0.137453    0.000000
   121  O2    c     0.322224    0.353593    0.363483    0.000000
   122  O2    c     0.048578    0.667084    0.032316    0.000000
   123  O2    c     0.617706    0.938416    0.696259    0.000000
   124  O2    c     0.665540    0.617551    0.860155    0.000000
   125  O2    c     0.952013    0.320020    0.527809    0.000000
   126  O2    c     0.362848    0.013476    0.195597    0.000000
   127  O3    c     0.768974    0.289169    0.012163    0.000000
   128  O2    c     0.687832    0.447210    0.342070    0.000000
   129  O2    c     0.524642    0.210887    0.675923    0.000000
   130  O2    c     0.227444    0.686429    0.511320    0.000000
   131  O2    c     0.298623    0.525216    0.843328    0.000000
   132  O2    c     0.467530    0.747461    0.177669    0.000000
   133  O2    c     0.298541    0.749592    0.322538    0.000000
   134  O2    c     0.465776    0.685140    0.989106    0.000000
   135  O2    c     0.221781    0.515056    0.655284    0.000000
   136  O2    c     0.690337    0.218792    0.821583    0.000000
   137  O2    c     0.531411    0.288203    0.487955    0.000000
   138  O3    c     0.748448    0.439660    0.160453    0.000000
   139  O3    c     0.790513    0.539910    0.026063    0.000000
   140  O2    c     0.457133    0.229804    0.361971    0.000000
   141  O2    c     0.741339    0.196813    0.693433    0.000000
   142  O2    c     0.212350    0.455483    0.526578    0.000000
   143  O2    c     0.530016    0.740881    0.861201    0.000000
   144  O2    c     0.246491    0.757494    0.194395    0.000000
   145  O2    c     0.531347    0.765807    0.305903    0.000000
   146  O2    c     0.244799    0.454526    0.971113    0.000000
   147  O2    c     0.207846    0.732213    0.639547    0.000000
   148  O2    c     0.458831    0.204245    0.804129    0.000000
   149  O2    c     0.746116    0.518209    0.469574    0.000000
   150  O2    c     0.778419    0.239125    0.136050    0.000000
   151  O2    c     0.227488    0.315315    0.895851    0.000000
   152  O2    c     0.674810    0.889928    0.231637    0.000000
   153  O2    c     0.086759    0.754195    0.565629    0.000000
   154  O2    c     0.760757    0.657483    0.395869    0.000000
   155  O2    c     0.315930    0.076228    0.730599    0.000000
   156  O2    c     0.908570    0.227261    0.064861    0.000000
   157  O2    c     0.315223    0.214692    0.436653    0.000000
   158  O3    c     0.905735    0.683638    0.100024    0.000000
   159  O2    c     0.760643    0.077421    0.768156    0.000000
   160  O2    c     0.674303    0.757491    0.933974    0.000000
   161  O2    c     0.088788    0.308858    0.599509    0.000000
   162  O2    c     0.222376    0.880365    0.267773    0.000000
   163  O2    c     0.587487    0.548679    0.988910    0.000000
   164  O2    c     0.433305    0.007683    0.322782    0.000000
   165  O2    c     0.961863    0.392093    0.654933    0.000000
   166  O2    c     0.409503    0.427495    0.491292    0.000000
   167  O2    c     0.551840    0.960581    0.824155    0.000000
   168  O3    c     0.034782    0.573642    0.160754    0.000000
   169  O2    c     0.550623    0.566589    0.341956    0.000000
   170  O2    c     0.018424    0.437331    0.012685    0.000000
   171  O2    c     0.404464    0.952934    0.675981    0.000000
   172  O2    c     0.437273    0.405544    0.840210    0.000000
   173  O2    c     0.967208    0.547733    0.509000    0.000000
   174  O2    c     0.582481    0.005273    0.175657    0.000000
   175  O2    c     0.574065    0.141356    0.249216    0.000000
   176  O2    c     0.826747    0.403376    0.581605    0.000000
   177  O2    c     0.580101    0.409103    0.913350    0.000000
   178  O2    c     0.409157    0.820093    0.750697    0.000000
   179  O2    c     0.159286    0.568221    0.084973    0.000000
   180  O2    c     0.410296    0.564316    0.416910    0.000000
   181  F     c     0.447997    0.880768    0.249374    0.000000
   182  F     c     0.090249    0.533340    0.583055    0.000000
   183  F     c     0.447245    0.537887    0.916042    0.000000
   184  F     c     0.540460    0.081426    0.749863    0.000000
   185  F     c     0.889672    0.466173    0.091457    0.000000
   186  F     c     0.539560    0.432305    0.416608    0.000000
   187  O2    s     0.921882    0.995993    0.998639    0.000000
   188  O2    s     0.995639    0.905874    0.331420    0.000000
   189  O2    s     0.066433    0.055717    0.668160    0.000000
   190  O3    s     0.059744    0.978458    0.495989    0.000000
   191  O2    s     0.995156    0.066508    0.832581    0.000000
   192  O2    s     0.925518    0.912222    0.164709    0.000000
   193  O2    s     0.346826    0.566851    0.333833    0.000000
   194  O2    s     0.404827    0.747284    0.667445    0.000000
   195  O2    s     0.234687    0.637619    0.001240    0.000000
   196  O2    s     0.642576    0.403754    0.830195    0.000000
   197  O2    s     0.569770    0.203354    0.166527    0.000000
   198  O2    s     0.763304    0.339126    0.497608    0.000000
   199  O3    s     0.577900    0.342170    0.995976    0.000000
   200  O2    s     0.757112    0.394184    0.665090    0.000000
   201  O2    s     0.639071    0.214798    0.332061    0.000000
   202  O2    s     0.410769    0.635213    0.500172    0.000000
   203  O2    s     0.237196    0.564480    0.167245    0.000000
   204  O2    s     0.346599    0.756715    0.834461    0.000000
   205  O2    s     0.120955    0.206509    0.967303    0.000000
   206  O2    s     0.778675    0.887061    0.303317    0.000000
   207  O2    s     0.086037    0.857688    0.638510    0.000000
   208  O2    s     0.870547    0.762427    0.468126    0.000000
   209  O2    s     0.211027    0.085248    0.802381    0.000000
   210  O2    s     0.898684    0.107531    0.136718    0.000000
   211  O2    s     0.209317    0.102171    0.364116    0.000000
   212  O2    s     0.912054    0.786109    0.026646    0.000000
   213  O2    s     0.869526    0.077606    0.696247    0.000000
   214  O2    s     0.778331    0.868716    0.861904    0.000000
   215  O3    s     0.087452    0.210815    0.526254    0.000000
   216  O2    s     0.112934    0.873371    0.194772    0.000000
   217  O2    s     0.923101    0.842145    0.248394    0.000000
   218  O3    s     0.123962    0.044827    0.585923    0.000000
   219  O2    s     0.924252    0.060626    0.915341    0.000000
   220  O2    s     0.063154    0.130560    0.749729    0.000000
   221  O2    s     0.858459    0.922422    0.081722    0.000000
   222  O2    s     0.062112    0.905920    0.414618    0.000000
   223  O2    s     0.913535    0.202263    0.980693    0.000000
   224  O2    s     0.788254    0.684937    0.313536    0.000000
   225  O2    s     0.287296    0.070890    0.648358    0.000000
   226  O2    s     0.087934    0.782003    0.482854    0.000000
   227  O2    s     0.200506    0.287606    0.814060    0.000000
   228  O2    s     0.703382    0.890143    0.149045    0.000000
   229  O2    s     0.199332    0.889429    0.349823    0.000000
   230  O2    s     0.704055    0.785607    0.016273    0.000000
   231  O2    s     0.082512    0.277911    0.682180    0.000000
   232  O2    s     0.788526    0.080548    0.850301    0.000000
   233  O3    s     0.303185    0.195489    0.518702    0.000000
   234  O3    s     0.894150    0.687179    0.183494    0.000000
   235  O2    s     0.327506    0.634645    0.250543    0.000000
   236  O2    s     0.338798    0.657670    0.583621    0.000000
   237  O2    s     0.324922    0.662234    0.917180    0.000000
   238  O2    s     0.664470    0.327993    0.748053    0.000000
   239  O3    s     0.642457    0.315469    0.086554    0.000000
   240  O2    s     0.667584    0.311685    0.414607    0.000000
   241  O2    s     0.373659    0.331356    0.965573    0.000000
   242  O2    s     0.653765    0.017402    0.301827    0.000000
   243  O2    s     0.955388    0.604474    0.635104    0.000000
   244  O2    s     0.617627    0.643170    0.467231    0.000000
   245  O2    s     0.333199    0.952080    0.801853    0.000000
   246  O2    s     0.029664    0.361360    0.135475    0.000000
   247  O2    s     0.332290    0.356920    0.365684    0.000000
   248  O2    s     0.042173    0.657422    0.033975    0.000000
   249  O2    s     0.614482    0.945317    0.698428    0.000000
   250  O2    s     0.655650    0.614276    0.862458    0.000000
   251  O2    s     0.958687    0.330208    0.529985    0.000000
   252  O2    s     0.366369    0.006950    0.197815    0.000000
   253  O3    s     0.777559    0.296203    0.014474    0.000000
   254  O2    s     0.680592    0.446810    0.345185    0.000000
   255  O2    s     0.525283    0.204049    0.679068    0.000000
   256  O2    s     0.220358    0.678546    0.514329    0.000000
   257  O2    s     0.306243    0.525667    0.846383    0.000000
   258  O2    s     0.466742    0.754735    0.180827    0.000000
   259  O2    s     0.306102    0.756457    0.319397    0.000000
   260  O2    s     0.465076    0.677739    0.985922    0.000000
   261  O2    s     0.215015    0.515842    0.652142    0.000000
   262  O2    s     0.682692    0.211580    0.818456    0.000000
   263  O2    s     0.532085    0.296117    0.484857    0.000000
   264  O3    s     0.752555    0.435415    0.156659    0.000000
   265  O3    s     0.795277    0.538495    0.028756    0.000000
   266  O2    s     0.459975    0.237924    0.364401    0.000000
   267  O2    s     0.733474    0.191848    0.696078    0.000000
   268  O2    s     0.207254    0.458320    0.529208    0.000000
   269  O2    s     0.527370    0.732993    0.863708    0.000000
   270  O2    s     0.254074    0.762762    0.197003    0.000000
   271  O2    s     0.528432    0.770731    0.303284    0.000000
   272  O2    s     0.253216    0.457511    0.968503    0.000000
   273  O2    s     0.202724    0.724266    0.636870    0.000000
   274  O2    s     0.461550    0.198878    0.801519    0.000000
   275  O2    s     0.737870    0.515192    0.466992    0.000000
   276  O2    s     0.783202    0.245090    0.134236    0.000000
   277  O2    s     0.237116    0.324949    0.896772    0.000000
   278  O2    s     0.664910    0.889406    0.232460    0.000000
   279  O2    s     0.086854    0.744686    0.566421    0.000000
   280  O2    s     0.751479    0.647949    0.396754    0.000000
   281  O2    s     0.325565    0.076521    0.731514    0.000000
   282  O2    s     0.907418    0.234883    0.065672    0.000000
   283  O2    s     0.325077    0.223811    0.435570    0.000000
   284  O3    s     0.905937    0.674039    0.097490    0.000000
   285  O2    s     0.751168    0.077614    0.767274    0.000000
   286  O2    s     0.664727    0.748297    0.933081    0.000000
   287  O2    s     0.088473    0.318460    0.598868    0.000000
   288  O2    s     0.231886    0.880488    0.266894    0.000000
   289  O2    s     0.582770    0.549371    0.985604    0.000000
   290  O2    s     0.433405    0.002767    0.319462    0.000000
   291  O2    s     0.967084    0.397265    0.651710    0.000000
   292  O2    s     0.414136    0.427302    0.487843    0.000000
   293  O2    s     0.552076    0.965352    0.820728    0.000000
   294  O3    s     0.032150    0.567473    0.156916    0.000000
   295  O2    s     0.551238    0.562270    0.345268    0.000000
   296  O2    s     0.015965    0.436614    0.015516    0.000000
   297  O2    s     0.409038    0.957906    0.679312    0.000000
   298  O2    s     0.437006    0.409970    0.843590    0.000000
   299  O2    s     0.972036    0.547782    0.512332    0.000000
   300  O2    s     0.577610    0.000098    0.179091    0.000000
   301  O2    s     0.568437    0.130174    0.249342    0.000000
   302  O2    s     0.837932    0.408675    0.581684    0.000000
   303  O2    s     0.574543    0.414425    0.913347    0.000000
   304  O2    s     0.414662    0.831004    0.750644    0.000000
   305  O2    s     0.150042    0.563943    0.084741    0.000000
   306  O2    s     0.415972    0.558954    0.416938    0.000000
   307  F     s     0.447955    0.880360    0.249299    0.000000
   308  F     s     0.090609    0.533506    0.583103    0.000000
   309  F     s     0.446836    0.537966    0.916138    0.000000
   310  F     s     0.540676    0.081846    0.749926    0.000000
   311  F     s     0.888450    0.471451    0.093739    0.000000
   312  F     s     0.539512    0.431900    0.416709    0.000000
--------------------------------------------------------------------------------

  Final Cartesian lattice vectors (Angstroms) :

       11.962794    0.005969    0.009713
       -5.990661   10.390350   -0.001442
        0.155520   -0.165587   29.427210


  Final cell parameters and derivatives :

--------------------------------------------------------------------------------
       a           11.962800 Angstrom     dE/de1(xx)     0.001718 eV/strain
       b           11.993639 Angstrom     dE/de2(yy)     0.001896 eV/strain
       c           29.428087 Angstrom     dE/de3(zz)     0.002988 eV/strain
       alpha       90.437433 Degrees      dE/de4(yz)    -0.000176 eV/strain
       beta        89.650847 Degrees      dE/de5(xz)     0.000251 eV/strain
       gamma      119.937436 Degrees      dE/de6(xy)    -0.000370 eV/strain
--------------------------------------------------------------------------------

  Primitive cell volume =          3658.775549 Angs**3

  Density of cell =      1.748698 g/cm**3

  Non-primitive cell volume =          3658.775549 Angs**3


  Final internal derivatives :

--------------------------------------------------------------------------------
   No.  Atomic          a             b             c           Radius
        Label          (eV)          (eV)          (eV)        (eV/Angs)
--------------------------------------------------------------------------------
      1 Ge    c       0.000000      0.000000      0.000000      0.000000
      2 Si    c       0.000046      0.000417      0.000049      0.000000
      3 Si    c       0.000158      0.000106     -0.000836      0.000000
      4 Si    c      -0.000056     -0.000015     -0.000028      0.000000
      5 Si    c       0.000042      0.000066     -0.000068      0.000000
      6 Si    c      -0.000445      0.000297      0.001077      0.000000
      7 Si    c      -0.000093      0.000447      0.000085      0.000000
      8 Si    c       0.000178     -0.000018     -0.000330      0.000000
      9 Si    c       0.000145      0.000116     -0.000059      0.000000
     10 Si    c      -0.000003     -0.000199      0.000445      0.000000
     11 Si    c      -0.000046      0.000087     -0.000380      0.000000
     12 Si    c       0.001674      0.000262      0.005140      0.000000
     13 Si    c      -0.001315      0.001801     -0.003997      0.000000
     14 Si    c       0.000007      0.000129     -0.000152      0.000000
     15 Si    c       0.000207      0.000075     -0.000156      0.000000
     16 Si    c      -0.000073     -0.000123     -0.000584      0.000000
     17 Si    c      -0.000034      0.000162      0.000720      0.000000
     18 Si    c       0.000070     -0.000186     -0.000648      0.000000
     19 Si    c      -0.000110      0.000387     -0.000258      0.000000
     20 Si    c       0.001086     -0.000181     -0.001280      0.000000
     21 Si    c       0.000032      0.000234     -0.000625      0.000000
     22 Si    c      -0.000160      0.000165      0.000140      0.000000
     23 Si    c      -0.000137     -0.000075     -0.000221      0.000000
     24 Si    c       0.000693      0.000685      0.001005      0.000000
     25 Si    c      -0.000094     -0.000252     -0.000241      0.000000
     26 Si    c      -0.000201      0.000541      0.001927      0.000000
     27 Si    c      -0.000145      0.000233     -0.000760      0.000000
     28 Si    c       0.000143      0.000343      0.000028      0.000000
     29 Si    c       0.000058      0.000148     -0.000455      0.000000
     30 Si    c       0.000675     -0.000817     -0.001370      0.000000
     31 Si    c      -0.000333     -0.000029      0.000022      0.000000
     32 Ge    c       0.000206     -0.000296      0.000150      0.000000
     33 Si    c       0.000005     -0.000025      0.000431      0.000000
     34 Si    c       0.000059     -0.000328     -0.000001      0.000000
     35 Si    c       0.000091     -0.000244      0.000298      0.000000
     36 Si    c       0.000093      0.000396     -0.000688      0.000000
     37 Si    c      -0.000446     -0.000088     -0.000520      0.000000
     38 Si    c      -0.000299      0.000255     -0.000674      0.000000
     39 Si    c       0.000106      0.000283     -0.000188      0.000000
     40 Si    c       0.000106      0.000059     -0.000441      0.000000
     41 Si    c       0.000118      0.000009      0.000336      0.000000
     42 Si    c       0.000499     -0.000880      0.000936      0.000000
     43 Si    c      -0.000078      0.000347     -0.000071      0.000000
     44 Si    c      -0.001264      0.000980     -0.005618      0.000000
     45 Si    c       0.000035      0.000138     -0.000483      0.000000
     46 Si    c       0.000084     -0.000065      0.000252      0.000000
     47 Si    c      -0.000078     -0.000154     -0.000001      0.000000
     48 Si    c       0.000220      0.000647      0.001600      0.000000
     49 Si    c      -0.000245     -0.000138     -0.000140      0.000000
     50 Si    c       0.000013      0.000321      0.000328      0.000000
     51 Si    c       0.000182      0.000054      0.000051      0.000000
     52 Si    c       0.000135      0.000136     -0.000412      0.000000
     53 Si    c       0.000249     -0.000023      0.000883      0.000000
     54 Si    c       0.000232     -0.000103      0.000632      0.000000
     55 Si    c      -0.000074      0.000162     -0.000108      0.000000
     56 Si    c      -0.000559      0.000748      0.001129      0.000000
     57 Si    c      -0.000094      0.000172     -0.001372      0.000000
     58 Si    c       0.000071      0.000031     -0.000139      0.000000
     59 Ge    c      -0.000137     -0.000013     -0.000778      0.000000
     60 Si    c      -0.000169      0.000121      0.001152      0.000000
     61 O2    c      -0.000145      0.000648     -0.000839      0.000000
     62 O2    c      -0.000042      0.000184      0.000140      0.000000
     63 O2    c       0.000014     -0.000320     -0.000077      0.000000
     64 O3    c      -0.000107     -0.000346      0.000007      0.000000
     65 O2    c       0.000086     -0.000079      0.000187      0.000000
     66 O2    c      -0.000542      0.000509      0.000075      0.000000
     67 O2    c      -0.000027      0.000248     -0.000110      0.000000
     68 O2    c       0.000074      0.000157      0.000024      0.000000
     69 O2    c       0.000266      0.000108     -0.000316      0.000000
     70 O2    c       0.000110      0.000305      0.000202      0.000000
     71 O2    c      -0.001251     -0.000759      0.004185      0.000000
     72 O2    c      -0.000305     -0.000095     -0.000135      0.000000
     73 O3    c      -0.003038     -0.000676     -0.003169      0.000000
     74 O2    c       0.000183      0.000302      0.000091      0.000000
     75 O2    c       0.000187      0.000239     -0.000268      0.000000
     76 O2    c       0.000090     -0.000021     -0.000209      0.000000
     77 O2    c       0.000112      0.000323      0.000463      0.000000
     78 O2    c      -0.000028     -0.000126     -0.000093      0.000000
     79 O2    c      -0.000152      0.000025     -0.000042      0.000000
     80 O2    c      -0.000167      0.000249     -0.000269      0.000000
     81 O2    c       0.000105      0.000162     -0.000410      0.000000
     82 O2    c      -0.000095      0.000004     -0.000273      0.000000
     83 O2    c      -0.000120      0.000045      0.000081      0.000000
     84 O2    c       0.000042      0.000410      0.000384      0.000000
     85 O2    c       0.000070      0.000238      0.000118      0.000000
     86 O2    c       0.000648      0.000029     -0.000479      0.000000
     87 O2    c      -0.000026      0.000088      0.000116      0.000000
     88 O2    c       0.000074      0.000055      0.000053      0.000000
     89 O3    c      -0.000488      0.000442      0.000089      0.000000
     90 O2    c       0.001676      0.000923      0.000088      0.000000
     91 O2    c      -0.000019      0.000458      0.000967      0.000000
     92 O3    c      -0.000062      0.000171      0.002240      0.000000
     93 O2    c      -0.000198     -0.000151      0.000089      0.000000
     94 O2    c      -0.000116     -0.000127      0.000241      0.000000
     95 O2    c      -0.000479     -0.000838     -0.001557      0.000000
     96 O2    c       0.000174      0.000323      0.000486      0.000000
     97 O2    c       0.000195     -0.000169     -0.000129      0.000000
     98 O2    c       0.000013      0.000442      0.000203      0.000000
     99 O2    c      -0.000032      0.000268     -0.000038      0.000000
    100 O2    c      -0.000049     -0.000115      0.000276      0.000000
    101 O2    c       0.000133     -0.000123     -0.000313      0.000000
    102 O2    c      -0.001567      0.000218      0.000531      0.000000
    103 O2    c      -0.000112      0.000286     -0.000196      0.000000
    104 O2    c      -0.000828     -0.000422     -0.000388      0.000000
    105 O2    c       0.000160      0.000211     -0.000436      0.000000
    106 O2    c       0.000261     -0.000004      0.000373      0.000000
    107 O3    c       0.000013     -0.000006     -0.000683      0.000000
    108 O3    c       0.000176     -0.000488      0.000138      0.000000
    109 O2    c      -0.000529      0.000568     -0.000878      0.000000
    110 O2    c       0.000126      0.000086     -0.000430      0.000000
    111 O2    c       0.000090     -0.000160      0.000209      0.000000
    112 O2    c       0.000279      0.000388     -0.000189      0.000000
    113 O3    c      -0.003598     -0.001073     -0.009058      0.000000
    114 O2    c      -0.000143      0.000190      0.000012      0.000000
    115 O2    c      -0.000810     -0.000252     -0.000011      0.000000
    116 O2    c      -0.000066      0.000501      0.000146      0.000000
    117 O2    c       0.000097      0.000020     -0.000069      0.000000
    118 O2    c      -0.000041     -0.000039     -0.000282      0.000000
    119 O2    c       0.000103      0.000001     -0.000363      0.000000
    120 O2    c       0.000536     -0.000193      0.000312      0.000000
    121 O2    c       0.000170      0.000353      0.000240      0.000000
    122 O2    c       0.000053      0.000396     -0.000855      0.000000
    123 O2    c      -0.000123      0.000184      0.000037      0.000000
    124 O2    c      -0.000058     -0.000066      0.000329      0.000000
    125 O2    c      -0.000040     -0.000053     -0.000101      0.000000
    126 O2    c       0.000162      0.000414      0.000538      0.000000
    127 O3    c      -0.001125     -0.000325     -0.001158      0.000000
    128 O2    c      -0.000041      0.000491      0.000099      0.000000
    129 O2    c       0.000241      0.000250      0.000443      0.000000
    130 O2    c       0.000029     -0.000192     -0.000166      0.000000
    131 O2    c       0.000099      0.000042      0.000174      0.000000
    132 O2    c      -0.000558      0.000458      0.000035      0.000000
    133 O2    c      -0.000163      0.000263     -0.000015      0.000000
    134 O2    c       0.000217     -0.000164     -0.000408      0.000000
    135 O2    c       0.000239      0.000274     -0.000245      0.000000
    136 O2    c       0.000022      0.000274     -0.000067      0.000000
    137 O2    c      -0.000417      0.000070     -0.000139      0.000000
    138 O3    c      -0.000134      0.003328      0.003482      0.000000
    139 O3    c      -0.001963     -0.000514     -0.002722      0.000000
    140 O2    c       0.000001      0.000315      0.000057      0.000000
    141 O2    c       0.000134      0.000336      0.000179      0.000000
    142 O2    c       0.000013      0.000063     -0.000100      0.000000
    143 O2    c       0.000195     -0.000066      0.000204      0.000000
    144 O2    c      -0.000513      0.000607      0.000379      0.000000
    145 O2    c      -0.000272      0.000125     -0.000050      0.000000
    146 O2    c       0.000093      0.000081     -0.000146      0.000000
    147 O2    c       0.000177      0.000140     -0.000028      0.000000
    148 O2    c       0.000234      0.000141     -0.000165      0.000000
    149 O2    c      -0.000139      0.000048     -0.000210      0.000000
    150 O2    c       0.000263     -0.000740      0.001482      0.000000
    151 O2    c      -0.000070     -0.000100      0.000287      0.000000
    152 O2    c      -0.000267      0.000359     -0.000234      0.000000
    153 O2    c       0.000125      0.000139      0.000289      0.000000
    154 O2    c       0.000013      0.000192      0.000490      0.000000
    155 O2    c       0.000036      0.000044      0.000112      0.000000
    156 O2    c       0.000138     -0.000986      0.000374      0.000000
    157 O2    c      -0.000056      0.000111     -0.000457      0.000000
    158 O3    c       0.000543      0.003763     -0.002694      0.000000
    159 O2    c       0.000145      0.000138     -0.000312      0.000000
    160 O2    c       0.000143     -0.000129     -0.000392      0.000000
    161 O2    c      -0.000146     -0.000085     -0.001272      0.000000
    162 O2    c       0.000118      0.000677     -0.000370      0.000000
    163 O2    c       0.000119      0.000151      0.000136      0.000000
    164 O2    c       0.000218      0.000488      0.000007      0.000000
    165 O2    c      -0.000099      0.000067     -0.000078      0.000000
    166 O2    c      -0.000215     -0.000006     -0.000400      0.000000
    167 O2    c      -0.000041      0.000002     -0.000189      0.000000
    168 O3    c       0.000712      0.000040      0.003226      0.000000
    169 O2    c       0.000125      0.000342      0.000275      0.000000
    170 O2    c       0.000451     -0.000469     -0.000212      0.000000
    171 O2    c      -0.000013      0.000001      0.000462      0.000000
    172 O2    c       0.000120     -0.000221      0.000311      0.000000
    173 O2    c      -0.000256     -0.000266     -0.000167      0.000000
    174 O2    c       0.000113      0.000982     -0.000099      0.000000
    175 O2    c       0.000297      0.000408     -0.000665      0.000000
    176 O2    c      -0.000159     -0.000212      0.000182      0.000000
    177 O2    c      -0.000184      0.000053     -0.000404      0.000000
    178 O2    c      -0.000195     -0.000091     -0.000219      0.000000
    179 O2    c       0.000956     -0.000001      0.000365      0.000000
    180 O2    c       0.000110      0.000120      0.000289      0.000000
    181 F     c      -0.000086      0.000699     -0.000192      0.000000
    182 F     c      -0.000107     -0.000083     -0.000097      0.000000
    183 F     c       0.000027     -0.000096     -0.000034      0.000000
    184 F     c      -0.000041      0.000055     -0.000109      0.000000
    185 F     c      -0.000721     -0.000557      0.000476      0.000000
    186 F     c       0.000021      0.000259     -0.000039      0.000000
    187 O2    s      -0.000625      0.000807     -0.000598      0.000000
    188 O2    s      -0.000102      0.000523      0.000049      0.000000
    189 O2    s      -0.000062     -0.000288     -0.000506      0.000000
    190 O3    s       0.000065     -0.000229     -0.000446      0.000000
    191 O2    s       0.000086      0.000098      0.000436      0.000000
    192 O2    s      -0.000443      0.000457     -0.000091      0.000000
    193 O2    s      -0.000002      0.000130      0.000003      0.000000
    194 O2    s       0.000093      0.000258     -0.000225      0.000000
    195 O2    s      -0.000122      0.000774     -0.000446      0.000000
    196 O2    s       0.000003      0.000230      0.000668      0.000000
    197 O2    s      -0.000403     -0.000093      0.005753      0.000000
    198 O2    s      -0.000291     -0.000008      0.000462      0.000000
    199 O3    s       0.000415      0.000774      0.000387      0.000000
    200 O2    s       0.000196      0.000255      0.000028      0.000000
    201 O2    s       0.000263      0.000362     -0.000274      0.000000
    202 O2    s       0.000001     -0.000039      0.000013      0.000000
    203 O2    s      -0.000274      0.000765     -0.000113      0.000000
    204 O2    s       0.000079     -0.000173     -0.000126      0.000000
    205 O2    s      -0.000072     -0.000131     -0.000411      0.000000
    206 O2    s      -0.000026      0.000268     -0.000275      0.000000
    207 O2    s       0.000257      0.000098     -0.000173      0.000000
    208 O2    s       0.000025      0.000052     -0.000039      0.000000
    209 O2    s      -0.000015      0.000047      0.000005      0.000000
    210 O2    s       0.000332      0.000459      0.000080      0.000000
    211 O2    s       0.000063      0.000254      0.000094      0.000000
    212 O2    s       0.001034     -0.000099     -0.001713      0.000000
    213 O2    s      -0.000093      0.000169     -0.000753      0.000000
    214 O2    s      -0.000035      0.000170      0.000221      0.000000
    215 O3    s      -0.000575      0.000188     -0.000188      0.000000
    216 O2    s       0.000994      0.001432     -0.000328      0.000000
    217 O2    s      -0.000525      0.001168      0.001366      0.000000
    218 O3    s       0.000001      0.000174      0.000309      0.000000
    219 O2    s      -0.000188     -0.000037     -0.000559      0.000000
    220 O2    s      -0.000124      0.000016      0.001035      0.000000
    221 O2    s      -0.000335     -0.000479     -0.001705      0.000000
    222 O2    s       0.000233      0.000416     -0.000258      0.000000
    223 O2    s       0.000007     -0.000179     -0.000898      0.000000
    224 O2    s      -0.000270      0.000560      0.000191      0.000000
    225 O2    s      -0.000034      0.000282     -0.000161      0.000000
    226 O2    s      -0.000012      0.000036     -0.000026      0.000000
    227 O2    s       0.000043     -0.000047      0.000948      0.000000
    228 O2    s      -0.001072      0.000418      0.001983      0.000000
    229 O2    s      -0.000194      0.000430     -0.000110      0.000000
    230 O2    s      -0.001013      0.000061     -0.000086      0.000000
    231 O2    s       0.000059      0.000086     -0.000061      0.000000
    232 O2    s       0.000276     -0.000065     -0.000233      0.000000
    233 O3    s       0.000060     -0.000168     -0.000595      0.000000
    234 O3    s      -0.000023      0.000500      0.002236      0.000000
    235 O2    s      -0.000678      0.001009     -0.000628      0.000000
    236 O2    s      -0.000020      0.000356      0.000023      0.000000
    237 O2    s      -0.000021     -0.000027     -0.000127      0.000000
    238 O2    s       0.000262      0.000322     -0.000002      0.000000
    239 O3    s      -0.000673      0.001172     -0.005964      0.000000
    240 O2    s      -0.000268      0.000433      0.000186      0.000000
    241 O2    s      -0.000135      0.000189     -0.000763      0.000000
    242 O2    s       0.000114      0.000585      0.000149      0.000000
    243 O2    s       0.000383     -0.000045     -0.000480      0.000000
    244 O2    s       0.000015     -0.000141      0.000019      0.000000
    245 O2    s       0.000094      0.000018      0.000254      0.000000
    246 O2    s       0.000296      0.000162     -0.000289      0.000000
    247 O2    s       0.000094      0.000280     -0.000092      0.000000
    248 O2    s      -0.000071     -0.000060     -0.000084      0.000000
    249 O2    s      -0.000120      0.000341     -0.000074      0.000000
    250 O2    s      -0.000044     -0.000146     -0.000202      0.000000
    251 O2    s      -0.000111     -0.000046      0.000667      0.000000
    252 O2    s       0.000493      0.000915      0.000789      0.000000
    253 O3    s       0.000395      0.001690     -0.001080      0.000000
    254 O2    s      -0.000054      0.000465      0.000280      0.000000
    255 O2    s       0.000204      0.000238     -0.000542      0.000000
    256 O2    s       0.000011     -0.000066      0.000551      0.000000
    257 O2    s      -0.000096     -0.000040     -0.000362      0.000000
    258 O2    s      -0.000786      0.000852      0.001096      0.000000
    259 O2    s      -0.000246      0.000176      0.000377      0.000000
    260 O2    s       0.000045     -0.000125     -0.000314      0.000000
    261 O2    s       0.000051      0.000111     -0.000094      0.000000
    262 O2    s      -0.000000      0.000145      0.000248      0.000000
    263 O2    s      -0.000382      0.000168     -0.000438      0.000000
    264 O3    s       0.000136      0.002716      0.000770      0.000000
    265 O3    s       0.001787     -0.001273      0.002659      0.000000
    266 O2    s      -0.000051      0.000515      0.000179      0.000000
    267 O2    s       0.000137      0.000260     -0.000273      0.000000
    268 O2    s      -0.000253      0.000166      0.000803      0.000000
    269 O2    s       0.000040      0.000055     -0.000261      0.000000
    270 O2    s       0.000088      0.000943      0.001009      0.000000
    271 O2    s      -0.000162      0.000025     -0.000271      0.000000
    272 O2    s       0.000035     -0.000048     -0.000451      0.000000
    273 O2    s       0.000166      0.000161     -0.000672      0.000000
    274 O2    s       0.000118      0.000034      0.000471      0.000000
    275 O2    s      -0.000234      0.000028     -0.000183      0.000000
    276 O2    s       0.000391     -0.000637      0.001997      0.000000
    277 O2    s      -0.000324     -0.000054      0.000292      0.000000
    278 O2    s      -0.000264      0.000465      0.000057      0.000000
    279 O2    s       0.000389      0.000029      0.000344      0.000000
    280 O2    s      -0.000025      0.000368     -0.000067      0.000000
    281 O2    s       0.000014      0.000122      0.000022      0.000000
    282 O2    s       0.000032     -0.000197     -0.000427      0.000000
    283 O2    s      -0.000037      0.000101      0.000258      0.000000
    284 O3    s      -0.000961     -0.003980      0.001555      0.000000
    285 O2    s       0.000125      0.000097     -0.000119      0.000000
    286 O2    s      -0.000022     -0.000098      0.000120      0.000000
    287 O2    s      -0.000424     -0.000039      0.000292      0.000000
    288 O2    s       0.000067      0.001061     -0.000752      0.000000
    289 O2    s      -0.001434     -0.000636     -0.002970      0.000000
    290 O2    s       0.000020      0.000854      0.000289      0.000000
    291 O2    s      -0.000094     -0.000025     -0.000076      0.000000
    292 O2    s      -0.000224     -0.000108     -0.000347      0.000000
    293 O2    s       0.000071     -0.000140      0.000071      0.000000
    294 O3    s       0.000145     -0.000104     -0.002526      0.000000
    295 O2    s      -0.000011      0.000619      0.000271      0.000000
    296 O2    s      -0.000478      0.000487     -0.000252      0.000000
    297 O2    s       0.000009      0.000024     -0.000692      0.000000
    298 O2    s       0.000079     -0.000371     -0.000124      0.000000
    299 O2    s      -0.000258     -0.000087      0.000772      0.000000
    300 O2    s      -0.000048      0.000991      0.001152      0.000000
    301 O2    s       0.000192      0.000582     -0.000227      0.000000
    302 O2    s      -0.000058     -0.000364      0.000023      0.000000
    303 O2    s      -0.000343      0.000074      0.000154      0.000000
    304 O2    s      -0.000059     -0.000056     -0.000216      0.000000
    305 O2    s      -0.000310      0.001047      0.000277      0.000000
    306 O2    s       0.000076      0.000189     -0.000267      0.000000
    307 F     s      -0.000245      0.000718      0.000536      0.000000
    308 F     s      -0.000129     -0.000041      0.000028      0.000000
    309 F     s      -0.000013     -0.000030      0.000072      0.000000
    310 F     s       0.000020      0.000045     -0.000162      0.000000
    311 F     s      -0.000606      0.000606     -0.000911      0.000000
    312 F     s       0.000033      0.000237     -0.000046      0.000000
--------------------------------------------------------------------------------
  Maximum abs         0.003598      0.003980      0.009058      0.000000
--------------------------------------------------------------------------------


  Time to end of optimisation =      45.7876 seconds


  Peak dynamic memory used =      19.13 MB 


  Timing analysis for GULP :

--------------------------------------------------------------------------------
  Task / Subroutine                                          Time (Seconds)
--------------------------------------------------------------------------------
  Calculation of reciprocal space energy and derivatives          1.2826
  Calculation of real space energy and derivatives               39.6385
  Calculation of three-body energy and derivatives                4.0364
  Calculation of matrix inversion                                 0.7446
--------------------------------------------------------------------------------
  Total CPU time                                                 45.7877
--------------------------------------------------------------------------------


  Dump file written as out.res                                                 
  CIF file written as out.cif                                                 


  Job Finished at 02:40.46  8th November   2016                               

