********************************************************************************
*                       GENERAL UTILITY LATTICE PROGRAM                        *
*                                 Julian Gale                                  *
*                      Nanochemistry Research Institute                        *
*                           Department of Chemistry                            *
*                    Curtin University, Western Australia                      *
********************************************************************************
* Version = 4.2.0 * Last modified =  20th January 2014                         *
********************************************************************************
*  optimise     - perform optimisation run                                     *
*  conp         - constant pressure calculation                                *
*  qok          - running with non charge neutral cell is OK                   *
********************************************************************************

  Job Started  at 01:39.10 10th November   2016                               

  Number of CPUs =     1


  Total number of configurations input =   1

********************************************************************************
*  Input for Configuration =   1                                               *
********************************************************************************

  Formula = Ge3Si57O120F6                                               

  Number of irreducible atoms/shells =     312


  Total number atoms/shells =     312

  Dimensionality = 3               :  Bulk   


  Charge on solid   =  -6.000000 =>neutralising background added


  Cartesian lattice vectors (Angstroms) :

       11.936701    0.000000    0.000000
       -5.977499   10.379951    0.000000
       -0.033108   -0.331645   29.543768

  Cell parameters (Angstroms/Degrees):

  a =      11.9367    alpha =  90.5253
  b =      11.9781    beta  =  90.0642
  c =      29.5456    gamma = 119.9363

  Initial cell volume =        3660.542854 Angs**3

  Temperature of configuration =  0.000     K 

  Pressure of configuration =         0.000 GPa 

  Fractional coordinates of asymmetric unit :

--------------------------------------------------------------------------------
   No.  Atomic       x           y          z         Charge      Occupancy
        Label      (Frac)      (Frac)     (Frac)        (e)         (Frac)  
--------------------------------------------------------------------------------
      1 Ge    c    0.699600    0.375700    0.033890     4.00000    1.000000    
      2 Si    c    0.620994 *  0.324566 *  0.365023 *   4.00000    1.000000    
      3 Si    c    0.671244 *  0.289412 *  0.698339 *   4.00000    1.000000    
      4 Si    c    0.298402 *  0.625765 *  0.530380 *   4.00000    1.000000    
      5 Si    c    0.380468 *  0.676204 *  0.863089 *   4.00000    1.000000    
      6 Si    c    0.319330 *  0.704202 *  0.197425 *   4.00000    1.000000    
      7 Si    c    0.375449 *  0.700290 *  0.297544 *   4.00000    1.000000    
      8 Si    c    0.320219 *  0.620508 *  0.962263 *   4.00000    1.000000    
      9 Si    c    0.304243 *  0.679833 *  0.633029 *   4.00000    1.000000    
     10 Si    c    0.620968 *  0.296055 *  0.798440 *   4.00000    1.000000    
     11 Si    c    0.674136 *  0.381996 *  0.465284 *   4.00000    1.000000    
     12 Si    c    0.685400 *  0.320814 *  0.132860 *   4.00000    1.000000    
     13 Si    c    0.529860 *  0.414278 *  0.965329 *   4.00000    1.000000    
     14 Si    c    0.581630 *  0.110808 *  0.301639 *   4.00000    1.000000    
     15 Si    c    0.878148 *  0.468475 *  0.634022 *   4.00000    1.000000    
     16 Si    c    0.467095 *  0.583337 *  0.464259 *   4.00000    1.000000    
     17 Si    c    0.419032 *  0.885370 *  0.798585 *   4.00000    1.000000    
     18 Si    c    0.109039 *  0.533695 *  0.129803 *   4.00000    1.000000    
     19 Si    c    0.415575 *  0.530405 *  0.362648 *   4.00000    1.000000    
     20 Si    c    0.107564 *  0.577622 *  0.027025 *   4.00000    1.000000    
     21 Si    c    0.474644 *  0.883999 *  0.697675 *   4.00000    1.000000    
     22 Si    c    0.584658 *  0.469964 *  0.863806 *   4.00000    1.000000    
     23 Si    c    0.883876 *  0.420338 *  0.530429 *   4.00000    1.000000    
     24 Si    c    0.528055 *  0.114441 *  0.200630 *   4.00000    1.000000    
     25 Si    c    0.303319 *  0.398402 *  0.847307 *   4.00000    1.000000    
     26 Si    c    0.598712 *  0.905419 *  0.183822 *   4.00000    1.000000    
     27 Si    c    0.095534 *  0.704906 *  0.513429 *   4.00000    1.000000    
     28 Si    c    0.697502 *  0.601478 *  0.349691 *   4.00000    1.000000    
     29 Si    c    0.394136 *  0.086485 *  0.682084 *   4.00000    1.000000    
     30 Si    c    0.890552 *  0.291475 *  0.013038 *   4.00000    1.000000    
     31 Si    c    0.394532 *  0.303135 *  0.478945 *   4.00000    1.000000    
     32 Si    c    0.892541 *  0.605275 *  0.141784 *   4.00000    1.000000    
     33 Si    c    0.699640 *  0.096405 *  0.812763 *   4.00000    1.000000    
     34 Si    c    0.596164 *  0.694577 *  0.979160 *   4.00000    1.000000    
     35 Si    c    0.094285 *  0.398802 *  0.647475 *   4.00000    1.000000    
     36 Si    c    0.299904 *  0.902307 *  0.314334 *   4.00000    1.000000    
     37 Si    c    0.252381 *  0.342264 *  0.947191 *   4.00000    1.000000    
     38 Si    c    0.657360 *  0.908959 *  0.284079 *   4.00000    1.000000    
     39 Ge    c    0.088790 *  0.732573 *  0.613301 *   4.00000    1.000000    
     40 Si    c    0.747071 *  0.662016 *  0.450210 *   4.00000    1.000000    
     41 Si    c    0.339749 *  0.084935 *  0.782792 *   4.00000    1.000000    
     42 Si    c    0.901248 *  0.251340 *  0.115796 *   4.00000    1.000000    
     43 Si    c    0.338896 *  0.252160 *  0.378211 *   4.00000    1.000000    
     44 Si    c    0.901869 *  0.657153 *  0.039369 *   4.00000    1.000000    
     45 Si    c    0.752230 *  0.087931 *  0.712823 *   4.00000    1.000000    
     46 Si    c    0.662283 *  0.749263 *  0.879547 *   4.00000    1.000000    
     47 Si    c    0.085436 *  0.339623 *  0.545469 *   4.00000    1.000000    
     48 Si    c    0.248068 *  0.913012 *  0.214210 *   4.00000    1.000000    
     49 Si    c    0.975858 *  0.123727 *  0.962332 *   4.00000    1.000000    
     50 Si    c    0.875862 *  0.846672 *  0.298395 *   4.00000    1.000000    
     51 Si    c    0.145691 *  0.018129 *  0.630136 *   4.00000    1.000000    
     52 Si    c    0.026887 *  0.880674 *  0.463382 *   4.00000    1.000000    
     53 Si    c    0.122844 *  0.148899 *  0.796698 *   4.00000    1.000000    
     54 Si    c    0.847685 *  0.976788 *  0.133373 *   4.00000    1.000000    
     55 Si    c    0.120103 *  0.972492 *  0.363393 *   4.00000    1.000000    
     56 Ge    c    0.848787 *  0.881217 *  0.029590 *   4.00000    1.000000    
     57 Si    c    0.031677 *  0.149628 *  0.695675 *   4.00000    1.000000    
     58 Si    c    0.880361 *  0.027880 *  0.862025 *   4.00000    1.000000    
     59 Si    c    0.149794 *  0.121526 *  0.530572 *   4.00000    1.000000    
     60 Si    c    0.968283 *  0.853036 *  0.196961 *   4.00000    1.000000    
     61 O3    c    0.939192 *  0.008727 *  0.995652 *   1.33043    1.000000    
     62 O2    c    0.000480 *  0.930407 *  0.329560 *   0.87073    1.000000    
     63 O2    c    0.073154 *  0.073085 *  0.661789 *   0.87073    1.000000    
     64 O2    c    0.070956 *  0.001914 *  0.496665 *   0.87073    1.000000    
     65 O2    c    0.998713 *  0.068580 *  0.827928 *   0.87073    1.000000    
     66 O2    c    0.929938 *  0.940459 *  0.167436 *   0.87073    1.000000    
     67 O2    c    0.338447 *  0.577380 *  0.329647 *   0.87073    1.000000    
     68 O2    c    0.431051 *  0.757635 *  0.665424 *   0.87073    1.000000    
     69 O2    c    0.232163 *  0.655284 *  0.995134 *   0.87073    1.000000    
     70 O2    c    0.660340 *  0.419810 *  0.831213 *   0.87073    1.000000    
     71 O2    c    0.577049 *  0.242961 *  0.171007 *   0.87073    1.000000    
     72 O2    c    0.758061 *  0.343154 *  0.498070 *   0.87073    1.000000    
     73 O3    c    0.567611 *  0.334164 *  0.997812 *   1.33043    1.000000    
     74 O2    c    0.750160 *  0.409516 *  0.664700 *   0.87073    1.000000    
     75 O2    c    0.659843 *  0.236834 *  0.333951 *   0.87073    1.000000    
     76 O2    c    0.418505 *  0.659868 *  0.497141 *   0.87073    1.000000    
     77 O2    c    0.232225 *  0.583139 *  0.163440 *   0.87073    1.000000    
     78 O2    c    0.342441 *  0.760581 *  0.830474 *   0.87073    1.000000    
     79 O2    c    0.128957 *  0.217225 *  0.967783 *   0.87073    1.000000    
     80 O2    c    0.783832 *  0.908845 *  0.304049 *   0.87073    1.000000    
     81 O3    c    0.079998 *  0.869271 *  0.634552 *   1.33043    1.000000    
     82 O2    c    0.872477 *  0.790209 *  0.469978 *   0.87073    1.000000    
     83 O2    c    0.213297 *  0.085171 *  0.802878 *   0.87073    1.000000    
     84 O2    c    0.905126 *  0.130878 *  0.138487 *   0.87073    1.000000    
     85 O2    c    0.212794 *  0.126025 *  0.357562 *   0.87073    1.000000    
     86 O3    c    0.923813 *  0.792447 *  0.021829 *   1.33043    1.000000    
     87 O2    c    0.877067 *  0.087399 *  0.691620 *   0.87073    1.000000    
     88 O2    c    0.788698 *  0.873204 *  0.858849 *   0.87073    1.000000    
     89 O2    c    0.087089 *  0.214470 *  0.525641 *   0.87073    1.000000    
     90 O2    c    0.123056 *  0.915187 *  0.193749 *   0.87073    1.000000    
     91 O2    c    0.923902 *  0.854105 *  0.247708 *   0.87073    1.000000    
     92 O2    c    0.139459 *  0.069687 *  0.580317 *   0.87073    1.000000    
     93 O2    c    0.938184 *  0.069435 *  0.911793 *   0.87073    1.000000    
     94 O2    c    0.074061 *  0.136962 *  0.745677 *   0.87073    1.000000    
     95 O3    c    0.866879 *  0.939608 *  0.084071 *   1.33043    1.000000    
     96 O2    c    0.062935 *  0.936192 *  0.413251 *   0.87073    1.000000    
     97 O2    c    0.900256 *  0.199156 *  0.975058 *   0.87073    1.000000    
     98 O2    c    0.796127 *  0.696398 *  0.311587 *   0.87073    1.000000    
     99 O2    c    0.298744 *  0.085271 *  0.643047 *   0.87073    1.000000    
    100 O2    c    0.094279 *  0.794448 *  0.472076 *   0.87073    1.000000    
    101 O2    c    0.205477 *  0.300809 *  0.808727 *   0.87073    1.000000    
    102 O2    c    0.695044 *  0.904325 *  0.145294 *   0.87073    1.000000    
    103 O2    c    0.202169 *  0.901291 *  0.352836 *   0.87073    1.000000    
    104 O3    c    0.686193 *  0.791388 *  0.018847 *   1.33043    1.000000    
    105 O2    c    0.097831 *  0.302036 *  0.684417 *   0.87073    1.000000    
    106 O2    c    0.797386 *  0.097225 *  0.851255 *   0.87073    1.000000    
    107 O2    c    0.300517 *  0.206399 *  0.517389 *   0.87073    1.000000    
    108 O2    c    0.897891 *  0.704879 *  0.180288 *   0.87073    1.000000    
    109 O2    c    0.318670 *  0.643848 *  0.246868 *   0.87073    1.000000    
    110 O2    c    0.353088 *  0.679401 *  0.581005 *   0.87073    1.000000    
    111 O2    c    0.318436 *  0.676672 *  0.912378 *   0.87073    1.000000    
    112 O2    c    0.676528 *  0.351695 *  0.748238 *   0.87073    1.000000    
    113 O3    c    0.614223 *  0.307031 *  0.085739 *   1.33043    1.000000    
    114 O2    c    0.676624 *  0.324671 *  0.415354 *   0.87073    1.000000    
    115 O2    c    0.372673 *  0.329858 *  0.965061 *   0.87073    1.000000    
    116 O2    c    0.668439 *  0.041033 *  0.303645 *   0.87073    1.000000    
    117 O3    c    0.940542 *  0.620249 *  0.638565 *   1.33043    1.000000    
    118 O2    c    0.623335 *  0.670904 *  0.468120 *   0.87073    1.000000    
    119 O2    c    0.331491 *  0.954346 *  0.801604 *   0.87073    1.000000    
    120 O2    c    0.033948 *  0.378132 *  0.131951 *   0.87073    1.000000    
    121 O2    c    0.328685 *  0.374172 *  0.359976 *   0.87073    1.000000    
    122 O2    c    0.035331 *  0.660415 *  0.025665 *   0.87073    1.000000    
    123 O2    c    0.630905 *  0.953501 *  0.695221 *   0.87073    1.000000    
    124 O2    c    0.671176 *  0.626071 *  0.861029 *   0.87073    1.000000    
    125 O2    c    0.955130 *  0.334960 *  0.527646 *   0.87073    1.000000    
    126 O2    c    0.371390 *  0.044598 *  0.196714 *   0.87073    1.000000    
    127 O3    c    0.756444 *  0.283087 *  0.003678 *   1.33043    1.000000    
    128 O2    c    0.696641 *  0.466717 *  0.342491 *   0.87073    1.000000    
    129 O2    c    0.527918 *  0.221281 *  0.675942 *   0.87073    1.000000    
    130 O2    c    0.228800 *  0.699390 *  0.508472 *   0.87073    1.000000    
    131 O2    c    0.306946 *  0.533900 *  0.839417 *   0.87073    1.000000    
    132 O2    c    0.462601 *  0.772984 *  0.175123 *   0.87073    1.000000    
    133 O2    c    0.299503 *  0.767693 *  0.320275 *   0.87073    1.000000    
    134 O2    c    0.462636 *  0.697641 *  0.985308 *   0.87073    1.000000    
    135 O2    c    0.228864 *  0.533252 *  0.652276 *   0.87073    1.000000    
    136 O2    c    0.697152 *  0.229025 *  0.820961 *   0.87073    1.000000    
    137 O2    c    0.530611 *  0.307226 *  0.487096 *   0.87073    1.000000    
    138 O2    c    0.761300 *  0.470779 *  0.151052 *   0.87073    1.000000    
    139 O3    c    0.773679 *  0.543855 *  0.018287 *   1.33043    1.000000    
    140 O2    c    0.464801 *  0.251009 *  0.359052 *   0.87073    1.000000    
    141 O2    c    0.750782 *  0.212417 *  0.693051 *   0.87073    1.000000    
    142 O2    c    0.208076 *  0.470673 *  0.528383 *   0.87073    1.000000    
    143 O2    c    0.537372 *  0.752422 *  0.860179 *   0.87073    1.000000    
    144 O2    c    0.243693 *  0.784926 *  0.194079 *   0.87073    1.000000    
    145 O2    c    0.531743 *  0.782030 *  0.302641 *   0.87073    1.000000    
    146 O2    c    0.246695 *  0.465307 *  0.967218 *   0.87073    1.000000    
    147 O3    c    0.232380 *  0.760835 *  0.640570 *   1.33043    1.000000    
    148 O2    c    0.464485 *  0.213166 *  0.802219 *   0.87073    1.000000    
    149 O2    c    0.749051 *  0.538107 *  0.470309 *   0.87073    1.000000    
    150 O2    c    0.777810 *  0.256318 *  0.134781 *   0.87073    1.000000    
    151 O2    c    0.230488 *  0.325161 *  0.893010 *   0.87073    1.000000    
    152 O2    c    0.673718 *  0.907884 *  0.229847 *   0.87073    1.000000    
    153 O3    c    0.093036 *  0.783639 *  0.556524 *   1.33043    1.000000    
    154 O2    c    0.767125 *  0.677286 *  0.396069 *   0.87073    1.000000    
    155 O2    c    0.320150 *  0.081769 *  0.728626 *   0.87073    1.000000    
    156 O2    c    0.895904 *  0.229414 *  0.061738 *   0.87073    1.000000    
    157 O2    c    0.321184 *  0.232302 *  0.432287 *   0.87073    1.000000    
    158 O2    c    0.890892 *  0.670110 *  0.094620 *   0.87073    1.000000    
    159 O2    c    0.773125 *  0.093245 *  0.767016 *   0.87073    1.000000    
    160 O2    c    0.679252 *  0.767417 *  0.934165 *   0.87073    1.000000    
    161 O2    c    0.085294 *  0.329302 *  0.599473 *   0.87073    1.000000    
    162 O2    c    0.229803 *  0.910116 *  0.268423 *   0.87073    1.000000    
    163 O2    c    0.580908 *  0.555756 *  0.988416 *   0.87073    1.000000    
    164 O2    c    0.440382 *  0.025715 *  0.324358 *   0.87073    1.000000    
    165 O2    c    0.971957 *  0.418286 *  0.655131 *   0.87073    1.000000    
    166 O2    c    0.405952 *  0.442078 *  0.486943 *   0.87073    1.000000    
    167 O2    c    0.561075 *  0.970131 *  0.821384 *   0.87073    1.000000    
    168 O2    c    0.017632 *  0.588233 *  0.147427 *   0.87073    1.000000    
    169 O2    c    0.557668 *  0.587188 *  0.340379 *   0.87073    1.000000    
    170 O2    c    0.016580 *  0.433875 *  0.007464 *   0.87073    1.000000    
    171 O2    c    0.416146 *  0.965542 *  0.674003 *   0.87073    1.000000    
    172 O2    c    0.443290 *  0.411855 *  0.840258 *   0.87073    1.000000    
    173 O2    c    0.971324 *  0.560769 *  0.508081 *   0.87073    1.000000    
    174 O2    c    0.586446 *  0.032290 *  0.176357 *   0.87073    1.000000    
    175 O2    c    0.580706 *  0.164836 *  0.251589 *   0.87073    1.000000    
    176 O2    c    0.834533 *  0.420410 *  0.581381 *   0.87073    1.000000    
    177 O2    c    0.585571 *  0.419312 *  0.914419 *   0.87073    1.000000    
    178 O2    c    0.419219 *  0.831352 *  0.747922 *   0.87073    1.000000    
    179 O2    c    0.157236 *  0.578181 *  0.078576 *   0.87073    1.000000    
    180 O2    c    0.415050 *  0.584595 *  0.413400 *   0.87073    1.000000    
    181 F     c    0.448677 *  0.902707 *  0.248755 *   0.56000    1.000000    
    182 F     c    0.091880 *  0.585273 *  0.586108 *   0.56000    1.000000    
    183 F     c    0.450454 *  0.551805 *  0.913509 *   0.56000    1.000000    
    184 F     c    0.551643 *  0.094359 *  0.748231 *   0.56000    1.000000    
    185 F     c    0.852727 *  0.435577 *  0.070828 *   0.56000    1.000000    
    186 F     c    0.546744 *  0.453705 *  0.414569 *   0.56000    1.000000    
    187 O3    s    0.935079 *  0.009953 *  0.995040 *  -3.33043    1.000000    
    188 O2    s    0.999842 *  0.925682 *  0.329846 *  -2.87073    1.000000    
    189 O2    s    0.076039 *  0.076176 *  0.662366 *  -2.87073    1.000000    
    190 O2    s    0.074803 *  0.001697 *  0.496710 *  -2.87073    1.000000    
    191 O2    s    0.999385 *  0.072975 *  0.828231 *  -2.87073    1.000000    
    192 O2    s    0.925363 *  0.934622 *  0.167072 *  -2.87073    1.000000    
    193 O2    s    0.350103 *  0.585141 *  0.329723 *  -2.87073    1.000000    
    194 O2    s    0.422610 *  0.762331 *  0.665352 *  -2.87073    1.000000    
    195 O2    s    0.227814 *  0.643517 *  0.995192 *  -2.87073    1.000000    
    196 O2    s    0.648534 *  0.412218 *  0.831174 *  -2.87073    1.000000    
    197 O2    s    0.583006 *  0.237390 *  0.170206 *  -2.87073    1.000000    
    198 O2    s    0.762546 *  0.355232 *  0.498050 *  -2.87073    1.000000    
    199 O3    s    0.573481 *  0.345647 *  0.997117 *  -3.33043    1.000000    
    200 O2    s    0.755659 *  0.403302 *  0.664921 *  -2.87073    1.000000    
    201 O2    s    0.647745 *  0.232822 *  0.333813 *  -2.87073    1.000000    
    202 O2    s    0.410847 *  0.648419 *  0.497270 *  -2.87073    1.000000    
    203 O2    s    0.228072 *  0.590126 *  0.163343 *  -2.87073    1.000000    
    204 O2    s    0.354337 *  0.764876 *  0.830526 *  -2.87073    1.000000    
    205 O2    s    0.125339 *  0.220337 *  0.965006 *  -2.87073    1.000000    
    206 O2    s    0.780444 *  0.902205 *  0.301389 *  -2.87073    1.000000    
    207 O3    s    0.088033 *  0.877171 *  0.632690 *  -3.33043    1.000000    
    208 O2    s    0.875589 *  0.786342 *  0.467252 *  -2.87073    1.000000    
    209 O2    s    0.216728 *  0.091914 *  0.800179 *  -2.87073    1.000000    
    210 O2    s    0.898764 *  0.127552 *  0.135609 *  -2.87073    1.000000    
    211 O2    s    0.216056 *  0.122857 *  0.360293 *  -2.87073    1.000000    
    212 O3    s    0.915299 *  0.786389 *  0.024218 *  -3.33043    1.000000    
    213 O2    s    0.880581 *  0.094145 *  0.694241 *  -2.87073    1.000000    
    214 O2    s    0.785374 *  0.876789 *  0.861296 *  -2.87073    1.000000    
    215 O2    s    0.093250 *  0.218395 *  0.528226 *  -2.87073    1.000000    
    216 O2    s    0.119550 *  0.908334 *  0.196192 *  -2.87073    1.000000    
    217 O2    s    0.923460 *  0.853139 *  0.247727 *  -2.87073    1.000000    
    218 O2    s    0.141335 *  0.070404 *  0.579684 *  -2.87073    1.000000    
    219 O2    s    0.935798 *  0.070780 *  0.911789 *  -2.87073    1.000000    
    220 O2    s    0.074774 *  0.139767 *  0.745782 *  -2.87073    1.000000    
    221 O3    s    0.863186 *  0.938807 *  0.084946 *  -3.33043    1.000000    
    222 O2    s    0.065381 *  0.934092 *  0.413210 *  -2.87073    1.000000    
    223 O2    s    0.907440 *  0.200719 *  0.977704 *  -2.87073    1.000000    
    224 O2    s    0.794463 *  0.702617 *  0.314097 *  -2.87073    1.000000    
    225 O2    s    0.293432 *  0.078676 *  0.645853 *  -2.87073    1.000000    
    226 O2    s    0.087348 *  0.794635 *  0.475181 *  -2.87073    1.000000    
    227 O2    s    0.206737 *  0.294722 *  0.811405 *  -2.87073    1.000000    
    228 O2    s    0.700953 *  0.911920 *  0.147999 *  -2.87073    1.000000    
    229 O2    s    0.203508 *  0.908870 *  0.350023 *  -2.87073    1.000000    
    230 O3    s    0.691285 *  0.789776 *  0.015999 *  -3.33043    1.000000    
    231 O2    s    0.090681 *  0.296672 *  0.681669 *  -2.87073    1.000000    
    232 O2    s    0.796248 *  0.089747 *  0.848469 *  -2.87073    1.000000    
    233 O2    s    0.294338 *  0.207523 *  0.514766 *  -2.87073    1.000000    
    234 O2    s    0.904886 *  0.710395 *  0.178047 *  -2.87073    1.000000    
    235 O2    s    0.324418 *  0.655585 *  0.246940 *  -2.87073    1.000000    
    236 O2    s    0.342619 *  0.673867 *  0.580801 *  -2.87073    1.000000    
    237 O2    s    0.324832 *  0.670856 *  0.912534 *  -2.87073    1.000000    
    238 O2    s    0.670343 *  0.339699 *  0.748294 *  -2.87073    1.000000    
    239 O3    s    0.627087 *  0.312976 *  0.087069 *  -3.33043    1.000000    
    240 O2    s    0.670628 *  0.330603 *  0.415306 *  -2.87073    1.000000    
    241 O2    s    0.375477 *  0.339902 *  0.963089 *  -2.87073    1.000000    
    242 O2    s    0.658298 *  0.034401 *  0.301380 *  -2.87073    1.000000    
    243 O3    s    0.944766 *  0.612633 *  0.636262 *  -3.33043    1.000000    
    244 O2    s    0.620054 *  0.660875 *  0.465830 *  -2.87073    1.000000    
    245 O2    s    0.341384 *  0.960935 *  0.799316 *  -2.87073    1.000000    
    246 O2    s    0.028046 *  0.381311 *  0.130042 *  -2.87073    1.000000    
    247 O2    s    0.338684 *  0.377532 *  0.362163 *  -2.87073    1.000000    
    248 O2    s    0.029416 *  0.650951 *  0.027239 *  -2.87073    1.000000    
    249 O2    s    0.627459 *  0.960515 *  0.697361 *  -2.87073    1.000000    
    250 O2    s    0.661349 *  0.622900 *  0.863263 *  -2.87073    1.000000    
    251 O2    s    0.961640 *  0.344175 *  0.529810 *  -2.87073    1.000000    
    252 O2    s    0.374417 *  0.037817 *  0.198975 *  -2.87073    1.000000    
    253 O3    s    0.766872 *  0.290178 *  0.006778 *  -3.33043    1.000000    
    254 O2    s    0.688945 *  0.466221 *  0.345589 *  -2.87073    1.000000    
    255 O2    s    0.528825 *  0.214204 *  0.678975 *  -2.87073    1.000000    
    256 O2    s    0.222538 *  0.692275 *  0.511285 *  -2.87073    1.000000    
    257 O2    s    0.314103 *  0.534247 *  0.842698 *  -2.87073    1.000000    
    258 O2    s    0.461913 *  0.779593 *  0.178348 *  -2.87073    1.000000    
    259 O2    s    0.307326 *  0.774881 *  0.317281 *  -2.87073    1.000000    
    260 O2    s    0.461582 *  0.689262 *  0.982211 *  -2.87073    1.000000    
    261 O2    s    0.222136 *  0.533767 *  0.649783 *  -2.87073    1.000000    
    262 O2    s    0.689627 *  0.221880 *  0.817765 *  -2.87073    1.000000    
    263 O2    s    0.531139 *  0.314605 *  0.483925 *  -2.87073    1.000000    
    264 O2    s    0.767703 *  0.470312 *  0.148256 *  -2.87073    1.000000    
    265 O3    s    0.782754 *  0.545156 *  0.021508 *  -3.33043    1.000000    
    266 O2    s    0.467443 *  0.258884 *  0.361707 *  -2.87073    1.000000    
    267 O2    s    0.742659 *  0.206888 *  0.695704 *  -2.87073    1.000000    
    268 O2    s    0.204159 *  0.472756 *  0.530443 *  -2.87073    1.000000    
    269 O2    s    0.534500 *  0.744040 *  0.862562 *  -2.87073    1.000000    
    270 O2    s    0.252132 *  0.790202 *  0.196563 *  -2.87073    1.000000    
    271 O2    s    0.528960 *  0.787297 *  0.300119 *  -2.87073    1.000000    
    272 O2    s    0.255112 *  0.468546 *  0.964585 *  -2.87073    1.000000    
    273 O3    s    0.228761 *  0.750395 *  0.637815 *  -3.33043    1.000000    
    274 O2    s    0.467368 *  0.207881 *  0.799750 *  -2.87073    1.000000    
    275 O2    s    0.740978 *  0.535257 *  0.467657 *  -2.87073    1.000000    
    276 O2    s    0.782138 *  0.262388 *  0.132482 *  -2.87073    1.000000    
    277 O2    s    0.240468 *  0.334713 *  0.893904 *  -2.87073    1.000000    
    278 O2    s    0.664086 *  0.907725 *  0.230789 *  -2.87073    1.000000    
    279 O3    s    0.093015 *  0.771935 *  0.555998 *  -3.33043    1.000000    
    280 O2    s    0.757630 *  0.667649 *  0.396901 *  -2.87073    1.000000    
    281 O2    s    0.329921 *  0.082576 *  0.729543 *  -2.87073    1.000000    
    282 O2    s    0.895888 *  0.237702 *  0.062766 *  -2.87073    1.000000    
    283 O2    s    0.330765 *  0.241851 *  0.431452 *  -2.87073    1.000000    
    284 O2    s    0.891925 *  0.661754 *  0.094527 *  -2.87073    1.000000    
    285 O2    s    0.763318 *  0.093017 *  0.766012 *  -2.87073    1.000000    
    286 O2    s    0.669371 *  0.758384 *  0.933050 *  -2.87073    1.000000    
    287 O2    s    0.086256 *  0.337805 *  0.598594 *  -2.87073    1.000000    
    288 O2    s    0.239052 *  0.909624 *  0.267451 *  -2.87073    1.000000    
    289 O2    s    0.577155 *  0.556601 *  0.985044 *  -2.87073    1.000000    
    290 O2    s    0.440028 *  0.021149 *  0.320904 *  -2.87073    1.000000    
    291 O2    s    0.976254 *  0.421335 *  0.652192 *  -2.87073    1.000000    
    292 O2    s    0.411219 *  0.441982 *  0.483718 *  -2.87073    1.000000    
    293 O2    s    0.561091 *  0.975022 *  0.818045 *  -2.87073    1.000000    
    294 O2    s    0.014002 *  0.584063 *  0.144919 *  -2.87073    1.000000    
    295 O2    s    0.557805 *  0.582599 *  0.343711 *  -2.87073    1.000000    
    296 O2    s    0.013260 *  0.434780 *  0.010176 *  -2.87073    1.000000    
    297 O2    s    0.420203 *  0.970231 *  0.677379 *  -2.87073    1.000000    
    298 O2    s    0.442861 *  0.416625 *  0.843484 *  -2.87073    1.000000    
    299 O2    s    0.975113 *  0.560917 *  0.510998 *  -2.87073    1.000000    
    300 O2    s    0.581528 *  0.027062 *  0.179662 *  -2.87073    1.000000    
    301 O2    s    0.575204 *  0.153786 *  0.251489 *  -2.87073    1.000000    
    302 O2    s    0.844098 *  0.425158 *  0.581110 *  -2.87073    1.000000    
    303 O2    s    0.579933 *  0.424168 *  0.914222 *  -2.87073    1.000000    
    304 O2    s    0.424960 *  0.842433 *  0.747957 *  -2.87073    1.000000    
    305 O2    s    0.147165 *  0.573403 *  0.078800 *  -2.87073    1.000000    
    306 O2    s    0.420444 *  0.578912 *  0.413433 *  -2.87073    1.000000    
    307 F     s    0.448394 *  0.902180 *  0.248711 *  -1.56000    1.000000    
    308 F     s    0.091992 *  0.593567 *  0.587505 *  -1.56000    1.000000    
    309 F     s    0.450018 *  0.552495 *  0.913536 *  -1.56000    1.000000    
    310 F     s    0.552251 *  0.094992 *  0.748247 *  -1.56000    1.000000    
    311 F     s    0.843472 *  0.432061 *  0.068770 *  -1.56000    1.000000    
    312 F     s    0.547015 *  0.453556 *  0.414599 *  -1.56000    1.000000    
--------------------------------------------------------------------------------



********************************************************************************
*  General input information                                                   *
********************************************************************************

  Species output for all configurations : 

--------------------------------------------------------------------------------
  Species    Type    Atomic    Atomic    Charge       Radii (Angs)     Library
                     Number     Mass       (e)     Cova   Ionic  VDW   Symbol
--------------------------------------------------------------------------------
    Si       Core       14      28.09   4.000000   1.200  0.000  2.100          
    O1       Core        8      16.00   1.733957   0.730  0.000  1.360          
    O1       Shell       8       0.00  -3.733957   0.730  0.000  1.360          
    O2       Core        8      16.00   0.870733   0.730  0.000  1.360          
    O2       Shell       8       0.00  -2.870733   0.730  0.000  1.360          
    O3       Core        8      16.00   1.330431   0.730  0.000  1.360          
    O3       Shell       8       0.00  -3.330431   0.730  0.000  1.360          
    F        Core        9      19.00   0.560000   0.710  0.000  1.300          
    F        Shell       9       0.00  -1.560000   0.710  0.000  1.300          
    Ge       Core       32      72.61   4.000000   1.170  0.000  1.750          
--------------------------------------------------------------------------------


  Lattice summation method               =    Ewald          (3-D)
                                         =    Parry          (2-D)
                                         =    Saunders et al (1-D)
  Accuracy factor for lattice sums       =   12.000


  Time limit = Infinity

  Maximum range for interatomic potentials =        16.000000 Angstroms

  Taper potentials to zero over   1.0000 Angstroms using polynomial

  General interatomic potentials :

--------------------------------------------------------------------------------
Atom  Types   Potential         A         B         C         D     Cutoffs(Ang)
  1     2                                                            Min    Max 
--------------------------------------------------------------------------------
Si   c O1   s Buckingham    0.132E+04 0.318      10.1      0.00     0.000 16.000
Si   c O2   s Buckingham    0.132E+04 0.318      10.1      0.00     0.000 16.000
Si   c O3   s Buckingham    0.132E+04 0.318      10.1      0.00     0.000 16.000
Ge   c O1   s Buckingham    0.150E+04 0.326      16.8      0.00     0.000 16.000
Ge   c O2   s Buckingham    0.150E+04 0.326      16.8      0.00     0.000 16.000
Ge   c O3   s Buckingham    0.150E+04 0.326      16.8      0.00     0.000 16.000
O1   s O1   s Buckingham    0.228E+05 0.149      10.9      0.00     0.000 16.000
O1   s O2   s Buckingham    0.228E+05 0.149      10.9      0.00     0.000 16.000
O1   s O3   s Buckingham    0.228E+05 0.149      10.9      0.00     0.000 16.000
O2   s O2   s Buckingham    0.228E+05 0.149      10.9      0.00     0.000 16.000
O2   s O3   s Buckingham    0.228E+05 0.149      10.9      0.00     0.000 16.000
O3   s O3   s Buckingham    0.228E+05 0.149      10.9      0.00     0.000 16.000
Si   c F    s Buckingham     977.     0.282      0.00      0.00     0.000 16.000
Ge   c F    s Buckingham     681.     0.320      0.00      0.00     0.000 16.000
F    s F    s Buckingham     540.     0.262      0.00      0.00     0.000 16.000
O1   s F    s Buckingham    0.168E+04 0.268      0.00      0.00     0.000 16.000
O2   s F    s Buckingham    0.168E+04 0.268      0.00      0.00     0.000 16.000
O3   s F    s Buckingham    0.168E+04 0.268      0.00      0.00     0.000 16.000
O2   c O2   s Spring (c-s)   76.0      0.00      0.00      0.00     0.000  0.800
O3   c O3   s Spring (c-s)   128.      0.00      0.00      0.00     0.000  0.800
O1   c O1   s Spring (c-s)   180.      0.00      0.00      0.00     0.000  0.800
F    c F    s Spring (c-s)   33.5      0.00      0.00      0.00     0.000  0.800
--------------------------------------------------------------------------------

  General Three-body potentials :

  Harmonic form:

--------------------------------------------------------------------------------
Atom    Atom    Atom           Force Constants            Theta     Cutoffs  
  1       2       3     (eVrad**-2/eVrad**-3/eVrad**-4)   (deg)  1-2  1-3  2-3
--------------------------------------------------------------------------------
Si    c O1    s O1    s  1.261        0.0000    0.0000   109.470 0.00 0.00 0.00
                                                                 1.90 1.90 3.50
Si    c O1    s O2    s  1.261        0.0000    0.0000   109.470 0.00 0.00 0.00
                                                                 1.90 1.90 3.50
Si    c O2    s O2    s  1.261        0.0000    0.0000   109.470 0.00 0.00 0.00
                                                                 1.90 1.90 3.50
--------------------------------------------------------------------------------

********************************************************************************
*  Output for configuration   1                                                *
********************************************************************************


  Components of energy : 

--------------------------------------------------------------------------------
  Interatomic potentials     =        2062.72064308 eV
  Three-body potentials      =           0.46092702 eV
  Monopole - monopole (real) =       -6612.87403413 eV
  Monopole - monopole (recip)=       -3170.26738910 eV
  Monopole - monopole (total)=       -9783.14142323 eV
  Neutralising energy        =          -6.45783255 eV
--------------------------------------------------------------------------------
  Total lattice energy       =       -7726.41768568 eV
--------------------------------------------------------------------------------
  Total lattice energy       =         -745481.1976 kJ/(mole unit cells)
--------------------------------------------------------------------------------


  Number of variables =      939

  Maximum number of calculations  =          5000
  Maximum Hessian update interval =            10
  Maximum step size               =   0.100000000
  Maximum parameter tolerance     =   0.000010000
  Maximum function  tolerance     =   0.000010000
  Maximum gradient  tolerance     =   0.001000000
  Maximum gradient  component     =   0.010000000

  Symmetry not applied to optimisation

  Cell parameters to be optimised using strains

  Newton-Raphson optimiser to be used

  BFGS hessian update to be used

  Dumpfile to be written after every cycle

  Start of bulk optimisation :

  Cycle:      0 Energy:     -7726.417686  Gnorm:      0.004383  CPU:    2.046
  ** Hessian calculated **
  Cycle:      1 Energy:     -7726.442479  Gnorm:      0.003798  CPU:    6.600
  Cycle:      2 Energy:     -7726.470892  Gnorm:      0.003026  CPU:   10.777
  Cycle:      3 Energy:     -7726.499067  Gnorm:      0.002214  CPU:   14.953
  Cycle:      4 Energy:     -7726.509317  Gnorm:      0.001596  CPU:   19.128
  Cycle:      5 Energy:     -7726.511815  Gnorm:      0.000972  CPU:   23.303
  Cycle:      6 Energy:     -7726.512448  Gnorm:      0.000552  CPU:   27.478
  Cycle:      7 Energy:     -7726.512609  Gnorm:      0.000295  CPU:   31.652
  Cycle:      8 Energy:     -7726.512637  Gnorm:      0.000212  CPU:   34.481
  Cycle:      9 Energy:     -7726.512651  Gnorm:      0.000149  CPU:   37.310
  Cycle:     10 Energy:     -7726.512658  Gnorm:      0.000106  CPU:   40.139
  ** Hessian calculated **
  Cycle:     11 Energy:     -7726.512658  Gnorm:      0.000057  CPU:   44.679
  Cycle:     12 Energy:     -7726.512658  Gnorm:      0.000044  CPU:   47.508
  Cycle:     13 Energy:     -7726.512658  Gnorm:      0.000034  CPU:   50.337


  **** Optimisation achieved ****


  Final energy =   -7726.51265793 eV
  Final Gnorm  =       0.00003021

  Components of energy : 

--------------------------------------------------------------------------------
  Interatomic potentials     =        2062.95110810 eV
  Three-body potentials      =           0.47495582 eV
  Monopole - monopole (real) =       -6614.52319734 eV
  Monopole - monopole (recip)=       -3168.96035048 eV
  Monopole - monopole (total)=       -9783.48354782 eV
  Neutralising energy        =          -6.45517404 eV
--------------------------------------------------------------------------------
  Total lattice energy       =       -7726.51265793 eV
--------------------------------------------------------------------------------
  Total lattice energy       =         -745490.3609 kJ/(mole unit cells)
--------------------------------------------------------------------------------

  Final fractional coordinates of atoms :

--------------------------------------------------------------------------------
   No.  Atomic        x           y          z          Radius
        Label       (Frac)      (Frac)     (Frac)       (Angs) 
--------------------------------------------------------------------------------
     1  Ge    c     0.699600    0.375700    0.033890    0.000000
     2  Si    c     0.597661    0.316874    0.364250    0.000000
     3  Si    c     0.653849    0.279909    0.697920    0.000000
     4  Si    c     0.275480    0.617876    0.529795    0.000000
     5  Si    c     0.367025    0.668325    0.862951    0.000000
     6  Si    c     0.299758    0.696887    0.197249    0.000000
     7  Si    c     0.353930    0.693369    0.297494    0.000000
     8  Si    c     0.308304    0.613174    0.962324    0.000000
     9  Si    c     0.284574    0.673046    0.632725    0.000000
    10  Si    c     0.605515    0.287164    0.798297    0.000000
    11  Si    c     0.652608    0.376031    0.464603    0.000000
    12  Si    c     0.667284    0.311762    0.132277    0.000000
    13  Si    c     0.523946    0.410733    0.965795    0.000000
    14  Si    c     0.559076    0.103041    0.300859    0.000000
    15  Si    c     0.858558    0.461753    0.633820    0.000000
    16  Si    c     0.444407    0.576100    0.463643    0.000000
    17  Si    c     0.404811    0.876981    0.798377    0.000000
    18  Si    c     0.091041    0.523770    0.130236    0.000000
    19  Si    c     0.391914    0.521800    0.362111    0.000000
    20  Si    c     0.095435    0.569927    0.027356    0.000000
    21  Si    c     0.459155    0.875950    0.697209    0.000000
    22  Si    c     0.573135    0.464112    0.863557    0.000000
    23  Si    c     0.862164    0.413129    0.530004    0.000000
    24  Si    c     0.506176    0.105300    0.199547    0.000000
    25  Si    c     0.291429    0.391180    0.847232    0.000000
    26  Si    c     0.578158    0.897093    0.182989    0.000000
    27  Si    c     0.072473    0.697073    0.513015    0.000000
    28  Si    c     0.673329    0.592994    0.348823    0.000000
    29  Si    c     0.377238    0.077056    0.681438    0.000000
    30  Si    c     0.881472    0.283072    0.012624    0.000000
    31  Si    c     0.372908    0.296878    0.478170    0.000000
    32  Si    c     0.874692    0.595741    0.142045    0.000000
    33  Si    c     0.684923    0.087969    0.812584    0.000000
    34  Si    c     0.584894    0.689628    0.978358    0.000000
    35  Si    c     0.075219    0.392679    0.647180    0.000000
    36  Si    c     0.277946    0.895138    0.313775    0.000000
    37  Si    c     0.244990    0.336664    0.947462    0.000000
    38  Si    c     0.635183    0.901345    0.283622    0.000000
    39  Ge    c     0.068142    0.724956    0.613054    0.000000
    40  Si    c     0.724400    0.655461    0.449366    0.000000
    41  Si    c     0.324872    0.075947    0.782404    0.000000
    42  Si    c     0.884350    0.242589    0.116058    0.000000
    43  Si    c     0.315431    0.244274    0.377435    0.000000
    44  Si    c     0.893791    0.655648    0.039667    0.000000
    45  Si    c     0.736116    0.079523    0.712377    0.000000
    46  Si    c     0.649362    0.742760    0.878697    0.000000
    47  Si    c     0.063815    0.332259    0.545016    0.000000
    48  Si    c     0.227002    0.904466    0.213382    0.000000
    49  Si    c     0.968626    0.116838    0.961457    0.000000
    50  Si    c     0.852668    0.837680    0.297909    0.000000
    51  Si    c     0.128845    0.011490    0.629532    0.000000
    52  Si    c     0.004265    0.873430    0.462989    0.000000
    53  Si    c     0.109507    0.142222    0.796119    0.000000
    54  Si    c     0.827632    0.968215    0.132977    0.000000
    55  Si    c     0.097452    0.964713    0.362923    0.000000
    56  Ge    c     0.837381    0.877523    0.029062    0.000000
    57  Si    c     0.016598    0.144608    0.695274    0.000000
    58  Si    c     0.867514    0.020850    0.861360    0.000000
    59  Si    c     0.129305    0.114681    0.530099    0.000000
    60  Si    c     0.946691    0.842630    0.196730    0.000000
    61  O3    c     0.932047    0.001241    0.994356    0.000000
    62  O2    c     0.976809    0.920434    0.329378    0.000000
    63  O2    c     0.059363    0.069682    0.661154    0.000000
    64  O2    c     0.049166    0.994499    0.496467    0.000000
    65  O2    c     0.984140    0.061270    0.826586    0.000000
    66  O2    c     0.907224    0.927888    0.166599    0.000000
    67  O2    c     0.315475    0.570139    0.329371    0.000000
    68  O2    c     0.412752    0.749630    0.664625    0.000000
    69  O2    c     0.220114    0.646900    0.995610    0.000000
    70  O2    c     0.646570    0.411544    0.830844    0.000000
    71  O2    c     0.556613    0.233359    0.169605    0.000000
    72  O2    c     0.736314    0.337100    0.497532    0.000000
    73  O3    c     0.565749    0.333746    0.997545    0.000000
    74  O2    c     0.730956    0.400657    0.664548    0.000000
    75  O2    c     0.636588    0.229129    0.333160    0.000000
    76  O2    c     0.395385    0.652336    0.496464    0.000000
    77  O2    c     0.213781    0.574082    0.163982    0.000000
    78  O2    c     0.328593    0.752452    0.830288    0.000000
    79  O2    c     0.121320    0.210562    0.967405    0.000000
    80  O2    c     0.761555    0.900905    0.303555    0.000000
    81  O3    c     0.060979    0.862779    0.634082    0.000000
    82  O2    c     0.849637    0.783916    0.469000    0.000000
    83  O2    c     0.198527    0.076902    0.802264    0.000000
    84  O2    c     0.885727    0.121821    0.139394    0.000000
    85  O2    c     0.189245    0.118041    0.356932    0.000000
    86  O3    c     0.915821    0.790970    0.023221    0.000000
    87  O2    c     0.861780    0.080041    0.691460    0.000000
    88  O2    c     0.775759    0.866576    0.858172    0.000000
    89  O2    c     0.065399    0.206718    0.525562    0.000000
    90  O2    c     0.101334    0.905857    0.193165    0.000000
    91  O2    c     0.901833    0.845281    0.247325    0.000000
    92  O2    c     0.122788    0.063598    0.579760    0.000000
    93  O2    c     0.929251    0.063893    0.910737    0.000000
    94  O2    c     0.062174    0.133657    0.744998    0.000000
    95  O3    c     0.850249    0.937248    0.083119    0.000000
    96  O2    c     0.041562    0.929389    0.412958    0.000000
    97  O2    c     0.892030    0.190776    0.975083    0.000000
    98  O2    c     0.771651    0.687517    0.310669    0.000000
    99  O2    c     0.281664    0.075543    0.642352    0.000000
   100  O2    c     0.070311    0.786061    0.471670    0.000000
   101  O2    c     0.192581    0.293221    0.808966    0.000000
   102  O2    c     0.674845    0.896121    0.144498    0.000000
   103  O2    c     0.180354    0.894514    0.352238    0.000000
   104  O3    c     0.675868    0.788207    0.017674    0.000000
   105  O2    c     0.079693    0.296409    0.684063    0.000000
   106  O2    c     0.783364    0.089349    0.851059    0.000000
   107  O2    c     0.279303    0.199997    0.516494    0.000000
   108  O2    c     0.878047    0.694212    0.180686    0.000000
   109  O2    c     0.298582    0.637107    0.246748    0.000000
   110  O2    c     0.330908    0.671651    0.580359    0.000000
   111  O2    c     0.305062    0.668702    0.912376    0.000000
   112  O2    c     0.659809    0.341706    0.747957    0.000000
   113  O3    c     0.604264    0.303042    0.084231    0.000000
   114  O2    c     0.654295    0.318295    0.414595    0.000000
   115  O2    c     0.366295    0.326625    0.965652    0.000000
   116  O2    c     0.646217    0.033589    0.302907    0.000000
   117  O3    c     0.920069    0.613195    0.638524    0.000000
   118  O2    c     0.600535    0.663985    0.467373    0.000000
   119  O2    c     0.317127    0.945937    0.801414    0.000000
   120  O2    c     0.016159    0.368678    0.132894    0.000000
   121  O2    c     0.304701    0.365883    0.359164    0.000000
   122  O2    c     0.026029    0.655562    0.026597    0.000000
   123  O2    c     0.615383    0.944894    0.694566    0.000000
   124  O2    c     0.658920    0.619901    0.860194    0.000000
   125  O2    c     0.933305    0.327552    0.527202    0.000000
   126  O2    c     0.349615    0.035698    0.195473    0.000000
   127  O3    c     0.748994    0.277682    0.003215    0.000000
   128  O2    c     0.672708    0.458477    0.341606    0.000000
   129  O2    c     0.510582    0.211752    0.675528    0.000000
   130  O2    c     0.205501    0.691184    0.507938    0.000000
   131  O2    c     0.293582    0.525927    0.839463    0.000000
   132  O2    c     0.442327    0.764933    0.174527    0.000000
   133  O2    c     0.277792    0.760942    0.319955    0.000000
   134  O2    c     0.451001    0.691730    0.985139    0.000000
   135  O2    c     0.209602    0.526743    0.651895    0.000000
   136  O2    c     0.681606    0.219973    0.820791    0.000000
   137  O2    c     0.509265    0.301590    0.486342    0.000000
   138  O2    c     0.743674    0.461476    0.150817    0.000000
   139  O3    c     0.768640    0.541701    0.017356    0.000000
   140  O2    c     0.441510    0.243281    0.358343    0.000000
   141  O2    c     0.733745    0.203266    0.692389    0.000000
   142  O2    c     0.185590    0.463000    0.527646    0.000000
   143  O2    c     0.523810    0.744990    0.859413    0.000000
   144  O2    c     0.223030    0.776583    0.193288    0.000000
   145  O2    c     0.510040    0.775473    0.302668    0.000000
   146  O2    c     0.236617    0.458349    0.967414    0.000000
   147  O3    c     0.211906    0.753141    0.640403    0.000000
   148  O2    c     0.449198    0.204116    0.801952    0.000000
   149  O2    c     0.726916    0.531882    0.469400    0.000000
   150  O2    c     0.760183    0.247628    0.134078    0.000000
   151  O2    c     0.221841    0.318752    0.893310    0.000000
   152  O2    c     0.651847    0.899457    0.229372    0.000000
   153  O3    c     0.070424    0.775605    0.556241    0.000000
   154  O2    c     0.743171    0.669553    0.395139    0.000000
   155  O2    c     0.304114    0.071944    0.728228    0.000000
   156  O2    c     0.883624    0.221981    0.061915    0.000000
   157  O2    c     0.298893    0.225748    0.431584    0.000000
   158  O2    c     0.875086    0.661621    0.094858    0.000000
   159  O2    c     0.757650    0.084982    0.766597    0.000000
   160  O2    c     0.667081    0.762389    0.933293    0.000000
   161  O2    c     0.064995    0.323055    0.599053    0.000000
   162  O2    c     0.208445    0.902558    0.267620    0.000000
   163  O2    c     0.572966    0.552858    0.988151    0.000000
   164  O2    c     0.418261    0.018306    0.323691    0.000000
   165  O2    c     0.953291    0.412673    0.654956    0.000000
   166  O2    c     0.384042    0.435423    0.486456    0.000000
   167  O2    c     0.546809    0.961776    0.821201    0.000000
   168  O2    c     0.999570    0.578467    0.147675    0.000000
   169  O2    c     0.533326    0.578158    0.339430    0.000000
   170  O2    c     0.004952    0.426886    0.007249    0.000000
   171  O2    c     0.400488    0.957030    0.673330    0.000000
   172  O2    c     0.431729    0.405891    0.839981    0.000000
   173  O2    c     0.948796    0.553124    0.507620    0.000000
   174  O2    c     0.564914    0.023234    0.175478    0.000000
   175  O2    c     0.557688    0.156025    0.250639    0.000000
   176  O2    c     0.814130    0.413774    0.581128    0.000000
   177  O2    c     0.576400    0.415833    0.914221    0.000000
   178  O2    c     0.404853    0.823258    0.747560    0.000000
   179  O2    c     0.141415    0.567263    0.079164    0.000000
   180  O2    c     0.391432    0.576334    0.412826    0.000000
   181  F     c     0.426522    0.894666    0.247974    0.000000
   182  F     c     0.070470    0.578240    0.585754    0.000000
   183  F     c     0.439716    0.547568    0.913419    0.000000
   184  F     c     0.535793    0.084541    0.747732    0.000000
   185  F     c     0.844652    0.430942    0.071040    0.000000
   186  F     c     0.523270    0.446675    0.413670    0.000000
   187  O3    s     0.927575    0.002943    0.993841    0.000000
   188  O2    s     0.976377    0.916089    0.329601    0.000000
   189  O2    s     0.061789    0.072223    0.661758    0.000000
   190  O2    s     0.053020    0.994324    0.496452    0.000000
   191  O2    s     0.985136    0.065784    0.827057    0.000000
   192  O2    s     0.902964    0.922697    0.166327    0.000000
   193  O2    s     0.327251    0.577838    0.329439    0.000000
   194  O2    s     0.404475    0.754433    0.664633    0.000000
   195  O2    s     0.215740    0.635315    0.995628    0.000000
   196  O2    s     0.634831    0.404109    0.830822    0.000000
   197  O2    s     0.562677    0.227968    0.168909    0.000000
   198  O2    s     0.740814    0.349034    0.497507    0.000000
   199  O3    s     0.570606    0.345074    0.996658    0.000000
   200  O2    s     0.736681    0.394653    0.664720    0.000000
   201  O2    s     0.624570    0.225099    0.333020    0.000000
   202  O2    s     0.387823    0.640862    0.496599    0.000000
   203  O2    s     0.209498    0.581198    0.163790    0.000000
   204  O2    s     0.340437    0.756752    0.830333    0.000000
   205  O2    s     0.117602    0.213588    0.964668    0.000000
   206  O2    s     0.758090    0.894208    0.300901    0.000000
   207  O3    s     0.069122    0.870574    0.632222    0.000000
   208  O2    s     0.852788    0.779939    0.466362    0.000000
   209  O2    s     0.202072    0.083742    0.799594    0.000000
   210  O2    s     0.879572    0.118602    0.136317    0.000000
   211  O2    s     0.192603    0.114918    0.359652    0.000000
   212  O3    s     0.907049    0.784268    0.025389    0.000000
   213  O2    s     0.865219    0.086909    0.694025    0.000000
   214  O2    s     0.772494    0.870192    0.860596    0.000000
   215  O2    s     0.071674    0.210768    0.528061    0.000000
   216  O2    s     0.097912    0.898969    0.195625    0.000000
   217  O2    s     0.901344    0.844126    0.247338    0.000000
   218  O2    s     0.124166    0.064148    0.579123    0.000000
   219  O2    s     0.926648    0.064946    0.910831    0.000000
   220  O2    s     0.062342    0.135877    0.745142    0.000000
   221  O3    s     0.846612    0.935586    0.084053    0.000000
   222  O2    s     0.043729    0.927132    0.412879    0.000000
   223  O2    s     0.899196    0.192733    0.977668    0.000000
   224  O2    s     0.770180    0.693786    0.313229    0.000000
   225  O2    s     0.276423    0.069305    0.645170    0.000000
   226  O2    s     0.063609    0.786443    0.474778    0.000000
   227  O2    s     0.193918    0.287265    0.811535    0.000000
   228  O2    s     0.680749    0.903637    0.147223    0.000000
   229  O2    s     0.181593    0.901962    0.349439    0.000000
   230  O3    s     0.681099    0.786580    0.014957    0.000000
   231  O2    s     0.072742    0.291045    0.681313    0.000000
   232  O2    s     0.782312    0.081937    0.848248    0.000000
   233  O2    s     0.273132    0.201084    0.513916    0.000000
   234  O2    s     0.885078    0.699885    0.178372    0.000000
   235  O2    s     0.304315    0.648910    0.246837    0.000000
   236  O2    s     0.320606    0.666202    0.580178    0.000000
   237  O2    s     0.311568    0.663006    0.912529    0.000000
   238  O2    s     0.653662    0.329812    0.748009    0.000000
   239  O3    s     0.616926    0.308570    0.086081    0.000000
   240  O2    s     0.648288    0.324110    0.414554    0.000000
   241  O2    s     0.368635    0.336173    0.963632    0.000000
   242  O2    s     0.636074    0.026923    0.300672    0.000000
   243  O3    s     0.924299    0.605558    0.636203    0.000000
   244  O2    s     0.597317    0.653982    0.465090    0.000000
   245  O2    s     0.326934    0.952483    0.799106    0.000000
   246  O2    s     0.010304    0.371869    0.130855    0.000000
   247  O2    s     0.314772    0.369247    0.361378    0.000000
   248  O2    s     0.019947    0.646253    0.028045    0.000000
   249  O2    s     0.611852    0.951891    0.696729    0.000000
   250  O2    s     0.649148    0.616751    0.862473    0.000000
   251  O2    s     0.939799    0.336744    0.529356    0.000000
   252  O2    s     0.352781    0.029029    0.197780    0.000000
   253  O3    s     0.759889    0.284837    0.006355    0.000000
   254  O2    s     0.665053    0.458002    0.344720    0.000000
   255  O2    s     0.511526    0.204679    0.678538    0.000000
   256  O2    s     0.199321    0.684158    0.510760    0.000000
   257  O2    s     0.300881    0.526403    0.842708    0.000000
   258  O2    s     0.441790    0.771682    0.177772    0.000000
   259  O2    s     0.285616    0.768097    0.316964    0.000000
   260  O2    s     0.449983    0.683326    0.982010    0.000000
   261  O2    s     0.202826    0.527236    0.649421    0.000000
   262  O2    s     0.674183    0.212870    0.817596    0.000000
   263  O2    s     0.509755    0.308867    0.483173    0.000000
   264  O2    s     0.750165    0.461224    0.148067    0.000000
   265  O3    s     0.777675    0.543096    0.020776    0.000000
   266  O2    s     0.444118    0.251122    0.360981    0.000000
   267  O2    s     0.725703    0.197817    0.695080    0.000000
   268  O2    s     0.181711    0.465058    0.529750    0.000000
   269  O2    s     0.521102    0.736711    0.861846    0.000000
   270  O2    s     0.231510    0.781986    0.195828    0.000000
   271  O2    s     0.507229    0.780590    0.300092    0.000000
   272  O2    s     0.245099    0.461680    0.964782    0.000000
   273  O3    s     0.208457    0.742803    0.637633    0.000000
   274  O2    s     0.452135    0.198891    0.799485    0.000000
   275  O2    s     0.718853    0.529000    0.466781    0.000000
   276  O2    s     0.764635    0.253619    0.131899    0.000000
   277  O2    s     0.231665    0.328354    0.894136    0.000000
   278  O2    s     0.642321    0.899405    0.230258    0.000000
   279  O3    s     0.070501    0.763941    0.555669    0.000000
   280  O2    s     0.733814    0.659985    0.396007    0.000000
   281  O2    s     0.313939    0.072884    0.729105    0.000000
   282  O2    s     0.883460    0.230038    0.062860    0.000000
   283  O2    s     0.308421    0.235181    0.430711    0.000000
   284  O2    s     0.876683    0.653870    0.094766    0.000000
   285  O2    s     0.747832    0.084717    0.765625    0.000000
   286  O2    s     0.657183    0.753185    0.932185    0.000000
   287  O2    s     0.065932    0.331444    0.598174    0.000000
   288  O2    s     0.217685    0.901998    0.266691    0.000000
   289  O2    s     0.569123    0.553676    0.984811    0.000000
   290  O2    s     0.417891    0.013737    0.320236    0.000000
   291  O2    s     0.957474    0.415539    0.651998    0.000000
   292  O2    s     0.389256    0.435285    0.483188    0.000000
   293  O2    s     0.546801    0.966668    0.817863    0.000000
   294  O2    s     0.995939    0.574332    0.145186    0.000000
   295  O2    s     0.533602    0.573694    0.342813    0.000000
   296  O2    s     0.001911    0.427624    0.009995    0.000000
   297  O2    s     0.404407    0.961674    0.676728    0.000000
   298  O2    s     0.431172    0.410509    0.843219    0.000000
   299  O2    s     0.952614    0.553280    0.510552    0.000000
   300  O2    s     0.560081    0.018102    0.178774    0.000000
   301  O2    s     0.552379    0.145081    0.250536    0.000000
   302  O2    s     0.823627    0.418429    0.580818    0.000000
   303  O2    s     0.570863    0.420495    0.913968    0.000000
   304  O2    s     0.410475    0.834282    0.747594    0.000000
   305  O2    s     0.131472    0.562942    0.079311    0.000000
   306  O2    s     0.396954    0.570703    0.412858    0.000000
   307  F     s     0.426175    0.894115    0.247908    0.000000
   308  F     s     0.070556    0.586696    0.587188    0.000000
   309  F     s     0.439291    0.548431    0.913460    0.000000
   310  F     s     0.536366    0.085070    0.747728    0.000000
   311  F     s     0.834169    0.427092    0.068471    0.000000
   312  F     s     0.523474    0.446556    0.413683    0.000000
--------------------------------------------------------------------------------

  Final Cartesian lattice vectors (Angstroms) :

       11.936918    0.006766   -0.003512
       -5.971724   10.398492   -0.006027
       -0.041989   -0.354524   29.517672


  Final cell parameters and derivatives :

--------------------------------------------------------------------------------
       a           11.936921 Angstrom     dE/de1(xx)     0.000698 eV/strain
       b           11.991254 Angstrom     dE/de2(yy)    -0.000176 eV/strain
       c           29.519830 Angstrom     dE/de3(zz)     0.001341 eV/strain
       alpha       90.584925 Degrees      dE/de4(yz)     0.000108 eV/strain
       beta        90.098744 Degrees      dE/de5(xz)     0.000044 eV/strain
       gamma      119.835721 Degrees      dE/de6(xy)     0.000038 eV/strain
--------------------------------------------------------------------------------

  Primitive cell volume =          3665.067418 Angs**3

  Density of cell =      1.745696 g/cm**3

  Non-primitive cell volume =          3665.067418 Angs**3


  Final internal derivatives :

--------------------------------------------------------------------------------
   No.  Atomic          a             b             c           Radius
        Label          (eV)          (eV)          (eV)        (eV/Angs)
--------------------------------------------------------------------------------
      1 Ge    c       0.000000      0.000000      0.000000      0.000000
      2 Si    c       0.000339     -0.000166      0.000757      0.000000
      3 Si    c      -0.000031     -0.000060      0.000424      0.000000
      4 Si    c       0.000082      0.000598      0.000371      0.000000
      5 Si    c       0.000224     -0.000081      0.000182      0.000000
      6 Si    c       0.000057      0.000204      0.001523      0.000000
      7 Si    c      -0.000218      0.000413      0.000213      0.000000
      8 Si    c       0.000396     -0.000182     -0.000528      0.000000
      9 Si    c      -0.000211      0.000255     -0.000717      0.000000
     10 Si    c      -0.000061      0.000384     -0.000510      0.000000
     11 Si    c       0.000134     -0.000571      0.000041      0.000000
     12 Si    c       0.001775      0.000831      0.006914      0.000000
     13 Si    c      -0.000385     -0.001252      0.001019      0.000000
     14 Si    c       0.000459     -0.000204      0.000089      0.000000
     15 Si    c       0.000328     -0.000310     -0.000725      0.000000
     16 Si    c       0.000084     -0.000016      0.000110      0.000000
     17 Si    c      -0.000045     -0.000357     -0.000182      0.000000
     18 Si    c       0.000791      0.000438      0.000510      0.000000
     19 Si    c       0.000288      0.000334      0.000951      0.000000
     20 Si    c       0.000940      0.000119     -0.000472      0.000000
     21 Si    c      -0.000196      0.000153      0.000735      0.000000
     22 Si    c      -0.000279      0.000171      0.000501      0.000000
     23 Si    c       0.000217     -0.000349      0.000384      0.000000
     24 Si    c       0.000291     -0.000991      0.002312      0.000000
     25 Si    c       0.000145      0.000188      0.000438      0.000000
     26 Si    c      -0.000231      0.000369      0.001286      0.000000
     27 Si    c       0.000575     -0.000062      0.000928      0.000000
     28 Si    c       0.000628      0.000243      0.000802      0.000000
     29 Si    c       0.000020     -0.000031      0.000282      0.000000
     30 Si    c       0.001732      0.000808     -0.001573      0.000000
     31 Si    c       0.000144     -0.000677     -0.000204      0.000000
     32 Si    c       0.001222      0.000136     -0.000001      0.000000
     33 Si    c       0.000024     -0.000143     -0.000421      0.000000
     34 Si    c      -0.000280     -0.000087     -0.001410      0.000000
     35 Si    c      -0.000339      0.000082     -0.000873      0.000000
     36 Si    c       0.000276     -0.000300     -0.000198      0.000000
     37 Si    c       0.000062     -0.000072     -0.000498      0.000000
     38 Si    c      -0.000199      0.000595     -0.000060      0.000000
     39 Ge    c       0.000423     -0.000333     -0.000568      0.000000
     40 Si    c       0.000264     -0.000290     -0.000325      0.000000
     41 Si    c      -0.000045      0.000193     -0.000552      0.000000
     42 Si    c       0.001076      0.000338     -0.000312      0.000000
     43 Si    c       0.000398     -0.000134      0.001008      0.000000
     44 Si    c       0.000945     -0.000277     -0.001851      0.000000
     45 Si    c      -0.000252      0.000063      0.000507      0.000000
     46 Si    c      -0.000216      0.000230      0.000109      0.000000
     47 Si    c      -0.000303      0.000466      0.000673      0.000000
     48 Si    c       0.000546     -0.000348      0.000920      0.000000
     49 Si    c      -0.000221      0.000775     -0.000321      0.000000
     50 Si    c       0.000748      0.000121      0.000292      0.000000
     51 Si    c       0.000290     -0.000140     -0.000231      0.000000
     52 Si    c       0.000359     -0.000159     -0.000075      0.000000
     53 Si    c       0.000143      0.000307      0.000035      0.000000
     54 Si    c      -0.000818      0.000233      0.002956      0.000000
     55 Si    c       0.000171     -0.000112      0.000726      0.000000
     56 Ge    c      -0.001839     -0.001075     -0.001307      0.000000
     57 Si    c      -0.000236     -0.000092      0.000291      0.000000
     58 Si    c      -0.000453      0.000409     -0.000605      0.000000
     59 Si    c       0.000189     -0.000476     -0.000099      0.000000
     60 Si    c       0.000907     -0.000607      0.001647      0.000000
     61 O3    c       0.000280      0.001182     -0.003943      0.000000
     62 O2    c       0.000485      0.000178      0.000044      0.000000
     63 O2    c      -0.000557     -0.000235      0.000536      0.000000
     64 O2    c       0.000166     -0.000423     -0.000115      0.000000
     65 O2    c       0.000128      0.000394      0.000396      0.000000
     66 O2    c       0.000553      0.000730      0.003836      0.000000
     67 O2    c       0.000238      0.000037      0.000368      0.000000
     68 O2    c      -0.000241      0.000249      0.000023      0.000000
     69 O2    c       0.001065      0.000263      0.000136      0.000000
     70 O2    c      -0.000063      0.000525     -0.000313      0.000000
     71 O2    c      -0.000390     -0.000549      0.003152      0.000000
     72 O2    c       0.000129     -0.000183     -0.000003      0.000000
     73 O3    c       0.001148     -0.000962      0.002425      0.000000
     74 O2    c       0.000178     -0.000087      0.000041      0.000000
     75 O2    c       0.000186      0.000135      0.000236      0.000000
     76 O2    c       0.000285     -0.000083      0.000045      0.000000
     77 O2    c       0.000097     -0.000224     -0.000123      0.000000
     78 O2    c       0.000209     -0.000188      0.000059      0.000000
     79 O2    c      -0.000145     -0.000119     -0.000153      0.000000
     80 O2    c       0.000393      0.000315     -0.000010      0.000000
     81 O3    c       0.000364     -0.000906     -0.000471      0.000000
     82 O2    c       0.000338     -0.000410     -0.000219      0.000000
     83 O2    c       0.000105      0.000014     -0.000307      0.000000
     84 O2    c       0.000057      0.001644      0.001954      0.000000
     85 O2    c       0.000449     -0.000013      0.000567      0.000000
     86 O3    c       0.003806     -0.000977     -0.005066      0.000000
     87 O2    c      -0.000827     -0.000089      0.000257      0.000000
     88 O2    c      -0.000286      0.000391      0.000357      0.000000
     89 O2    c       0.000072      0.000216      0.000125      0.000000
     90 O2    c       0.001086     -0.000135      0.001019      0.000000
     91 O2    c       0.000515     -0.000021      0.001637      0.000000
     92 O2    c      -0.000308     -0.000509      0.000428      0.000000
     93 O2    c      -0.000431      0.000506     -0.000492      0.000000
     94 O2    c      -0.000213     -0.000170      0.000399      0.000000
     95 O3    c      -0.000141      0.000667      0.002173      0.000000
     96 O2    c       0.000170     -0.000220      0.000163      0.000000
     97 O2    c      -0.000142      0.001029     -0.001126      0.000000
     98 O2    c       0.000384      0.000080      0.000834      0.000000
     99 O2    c       0.000591      0.000078      0.000527      0.000000
    100 O2    c       0.000364      0.000076      0.000671      0.000000
    101 O2    c       0.000161      0.000542     -0.000079      0.000000
    102 O2    c      -0.000712     -0.000093      0.001389      0.000000
    103 O2    c       0.000140     -0.000200     -0.000154      0.000000
    104 O3    c      -0.002148     -0.000218     -0.001455      0.000000
    105 O2    c      -0.000045      0.000283     -0.000542      0.000000
    106 O2    c      -0.000250      0.000207     -0.000761      0.000000
    107 O2    c       0.000161     -0.000538     -0.000356      0.000000
    108 O2    c       0.000696     -0.001449      0.000057      0.000000
    109 O2    c      -0.000223      0.000196      0.000891      0.000000
    110 O2    c       0.000139      0.000536     -0.000383      0.000000
    111 O2    c       0.000559     -0.000059      0.000227      0.000000
    112 O2    c       0.000066      0.000212      0.000077      0.000000
    113 O3    c      -0.001333     -0.001298      0.005397      0.000000
    114 O2    c       0.000018     -0.000314      0.000205      0.000000
    115 O2    c      -0.000383     -0.000247     -0.000229      0.000000
    116 O2    c      -0.000044      0.000262     -0.000341      0.000000
    117 O3    c       0.000526     -0.000366     -0.000914      0.000000
    118 O2    c       0.000331     -0.000372     -0.000187      0.000000
    119 O2    c      -0.000123      0.000068     -0.000358      0.000000
    120 O2    c       0.000836      0.000151      0.000944      0.000000
    121 O2    c       0.000414      0.000109      0.000525      0.000000
    122 O2    c       0.001821      0.001021     -0.001162      0.000000
    123 O2    c      -0.000428      0.000186      0.000424      0.000000
    124 O2    c      -0.000140      0.000354      0.000155      0.000000
    125 O2    c       0.000226      0.000034      0.000585      0.000000
    126 O2    c       0.000777     -0.000071      0.000624      0.000000
    127 O3    c       0.001746     -0.000294     -0.000901      0.000000
    128 O2    c       0.000299      0.000038      0.000632      0.000000
    129 O2    c       0.000156     -0.000094      0.000360      0.000000
    130 O2    c       0.000528      0.000117      0.000833      0.000000
    131 O2    c       0.000139      0.000183      0.000292      0.000000
    132 O2    c       0.000225      0.000187      0.000938      0.000000
    133 O2    c       0.000363     -0.000056     -0.000564      0.000000
    134 O2    c       0.000465     -0.000391     -0.000346      0.000000
    135 O2    c      -0.000286      0.000080     -0.000528      0.000000
    136 O2    c      -0.000019      0.000060     -0.000541      0.000000
    137 O2    c       0.000056     -0.000475     -0.000311      0.000000
    138 O2    c       0.000740      0.000568      0.000260      0.000000
    139 O3    c      -0.000780     -0.000451     -0.001511      0.000000
    140 O2    c       0.000401     -0.000142      0.000593      0.000000
    141 O2    c      -0.000071      0.000175      0.000300      0.000000
    142 O2    c      -0.000159      0.000460      0.000471      0.000000
    143 O2    c       0.000350     -0.000005      0.000466      0.000000
    144 O2    c       0.000507     -0.000124      0.001020      0.000000
    145 O2    c      -0.000175      0.000347     -0.000093      0.000000
    146 O2    c       0.000105     -0.000265     -0.000252      0.000000
    147 O3    c       0.000568     -0.000055     -0.001146      0.000000
    148 O2    c       0.000032      0.000163     -0.000579      0.000000
    149 O2    c       0.000118     -0.000591     -0.000266      0.000000
    150 O2    c       0.000280     -0.001031      0.001484      0.000000
    151 O2    c      -0.000232     -0.000221      0.000783      0.000000
    152 O2    c      -0.000164      0.000603      0.000253      0.000000
    153 O3    c       0.000751     -0.000590      0.000091      0.000000
    154 O2    c       0.000335     -0.000090      0.000556      0.000000
    155 O2    c       0.000126      0.000145      0.000314      0.000000
    156 O2    c       0.000434     -0.000587     -0.002238      0.000000
    157 O2    c       0.000236     -0.000390      0.000062      0.000000
    158 O2    c       0.001123      0.001336      0.006103      0.000000
    159 O2    c      -0.000365      0.000054     -0.000010      0.000000
    160 O2    c       0.000054     -0.000046     -0.000471      0.000000
    161 O2    c      -0.000400      0.000173     -0.000070      0.000000
    162 O2    c       0.000515     -0.000378     -0.000328      0.000000
    163 O2    c       0.000199     -0.000685     -0.000452      0.000000
    164 O2    c       0.000401     -0.000173     -0.000515      0.000000
    165 O2    c       0.000038     -0.000336     -0.000820      0.000000
    166 O2    c       0.000113     -0.000505     -0.000346      0.000000
    167 O2    c      -0.000082     -0.000147     -0.000584      0.000000
    168 O2    c       0.001156      0.000115      0.000515      0.000000
    169 O2    c       0.000669      0.000182      0.000884      0.000000
    170 O2    c       0.001677      0.000046     -0.000922      0.000000
    171 O2    c      -0.000334     -0.000043      0.000544      0.000000
    172 O2    c       0.000065      0.000196      0.000207      0.000000
    173 O2    c       0.000492     -0.000253      0.000714      0.000000
    174 O2    c       0.000679      0.000195      0.000814      0.000000
    175 O2    c       0.000858      0.000008      0.000356      0.000000
    176 O2    c       0.000256     -0.000496     -0.000243      0.000000
    177 O2    c      -0.000196     -0.000196     -0.000839      0.000000
    178 O2    c      -0.000299     -0.000019      0.000641      0.000000
    179 O2    c       0.001191      0.000793      0.001153      0.000000
    180 O2    c       0.000450     -0.000015      0.000298      0.000000
    181 F     c       0.000295      0.000177      0.000341      0.000000
    182 F     c       0.000175      0.000177      0.000097      0.000000
    183 F     c       0.000037     -0.000282     -0.000212      0.000000
    184 F     c      -0.000057      0.000102     -0.000029      0.000000
    185 F     c      -0.000615      0.000704     -0.002563      0.000000
    186 F     c       0.000239     -0.000222      0.000227      0.000000
    187 O3    s       0.000675      0.000275     -0.005329      0.000000
    188 O2    s       0.000358      0.000590      0.000067      0.000000
    189 O2    s      -0.000311     -0.000277      0.000277      0.000000
    190 O2    s      -0.000233     -0.000054     -0.000363      0.000000
    191 O2    s       0.000361      0.000361      0.000422      0.000000
    192 O2    s       0.000884     -0.000306      0.005724      0.000000
    193 O2    s       0.000825     -0.000251     -0.000278      0.000000
    194 O2    s      -0.000101     -0.000057      0.000157      0.000000
    195 O2    s       0.000970      0.000276      0.000309      0.000000
    196 O2    s       0.000222      0.000243      0.000126      0.000000
    197 O2    s       0.000533     -0.000058      0.005280      0.000000
    198 O2    s      -0.000028     -0.000329      0.000174      0.000000
    199 O3    s       0.001303     -0.000803      0.001843      0.000000
    200 O2    s       0.000010      0.000123      0.000276      0.000000
    201 O2    s      -0.000046      0.000412     -0.000086      0.000000
    202 O2    s       0.000727     -0.000437      0.000524      0.000000
    203 O2    s       0.000673     -0.000679     -0.000429      0.000000
    204 O2    s      -0.000277      0.000244      0.000393      0.000000
    205 O2    s       0.000051     -0.000306     -0.000386      0.000000
    206 O2    s       0.000444      0.000126     -0.000975      0.000000
    207 O3    s       0.000091     -0.000416      0.000082      0.000000
    208 O2    s       0.000321     -0.000468     -0.000436      0.000000
    209 O2    s       0.000163     -0.000021     -0.000105      0.000000
    210 O2    s       0.000654      0.001067      0.004114      0.000000
    211 O2    s       0.000619     -0.000056      0.000828      0.000000
    212 O3    s       0.002751     -0.001663     -0.007134      0.000000
    213 O2    s      -0.000572     -0.000262      0.000717      0.000000
    214 O2    s       0.000066      0.000118      0.000894      0.000000
    215 O2    s       0.000459     -0.000125      0.000802      0.000000
    216 O2    s       0.000602      0.000221      0.001049      0.000000
    217 O2    s       0.000145      0.000613      0.001451      0.000000
    218 O2    s      -0.000986      0.000035      0.000492      0.000000
    219 O2    s      -0.000195      0.000586     -0.000651      0.000000
    220 O2    s      -0.000214     -0.000225     -0.000091      0.000000
    221 O3    s       0.000289     -0.002019      0.002347      0.000000
    222 O2    s       0.000148     -0.000120      0.000010      0.000000
    223 O2    s       0.000322      0.001674     -0.001663      0.000000
    224 O2    s       0.000282      0.000370      0.000980      0.000000
    225 O2    s       0.000159      0.000597      0.001146      0.000000
    226 O2    s       0.000417      0.000118      0.000779      0.000000
    227 O2    s       0.000289      0.000370      0.000008      0.000000
    228 O2    s      -0.000314     -0.000621      0.003629      0.000000
    229 O2    s      -0.000000      0.000018     -0.000437      0.000000
    230 O3    s      -0.000234     -0.001827     -0.001753      0.000000
    231 O2    s       0.000005      0.000237     -0.001117      0.000000
    232 O2    s      -0.000528      0.000527     -0.001036      0.000000
    233 O2    s      -0.000267     -0.000206     -0.000545      0.000000
    234 O2    s       0.000512     -0.000696     -0.000495      0.000000
    235 O2    s       0.000664     -0.000720      0.000265      0.000000
    236 O2    s       0.001085      0.000080     -0.000305      0.000000
    237 O2    s       0.000550      0.000153     -0.000054      0.000000
    238 O2    s       0.000266      0.000121      0.000329      0.000000
    239 O3    s      -0.000670      0.000714      0.000641      0.000000
    240 O2    s      -0.000296     -0.000183      0.000154      0.000000
    241 O2    s      -0.000084     -0.000891      0.000082      0.000000
    242 O2    s       0.000486      0.000117      0.000111      0.000000
    243 O3    s       0.000339     -0.000295     -0.000889      0.000000
    244 O2    s       0.000371     -0.000727     -0.000219      0.000000
    245 O2    s      -0.000030     -0.000056     -0.000289      0.000000
    246 O2    s       0.000830      0.000402      0.000120      0.000000
    247 O2    s       0.001082     -0.000137      0.000945      0.000000
    248 O2    s       0.001426      0.000522     -0.002318      0.000000
    249 O2    s      -0.000457      0.000179      0.001280      0.000000
    250 O2    s       0.000283      0.000146      0.001059      0.000000
    251 O2    s       0.000247     -0.000322      0.000503      0.000000
    252 O2    s       0.000641      0.000307      0.000904      0.000000
    253 O3    s       0.001809      0.000107     -0.001377      0.000000
    254 O2    s       0.000116      0.000291      0.001116      0.000000
    255 O2    s      -0.000100      0.000105      0.001344      0.000000
    256 O2    s       0.000593      0.000319      0.000547      0.000000
    257 O2    s      -0.000082      0.000292      0.000654      0.000000
    258 O2    s       0.000706     -0.000175      0.001278      0.000000
    259 O2    s       0.000132     -0.000045     -0.000042      0.000000
    260 O2    s       0.000333     -0.000453     -0.000502      0.000000
    261 O2    s      -0.000019     -0.000162     -0.000852      0.000000
    262 O2    s      -0.000292      0.000213     -0.000899      0.000000
    263 O2    s      -0.000096     -0.000550     -0.000652      0.000000
    264 O2    s       0.001031     -0.000353      0.001321      0.000000
    265 O3    s      -0.000691      0.000230     -0.003580      0.000000
    266 O2    s       0.000151      0.000141      0.000774      0.000000
    267 O2    s      -0.000188      0.000162      0.001348      0.000000
    268 O2    s       0.000875     -0.000210      0.000981      0.000000
    269 O2    s       0.000098      0.000290      0.001001      0.000000
    270 O2    s       0.000327      0.000211      0.000633      0.000000
    271 O2    s       0.000670     -0.000594     -0.000323      0.000000
    272 O2    s       0.000218     -0.000091     -0.000087      0.000000
    273 O3    s       0.000254     -0.000046     -0.000425      0.000000
    274 O2    s       0.000325     -0.000065     -0.000599      0.000000
    275 O2    s      -0.000035     -0.000359     -0.000542      0.000000
    276 O2    s      -0.000024      0.000354      0.003867      0.000000
    277 O2    s      -0.000167     -0.000502      0.000532      0.000000
    278 O2    s       0.000972     -0.000288      0.000187      0.000000
    279 O3    s       0.000353      0.000031     -0.000465      0.000000
    280 O2    s       0.000456     -0.000056      0.000284      0.000000
    281 O2    s       0.000197      0.000259      0.000250      0.000000
    282 O2    s       0.000767      0.000282     -0.001208      0.000000
    283 O2    s       0.000167     -0.000399      0.000028      0.000000
    284 O2    s       0.001497      0.001914      0.005662      0.000000
    285 O2    s      -0.000605      0.000225     -0.000264      0.000000
    286 O2    s       0.000949     -0.000709      0.000148      0.000000
    287 O2    s       0.000328     -0.000649     -0.000210      0.000000
    288 O2    s       0.000230      0.000076      0.000256      0.000000
    289 O2    s       0.000713     -0.000243     -0.000084      0.000000
    290 O2    s      -0.000069      0.000595     -0.000506      0.000000
    291 O2    s       0.000038     -0.000344     -0.000669      0.000000
    292 O2    s       0.000143     -0.000426     -0.000491      0.000000
    293 O2    s      -0.000701      0.000489     -0.000644      0.000000
    294 O2    s       0.001015     -0.000129     -0.000435      0.000000
    295 O2    s       0.000670      0.000184      0.001394      0.000000
    296 O2    s       0.001860     -0.000076     -0.000667      0.000000
    297 O2    s      -0.000342      0.000046      0.001985      0.000000
    298 O2    s       0.000184     -0.000126      0.000588      0.000000
    299 O2    s       0.000281     -0.000022      0.000808      0.000000
    300 O2    s       0.000550      0.000206      0.000834      0.000000
    301 O2    s       0.000560      0.000696      0.000494      0.000000
    302 O2    s      -0.000000     -0.000481     -0.000421      0.000000
    303 O2    s       0.000264     -0.000803     -0.000989      0.000000
    304 O2    s      -0.000819      0.000303      0.000494      0.000000
    305 O2    s       0.001508      0.001077      0.000971      0.000000
    306 O2    s       0.001107     -0.000443      0.000215      0.000000
    307 F     s       0.000333      0.000282      0.000018      0.000000
    308 F     s       0.000122      0.000245      0.000528      0.000000
    309 F     s       0.000091     -0.000367     -0.000111      0.000000
    310 F     s      -0.000198      0.000252      0.000297      0.000000
    311 F     s      -0.000614      0.000084     -0.003251      0.000000
    312 F     s       0.000256     -0.000256      0.000104      0.000000
--------------------------------------------------------------------------------
  Maximum abs         0.003806      0.002019      0.007134      0.000000
--------------------------------------------------------------------------------


  Time to end of optimisation =      53.1692 seconds


  Peak dynamic memory used =      19.13 MB 


  Timing analysis for GULP :

--------------------------------------------------------------------------------
  Task / Subroutine                                          Time (Seconds)
--------------------------------------------------------------------------------
  Calculation of reciprocal space energy and derivatives          1.4001
  Calculation of real space energy and derivatives               46.2524
  Calculation of three-body energy and derivatives                4.6741
  Calculation of matrix inversion                                 0.7443
--------------------------------------------------------------------------------
  Total CPU time                                                 53.1693
--------------------------------------------------------------------------------


  Dump file written as out.res                                                 
  CIF file written as out.cif                                                 


  Job Finished at 01:40.03 10th November   2016                               

