********************************************************************************
*                       GENERAL UTILITY LATTICE PROGRAM                        *
*                                 Julian Gale                                  *
*                      Nanochemistry Research Institute                        *
*                           Department of Chemistry                            *
*                    Curtin University, Western Australia                      *
********************************************************************************
* Version = 4.2.0 * Last modified =  20th January 2014                         *
********************************************************************************
*  optimise     - perform optimisation run                                     *
*  conp         - constant pressure calculation                                *
*  qok          - running with non charge neutral cell is OK                   *
********************************************************************************

  Job Started  at 18:57.10 11th November   2016                               

  Number of CPUs =     1


  Total number of configurations input =   1

********************************************************************************
*  Input for Configuration =   1                                               *
********************************************************************************

  Formula = Ge3Si57O120F6                                               

  Number of irreducible atoms/shells =     312


  Total number atoms/shells =     312

  Dimensionality = 3               :  Bulk   


  Charge on solid   =  -6.000000 =>neutralising background added


  Cartesian lattice vectors (Angstroms) :

       11.942530    0.000000    0.000000
       -6.100675   10.379180    0.000000
        0.012524   -0.047654   29.507122

  Cell parameters (Angstroms/Degrees):

  a =      11.9425    alpha =  90.0921
  b =      12.0393    beta  =  89.9757
  c =      29.5072    gamma = 120.4462

  Initial cell volume =        3657.516021 Angs**3

  Temperature of configuration =  0.000     K 

  Pressure of configuration =         0.000 GPa 

  Fractional coordinates of asymmetric unit :

--------------------------------------------------------------------------------
   No.  Atomic       x           y          z         Charge      Occupancy
        Label      (Frac)      (Frac)     (Frac)        (e)         (Frac)  
--------------------------------------------------------------------------------
      1 Ge    c    0.699600    0.375700    0.033890     4.00000    1.000000    
      2 Si    c    0.622825 *  0.321779 *  0.364460 *   4.00000    1.000000    
      3 Si    c    0.675687 *  0.296405 *  0.697330 *   4.00000    1.000000    
      4 Si    c    0.288298 *  0.618395 *  0.527078 *   4.00000    1.000000    
      5 Si    c    0.373680 *  0.677257 *  0.857504 *   4.00000    1.000000    
      6 Si    c    0.314319 *  0.704240 *  0.194457 *   4.00000    1.000000    
      7 Si    c    0.369699 *  0.692448 *  0.294063 *   4.00000    1.000000    
      8 Si    c    0.318374 *  0.625452 *  0.960133 *   4.00000    1.000000    
      9 Si    c    0.295042 *  0.676386 *  0.627277 *   4.00000    1.000000    
     10 Si    c    0.616389 *  0.285797 *  0.797569 *   4.00000    1.000000    
     11 Si    c    0.669299 *  0.377000 *  0.465291 *   4.00000    1.000000    
     12 Si    c    0.681124 *  0.316247 *  0.132466 *   4.00000    1.000000    
     13 Si    c    0.531666 *  0.421057 *  0.966425 *   4.00000    1.000000    
     14 Si    c    0.579862 *  0.106788 *  0.301737 *   4.00000    1.000000    
     15 Si    c    0.885360 *  0.470949 *  0.632158 *   4.00000    1.000000    
     16 Si    c    0.458305 *  0.578632 *  0.461318 *   4.00000    1.000000    
     17 Si    c    0.405118 *  0.879517 *  0.793071 *   4.00000    1.000000    
     18 Si    c    0.104537 *  0.534751 *  0.126430 *   4.00000    1.000000    
     19 Si    c    0.414208 *  0.526930 *  0.359484 *   4.00000    1.000000    
     20 Si    c    0.098730 *  0.581186 *  0.023285 *   4.00000    1.000000    
     21 Si    c    0.465706 *  0.887271 *  0.692020 *   4.00000    1.000000    
     22 Si    c    0.589244 *  0.465561 *  0.862503 *   4.00000    1.000000    
     23 Si    c    0.879303 *  0.415886 *  0.530611 *   4.00000    1.000000    
     24 Si    c    0.523363 *  0.110545 *  0.200949 *   4.00000    1.000000    
     25 Si    c    0.303791 *  0.396408 *  0.845410 *   4.00000    1.000000    
     26 Si    c    0.596336 *  0.906803 *  0.181246 *   4.00000    1.000000    
     27 Si    c    0.087662 *  0.696082 *  0.514280 *   4.00000    1.000000    
     28 Si    c    0.696640 *  0.597123 *  0.348918 *   4.00000    1.000000    
     29 Si    c    0.397069 *  0.097008 *  0.679937 *   4.00000    1.000000    
     30 Si    c    0.885997 *  0.291633 *  0.009835 *   4.00000    1.000000    
     31 Si    c    0.387639 *  0.298445 *  0.476279 *   4.00000    1.000000    
     32 Si    c    0.887579 *  0.602619 *  0.140053 *   4.00000    1.000000    
     33 Si    c    0.689953 *  0.082825 *  0.810924 *   4.00000    1.000000    
     34 Si    c    0.600132 *  0.706024 *  0.979882 *   4.00000    1.000000    
     35 Si    c    0.094942 *  0.398465 *  0.644348 *   4.00000    1.000000    
     36 Si    c    0.296986 *  0.892872 *  0.314034 *   4.00000    1.000000    
     37 Si    c    0.249081 *  0.341284 *  0.947093 *   4.00000    1.000000    
     38 Si    c    0.652642 *  0.905312 *  0.281661 *   4.00000    1.000000    
     39 Si    c    0.086191 *  0.749966 *  0.614910 *   4.00000    1.000000    
     40 Si    c    0.739496 *  0.655598 *  0.449490 *   4.00000    1.000000    
     41 Si    c    0.332435 *  0.082879 *  0.779900 *   4.00000    1.000000    
     42 Si    c    0.899400 *  0.251465 *  0.113006 *   4.00000    1.000000    
     43 Si    c    0.340376 *  0.250717 *  0.375253 *   4.00000    1.000000    
     44 Si    c    0.894551 *  0.661259 *  0.037530 *   4.00000    1.000000    
     45 Si    c    0.745615 *  0.086966 *  0.710060 *   4.00000    1.000000    
     46 Ge    c    0.640400 *  0.729452 *  0.880167 *   4.00000    1.000000    
     47 Si    c    0.080259 *  0.337889 *  0.543720 *   4.00000    1.000000    
     48 Si    c    0.241926 *  0.909256 *  0.214478 *   4.00000    1.000000    
     49 Si    c    0.967495 *  0.120143 *  0.961108 *   4.00000    1.000000    
     50 Si    c    0.869356 *  0.842234 *  0.295837 *   4.00000    1.000000    
     51 Si    c    0.148634 *  0.030056 *  0.630023 *   4.00000    1.000000    
     52 Si    c    0.017406 *  0.875371 *  0.465416 *   4.00000    1.000000    
     53 Si    c    0.116354 *  0.146315 *  0.796021 *   4.00000    1.000000    
     54 Si    c    0.846509 *  0.977248 *  0.130375 *   4.00000    1.000000    
     55 Ge    c    0.117345 *  0.966430 *  0.362415 *   4.00000    1.000000    
     56 Si    c    0.846239 *  0.885546 *  0.029631 *   4.00000    1.000000    
     57 Si    c    0.027088 *  0.151177 *  0.694914 *   4.00000    1.000000    
     58 Si    c    0.869731 *  0.013319 *  0.861563 *   4.00000    1.000000    
     59 Si    c    0.140809 *  0.120307 *  0.529480 *   4.00000    1.000000    
     60 Si    c    0.962254 *  0.849948 *  0.194449 *   4.00000    1.000000    
     61 O2    c    0.924841 *  0.006695 *  0.997129 *   0.87073    1.000000    
     62 O3    c    0.994541 *  0.930651 *  0.324737 *   1.33043    1.000000    
     63 O2    c    0.068628 *  0.070144 *  0.663085 *   0.87073    1.000000    
     64 O2    c    0.058683 *  0.995343 *  0.498662 *   0.87073    1.000000    
     65 O2    c    0.995169 *  0.069372 *  0.828650 *   0.87073    1.000000    
     66 O2    c    0.928312 *  0.938823 *  0.163504 *   0.87073    1.000000    
     67 O2    c    0.334915 *  0.568907 *  0.325511 *   0.87073    1.000000    
     68 O2    c    0.420613 *  0.764076 *  0.658834 *   0.87073    1.000000    
     69 O2    c    0.225599 *  0.656886 *  0.991231 *   0.87073    1.000000    
     70 O2    c    0.657286 *  0.403375 *  0.832655 *   0.87073    1.000000    
     71 O2    c    0.574055 *  0.240256 *  0.171411 *   0.87073    1.000000    
     72 O2    c    0.750636 *  0.338361 *  0.499170 *   0.87073    1.000000    
     73 O3    c    0.565229 *  0.339504 *  0.999424 *   1.33043    1.000000    
     74 O2    c    0.762143 *  0.422167 *  0.665795 *   0.87073    1.000000    
     75 O2    c    0.660163 *  0.232160 *  0.334004 *   0.87073    1.000000    
     76 O2    c    0.408990 *  0.655311 *  0.492957 *   0.87073    1.000000    
     77 O2    c    0.229877 *  0.586875 *  0.159028 *   0.87073    1.000000    
     78 O2    c    0.323762 *  0.751681 *  0.824343 *   0.87073    1.000000    
     79 O2    c    0.122624 *  0.215739 *  0.967139 *   0.87073    1.000000    
     80 O2    c    0.775696 *  0.901509 *  0.302084 *   0.87073    1.000000    
     81 O2    c    0.086531 *  0.875969 *  0.634704 *   0.87073    1.000000    
     82 O2    c    0.862533 *  0.781894 *  0.471349 *   0.87073    1.000000    
     83 O2    c    0.205620 *  0.081392 *  0.800218 *   0.87073    1.000000    
     84 O2    c    0.905886 *  0.131227 *  0.134737 *   0.87073    1.000000    
     85 O3    c    0.218228 *  0.128460 *  0.353120 *   1.33043    1.000000    
     86 O2    c    0.912976 *  0.799125 *  0.022238 *   0.87073    1.000000    
     87 O2    c    0.872356 *  0.088714 *  0.689226 *   0.87073    1.000000    
     88 O3    c    0.786172 *  0.864305 *  0.857600 *   1.33043    1.000000    
     89 O2    c    0.077091 *  0.210216 *  0.523951 *   0.87073    1.000000    
     90 O2    c    0.117800 *  0.912704 *  0.193884 *   0.87073    1.000000    
     91 O2    c    0.909579 *  0.847646 *  0.243954 *   0.87073    1.000000    
     92 O2    c    0.133597 *  0.071885 *  0.580142 *   0.87073    1.000000    
     93 O2    c    0.930937 *  0.063912 *  0.911347 *   0.87073    1.000000    
     94 O2    c    0.064896 *  0.138531 *  0.745558 *   0.87073    1.000000    
     95 O2    c    0.864548 *  0.939008 *  0.080450 *   0.87073    1.000000    
     96 O3    c    0.052304 *  0.931512 *  0.415543 *   1.33043    1.000000    
     97 O2    c    0.897975 *  0.201712 *  0.971978 *   0.87073    1.000000    
     98 O2    c    0.796680 *  0.692825 *  0.310725 *   0.87073    1.000000    
     99 O2    c    0.301600 *  0.100774 *  0.641314 *   0.87073    1.000000    
    100 O2    c    0.088286 *  0.793911 *  0.476044 *   0.87073    1.000000    
    101 O2    c    0.205248 *  0.298041 *  0.807794 *   0.87073    1.000000    
    102 O2    c    0.693558 *  0.907174 *  0.142560 *   0.87073    1.000000    
    103 O3    c    0.201472 *  0.886948 *  0.353477 *   1.33043    1.000000    
    104 O2    c    0.691328 *  0.799162 *  0.021258 *   0.87073    1.000000    
    105 O2    c    0.098528 *  0.302667 *  0.682282 *   0.87073    1.000000    
    106 O2    c    0.782798 *  0.079226 *  0.849875 *   0.87073    1.000000    
    107 O2    c    0.291400 *  0.201926 *  0.514902 *   0.87073    1.000000    
    108 O2    c    0.892982 *  0.702281 *  0.177904 *   0.87073    1.000000    
    109 O2    c    0.313251 *  0.639437 *  0.243153 *   0.87073    1.000000    
    110 O2    c    0.350754 *  0.676996 *  0.576655 *   0.87073    1.000000    
    111 O2    c    0.319650 *  0.675652 *  0.909016 *   0.87073    1.000000    
    112 O2    c    0.674652 *  0.349810 *  0.748027 *   0.87073    1.000000    
    113 O3    c    0.610788 *  0.301979 *  0.085266 *   1.33043    1.000000    
    114 O2    c    0.676310 *  0.322731 *  0.415259 *   0.87073    1.000000    
    115 O2    c    0.373077 *  0.337335 *  0.965090 *   0.87073    1.000000    
    116 O2    c    0.665363 *  0.036346 *  0.302125 *   0.87073    1.000000    
    117 O2    c    0.954362 *  0.627064 *  0.634119 *   0.87073    1.000000    
    118 O2    c    0.615215 *  0.665464 *  0.465383 *   0.87073    1.000000    
    119 O2    c    0.317998 *  0.947871 *  0.796220 *   0.87073    1.000000    
    120 O2    c    0.032393 *  0.379293 *  0.128697 *   0.87073    1.000000    
    121 O2    c    0.329569 *  0.371458 *  0.356708 *   0.87073    1.000000    
    122 O2    c    0.028241 *  0.665405 *  0.021683 *   0.87073    1.000000    
    123 O2    c    0.622964 *  0.957228 *  0.689739 *   0.87073    1.000000    
    124 O3    c    0.678377 *  0.617024 *  0.856408 *   1.33043    1.000000    
    125 O2    c    0.946544 *  0.327827 *  0.526404 *   0.87073    1.000000    
    126 O2    c    0.366347 *  0.041827 *  0.196929 *   0.87073    1.000000    
    127 O3    c    0.750815 *  0.282075 *  0.001864 *   1.33043    1.000000    
    128 O2    c    0.698680 *  0.464340 *  0.341573 *   0.87073    1.000000    
    129 O2    c    0.533371 *  0.230607 *  0.673346 *   0.87073    1.000000    
    130 O2    c    0.220438 *  0.693950 *  0.505201 *   0.87073    1.000000    
    131 O2    c    0.306027 *  0.530454 *  0.837987 *   0.87073    1.000000    
    132 O2    c    0.458664 *  0.775675 *  0.172177 *   0.87073    1.000000    
    133 O2    c    0.293798 *  0.757204 *  0.317649 *   0.87073    1.000000    
    134 O2    c    0.461389 *  0.702673 *  0.983078 *   0.87073    1.000000    
    135 O2    c    0.229853 *  0.534071 *  0.650117 *   0.87073    1.000000    
    136 O2    c    0.691005 *  0.216594 *  0.818520 *   0.87073    1.000000    
    137 O2    c    0.522676 *  0.301258 *  0.485343 *   0.87073    1.000000    
    138 O2    c    0.756518 *  0.466946 *  0.149446 *   0.87073    1.000000    
    139 O3    c    0.769258 *  0.545239 *  0.016753 *   1.33043    1.000000    
    140 O2    c    0.466837 *  0.247709 *  0.357569 *   0.87073    1.000000    
    141 O2    c    0.751063 *  0.216350 *  0.692234 *   0.87073    1.000000    
    142 O2    c    0.206323 *  0.462164 *  0.522793 *   0.87073    1.000000    
    143 O3    c    0.527425 *  0.758849 *  0.851615 *   1.33043    1.000000    
    144 O2    c    0.236552 *  0.782413 *  0.193295 *   0.87073    1.000000    
    145 O2    c    0.525929 *  0.776424 *  0.299081 *   0.87073    1.000000    
    146 O2    c    0.253747 *  0.471159 *  0.963827 *   0.87073    1.000000    
    147 O2    c    0.213466 *  0.750209 *  0.633098 *   0.87073    1.000000    
    148 O2    c    0.458831 *  0.205970 *  0.801294 *   0.87073    1.000000    
    149 O2    c    0.740637 *  0.532327 *  0.470073 *   0.87073    1.000000    
    150 O2    c    0.776225 *  0.254993 *  0.133094 *   0.87073    1.000000    
    151 O2    c    0.236799 *  0.330315 *  0.892922 *   0.87073    1.000000    
    152 O2    c    0.670391 *  0.908379 *  0.227282 *   0.87073    1.000000    
    153 O2    c    0.085708 *  0.767202 *  0.560589 *   0.87073    1.000000    
    154 O2    c    0.766410 *  0.673130 *  0.395338 *   0.87073    1.000000    
    155 O2    c    0.318624 *  0.090407 *  0.725645 *   0.87073    1.000000    
    156 O2    c    0.893797 *  0.232483 *  0.058884 *   0.87073    1.000000    
    157 O2    c    0.316562 *  0.226570 *  0.429475 *   0.87073    1.000000    
    158 O2    c    0.886653 *  0.667348 *  0.092784 *   0.87073    1.000000    
    159 O2    c    0.760856 *  0.081206 *  0.764200 *   0.87073    1.000000    
    160 O3    c    0.685258 *  0.783365 *  0.937133 *   1.33043    1.000000    
    161 O2    c    0.086156 *  0.322876 *  0.597857 *   0.87073    1.000000    
    162 O2    c    0.223940 *  0.905019 *  0.269021 *   0.87073    1.000000    
    163 O2    c    0.577073 *  0.563014 *  0.987329 *   0.87073    1.000000    
    164 O2    c    0.437991 *  0.017281 *  0.324332 *   0.87073    1.000000    
    165 O2    c    0.971564 *  0.415235 *  0.654049 *   0.87073    1.000000    
    166 O2    c    0.399097 *  0.436616 *  0.483440 *   0.87073    1.000000    
    167 O2    c    0.545464 *  0.961496 *  0.817284 *   0.87073    1.000000    
    168 O2    c    0.012425 *  0.585725 *  0.145580 *   0.87073    1.000000    
    169 O2    c    0.558609 *  0.585773 *  0.338205 *   0.87073    1.000000    
    170 O2    c    0.009031 *  0.437626 *  0.003437 *   0.87073    1.000000    
    171 O2    c    0.408639 *  0.971482 *  0.669503 *   0.87073    1.000000    
    172 O2    c    0.445061 *  0.412566 *  0.840207 *   0.87073    1.000000    
    173 O2    c    0.960754 *  0.556001 *  0.506412 *   0.87073    1.000000    
    174 O2    c    0.583586 *  0.033077 *  0.175001 *   0.87073    1.000000    
    175 O2    c    0.577221 *  0.160986 *  0.251665 *   0.87073    1.000000    
    176 O2    c    0.828877 *  0.416355 *  0.581694 *   0.87073    1.000000    
    177 O2    c    0.586150 *  0.424407 *  0.915461 *   0.87073    1.000000    
    178 O2    c    0.408375 *  0.830087 *  0.742026 *   0.87073    1.000000    
    179 O2    c    0.148313 *  0.580711 *  0.074693 *   0.87073    1.000000    
    180 O2    c    0.409847 *  0.580032 *  0.409826 *   0.87073    1.000000    
    181 F     c    0.441945 *  0.899967 *  0.246831 *   0.56000    1.000000    
    182 F     c    0.091997 *  0.547653 *  0.578197 *   0.56000    1.000000    
    183 F     c    0.488280 *  0.584703 *  0.906551 *   0.56000    1.000000    
    184 F     c    0.541291 *  0.092335 *  0.743719 *   0.56000    1.000000    
    185 F     c    0.850086 *  0.436120 *  0.068586 *   0.56000    1.000000    
    186 F     c    0.543863 *  0.449666 *  0.411346 *   0.56000    1.000000    
    187 O2    s    0.920711 *  0.005728 *  0.996773 *  -2.87073    1.000000    
    188 O3    s    0.991387 *  0.924000 *  0.324827 *  -3.33043    1.000000    
    189 O2    s    0.072946 *  0.074680 *  0.662926 *  -2.87073    1.000000    
    190 O2    s    0.063344 *  0.996067 *  0.498439 *  -2.87073    1.000000    
    191 O2    s    0.996012 *  0.072406 *  0.828331 *  -2.87073    1.000000    
    192 O2    s    0.923083 *  0.933332 *  0.163258 *  -2.87073    1.000000    
    193 O2    s    0.346569 *  0.577478 *  0.325681 *  -2.87073    1.000000    
    194 O2    s    0.412197 *  0.767606 *  0.658952 *  -2.87073    1.000000    
    195 O2    s    0.221945 *  0.645780 *  0.991363 *  -2.87073    1.000000    
    196 O2    s    0.645790 *  0.397512 *  0.832094 *  -2.87073    1.000000    
    197 O2    s    0.579993 *  0.234618 *  0.170409 *  -2.87073    1.000000    
    198 O2    s    0.755316 *  0.350319 *  0.498845 *  -2.87073    1.000000    
    199 O3    s    0.571512 *  0.350847 *  0.998444 *  -3.33043    1.000000    
    200 O2    s    0.766192 *  0.414461 *  0.665510 *  -2.87073    1.000000    
    201 O2    s    0.648178 *  0.228313 *  0.333762 *  -2.87073    1.000000    
    202 O2    s    0.401784 *  0.643515 *  0.493147 *  -2.87073    1.000000    
    203 O2    s    0.225081 *  0.593148 *  0.159146 *  -2.87073    1.000000    
    204 O2    s    0.336823 *  0.757015 *  0.824532 *  -2.87073    1.000000    
    205 O2    s    0.119941 *  0.219163 *  0.964399 *  -2.87073    1.000000    
    206 O2    s    0.772413 *  0.895587 *  0.299243 *  -2.87073    1.000000    
    207 O2    s    0.093029 *  0.879134 *  0.632183 *  -2.87073    1.000000    
    208 O2    s    0.866057 *  0.778564 *  0.468460 *  -2.87073    1.000000    
    209 O2    s    0.209380 *  0.088445 *  0.797677 *  -2.87073    1.000000    
    210 O2    s    0.899009 *  0.127616 *  0.132055 *  -2.87073    1.000000    
    211 O3    s    0.222231 *  0.127379 *  0.356123 *  -3.33043    1.000000    
    212 O2    s    0.904024 *  0.794136 *  0.024569 *  -2.87073    1.000000    
    213 O2    s    0.875837 *  0.095224 *  0.691955 *  -2.87073    1.000000    
    214 O3    s    0.786207 *  0.872536 *  0.859499 *  -3.33043    1.000000    
    215 O2    s    0.084124 *  0.213803 *  0.526532 *  -2.87073    1.000000    
    216 O2    s    0.113992 *  0.905617 *  0.196060 *  -2.87073    1.000000    
    217 O2    s    0.911209 *  0.847316 *  0.244023 *  -2.87073    1.000000    
    218 O2    s    0.136100 *  0.072683 *  0.579978 *  -2.87073    1.000000    
    219 O2    s    0.928802 *  0.065203 *  0.911951 *  -2.87073    1.000000    
    220 O2    s    0.066386 *  0.140862 *  0.745452 *  -2.87073    1.000000    
    221 O2    s    0.860433 *  0.937496 *  0.080569 *  -2.87073    1.000000    
    222 O3    s    0.054326 *  0.928607 *  0.416162 *  -3.33043    1.000000    
    223 O2    s    0.904287 *  0.202511 *  0.974861 *  -2.87073    1.000000    
    224 O2    s    0.794144 *  0.698841 *  0.313078 *  -2.87073    1.000000    
    225 O2    s    0.294885 *  0.092841 *  0.643996 *  -2.87073    1.000000    
    226 O2    s    0.080850 *  0.792574 *  0.478760 *  -2.87073    1.000000    
    227 O2    s    0.206430 *  0.292608 *  0.810553 *  -2.87073    1.000000    
    228 O2    s    0.699681 *  0.914480 *  0.145225 *  -2.87073    1.000000    
    229 O3    s    0.203863 *  0.893926 *  0.350395 *  -3.33043    1.000000    
    230 O2    s    0.698571 *  0.799102 *  0.018161 *  -2.87073    1.000000    
    231 O2    s    0.090700 *  0.296638 *  0.679714 *  -2.87073    1.000000    
    232 O2    s    0.781658 *  0.073060 *  0.846928 *  -2.87073    1.000000    
    233 O2    s    0.285289 *  0.203257 *  0.512426 *  -2.87073    1.000000    
    234 O2    s    0.899881 *  0.707646 *  0.175666 *  -2.87073    1.000000    
    235 O2    s    0.318973 *  0.651262 *  0.243310 *  -2.87073    1.000000    
    236 O2    s    0.338699 *  0.670922 *  0.576709 *  -2.87073    1.000000    
    237 O2    s    0.324770 *  0.670605 *  0.909367 *  -2.87073    1.000000    
    238 O2    s    0.668867 *  0.337893 *  0.747813 *  -2.87073    1.000000    
    239 O3    s    0.623842 *  0.308273 *  0.086707 *  -3.33043    1.000000    
    240 O2    s    0.670098 *  0.328159 *  0.415088 *  -2.87073    1.000000    
    241 O2    s    0.374852 *  0.346126 *  0.963182 *  -2.87073    1.000000    
    242 O2    s    0.655197 *  0.029958 *  0.299941 *  -2.87073    1.000000    
    243 O2    s    0.961044 *  0.623865 *  0.631898 *  -2.87073    1.000000    
    244 O2    s    0.612062 *  0.655353 *  0.463250 *  -2.87073    1.000000    
    245 O2    s    0.328549 *  0.955002 *  0.794159 *  -2.87073    1.000000    
    246 O2    s    0.026146 *  0.382323 *  0.126824 *  -2.87073    1.000000    
    247 O2    s    0.339708 *  0.375251 *  0.358975 *  -2.87073    1.000000    
    248 O2    s    0.022612 *  0.656025 *  0.023418 *  -2.87073    1.000000    
    249 O2    s    0.619583 *  0.963652 *  0.692122 *  -2.87073    1.000000    
    250 O3    s    0.666453 *  0.609452 *  0.858751 *  -3.33043    1.000000    
    251 O2    s    0.953631 *  0.337923 *  0.528654 *  -2.87073    1.000000    
    252 O2    s    0.369419 *  0.034888 *  0.199211 *  -2.87073    1.000000    
    253 O3    s    0.761766 *  0.289308 *  0.004906 *  -3.33043    1.000000    
    254 O2    s    0.690711 *  0.463454 *  0.344705 *  -2.87073    1.000000    
    255 O2    s    0.533509 *  0.223206 *  0.676525 *  -2.87073    1.000000    
    256 O2    s    0.213439 *  0.686441 *  0.508419 *  -2.87073    1.000000    
    257 O2    s    0.312668 *  0.531097 *  0.840779 *  -2.87073    1.000000    
    258 O2    s    0.458094 *  0.781957 *  0.175447 *  -2.87073    1.000000    
    259 O2    s    0.302036 *  0.764755 *  0.314756 *  -2.87073    1.000000    
    260 O2    s    0.460199 *  0.695020 *  0.980358 *  -2.87073    1.000000    
    261 O2    s    0.222328 *  0.534365 *  0.647135 *  -2.87073    1.000000    
    262 O2    s    0.683083 *  0.209745 *  0.815486 *  -2.87073    1.000000    
    263 O2    s    0.523684 *  0.308856 *  0.482254 *  -2.87073    1.000000    
    264 O2    s    0.763143 *  0.466726 *  0.146750 *  -2.87073    1.000000    
    265 O3    s    0.779053 *  0.548000 *  0.019985 *  -3.33043    1.000000    
    266 O2    s    0.469800 *  0.255925 *  0.360157 *  -2.87073    1.000000    
    267 O2    s    0.742530 *  0.210681 *  0.694660 *  -2.87073    1.000000    
    268 O2    s    0.201117 *  0.464952 *  0.525467 *  -2.87073    1.000000    
    269 O3    s    0.519931 *  0.748214 *  0.854280 *  -3.33043    1.000000    
    270 O2    s    0.245302 *  0.787697 *  0.195652 *  -2.87073    1.000000    
    271 O2    s    0.523135 *  0.781709 *  0.296645 *  -2.87073    1.000000    
    272 O2    s    0.260131 *  0.473664 *  0.961669 *  -2.87073    1.000000    
    273 O2    s    0.207938 *  0.742426 *  0.630541 *  -2.87073    1.000000    
    274 O2    s    0.461512 *  0.200870 *  0.798612 *  -2.87073    1.000000    
    275 O2    s    0.732858 *  0.529347 *  0.467343 *  -2.87073    1.000000    
    276 O2    s    0.780387 *  0.260815 *  0.130813 *  -2.87073    1.000000    
    277 O2    s    0.245264 *  0.338551 *  0.893772 *  -2.87073    1.000000    
    278 O2    s    0.660672 *  0.907908 *  0.228158 *  -2.87073    1.000000    
    279 O2    s    0.085952 *  0.757898 *  0.561446 *  -2.87073    1.000000    
    280 O2    s    0.756453 *  0.663460 *  0.396134 *  -2.87073    1.000000    
    281 O2    s    0.328248 *  0.090295 *  0.726609 *  -2.87073    1.000000    
    282 O2    s    0.893601 *  0.240344 *  0.059878 *  -2.87073    1.000000    
    283 O2    s    0.326326 *  0.236406 *  0.428779 *  -2.87073    1.000000    
    284 O2    s    0.887465 *  0.659505 *  0.092548 *  -2.87073    1.000000    
    285 O2    s    0.751889 *  0.081970 *  0.763256 *  -2.87073    1.000000    
    286 O3    s    0.673496 *  0.771781 *  0.937516 *  -3.33043    1.000000    
    287 O2    s    0.086441 *  0.332403 *  0.596952 *  -2.87073    1.000000    
    288 O2    s    0.232989 *  0.904321 *  0.267815 *  -2.87073    1.000000    
    289 O2    s    0.574680 *  0.563787 *  0.984378 *  -2.87073    1.000000    
    290 O2    s    0.437922 *  0.013317 *  0.320866 *  -2.87073    1.000000    
    291 O2    s    0.976083 *  0.419433 *  0.650694 *  -2.87073    1.000000    
    292 O2    s    0.404233 *  0.436607 *  0.480327 *  -2.87073    1.000000    
    293 O2    s    0.546216 *  0.966175 *  0.814014 *  -2.87073    1.000000    
    294 O2    s    0.008921 *  0.581918 *  0.142909 *  -2.87073    1.000000    
    295 O2    s    0.558260 *  0.580668 *  0.341589 *  -2.87073    1.000000    
    296 O2    s    0.006163 *  0.438389 *  0.006228 *  -2.87073    1.000000    
    297 O2    s    0.413514 *  0.976321 *  0.672970 *  -2.87073    1.000000    
    298 O2    s    0.443717 *  0.416172 *  0.842977 *  -2.87073    1.000000    
    299 O2    s    0.966121 *  0.556542 *  0.509755 *  -2.87073    1.000000    
    300 O2    s    0.578627 *  0.027321 *  0.178318 *  -2.87073    1.000000    
    301 O2    s    0.571763 *  0.149925 *  0.251552 *  -2.87073    1.000000    
    302 O2    s    0.839961 *  0.421921 *  0.581551 *  -2.87073    1.000000    
    303 O2    s    0.580971 *  0.428267 *  0.915318 *  -2.87073    1.000000    
    304 O2    s    0.413962 *  0.841124 *  0.742132 *  -2.87073    1.000000    
    305 O2    s    0.138715 *  0.575934 *  0.074926 *  -2.87073    1.000000    
    306 O2    s    0.415257 *  0.574429 *  0.409908 *  -2.87073    1.000000    
    307 F     s    0.441460 *  0.899587 *  0.246737 *  -1.56000    1.000000    
    308 F     s    0.092569 *  0.547911 *  0.578075 *  -1.56000    1.000000    
    309 F     s    0.496904 *  0.593393 *  0.905083 *  -1.56000    1.000000    
    310 F     s    0.541320 *  0.092903 *  0.743568 *  -1.56000    1.000000    
    311 F     s    0.839227 *  0.431800 *  0.066202 *  -1.56000    1.000000    
    312 F     s    0.544161 *  0.449529 *  0.411203 *  -1.56000    1.000000    
--------------------------------------------------------------------------------



********************************************************************************
*  General input information                                                   *
********************************************************************************

  Species output for all configurations : 

--------------------------------------------------------------------------------
  Species    Type    Atomic    Atomic    Charge       Radii (Angs)     Library
                     Number     Mass       (e)     Cova   Ionic  VDW   Symbol
--------------------------------------------------------------------------------
    Si       Core       14      28.09   4.000000   1.200  0.000  2.100          
    O1       Core        8      16.00   1.733957   0.730  0.000  1.360          
    O1       Shell       8       0.00  -3.733957   0.730  0.000  1.360          
    O2       Core        8      16.00   0.870733   0.730  0.000  1.360          
    O2       Shell       8       0.00  -2.870733   0.730  0.000  1.360          
    O3       Core        8      16.00   1.330431   0.730  0.000  1.360          
    O3       Shell       8       0.00  -3.330431   0.730  0.000  1.360          
    F        Core        9      19.00   0.560000   0.710  0.000  1.300          
    F        Shell       9       0.00  -1.560000   0.710  0.000  1.300          
    Ge       Core       32      72.61   4.000000   1.170  0.000  1.750          
--------------------------------------------------------------------------------


  Lattice summation method               =    Ewald          (3-D)
                                         =    Parry          (2-D)
                                         =    Saunders et al (1-D)
  Accuracy factor for lattice sums       =   12.000


  Time limit = Infinity

  Maximum range for interatomic potentials =        16.000000 Angstroms

  Taper potentials to zero over   1.0000 Angstroms using polynomial

  General interatomic potentials :

--------------------------------------------------------------------------------
Atom  Types   Potential         A         B         C         D     Cutoffs(Ang)
  1     2                                                            Min    Max 
--------------------------------------------------------------------------------
Si   c O1   s Buckingham    0.132E+04 0.318      10.1      0.00     0.000 16.000
Si   c O2   s Buckingham    0.132E+04 0.318      10.1      0.00     0.000 16.000
Si   c O3   s Buckingham    0.132E+04 0.318      10.1      0.00     0.000 16.000
Ge   c O1   s Buckingham    0.150E+04 0.326      16.8      0.00     0.000 16.000
Ge   c O2   s Buckingham    0.150E+04 0.326      16.8      0.00     0.000 16.000
Ge   c O3   s Buckingham    0.150E+04 0.326      16.8      0.00     0.000 16.000
O1   s O1   s Buckingham    0.228E+05 0.149      10.9      0.00     0.000 16.000
O1   s O2   s Buckingham    0.228E+05 0.149      10.9      0.00     0.000 16.000
O1   s O3   s Buckingham    0.228E+05 0.149      10.9      0.00     0.000 16.000
O2   s O2   s Buckingham    0.228E+05 0.149      10.9      0.00     0.000 16.000
O2   s O3   s Buckingham    0.228E+05 0.149      10.9      0.00     0.000 16.000
O3   s O3   s Buckingham    0.228E+05 0.149      10.9      0.00     0.000 16.000
Si   c F    s Buckingham     977.     0.282      0.00      0.00     0.000 16.000
Ge   c F    s Buckingham     681.     0.320      0.00      0.00     0.000 16.000
F    s F    s Buckingham     540.     0.262      0.00      0.00     0.000 16.000
O1   s F    s Buckingham    0.168E+04 0.268      0.00      0.00     0.000 16.000
O2   s F    s Buckingham    0.168E+04 0.268      0.00      0.00     0.000 16.000
O3   s F    s Buckingham    0.168E+04 0.268      0.00      0.00     0.000 16.000
O2   c O2   s Spring (c-s)   76.0      0.00      0.00      0.00     0.000  0.800
O3   c O3   s Spring (c-s)   128.      0.00      0.00      0.00     0.000  0.800
O1   c O1   s Spring (c-s)   180.      0.00      0.00      0.00     0.000  0.800
F    c F    s Spring (c-s)   33.5      0.00      0.00      0.00     0.000  0.800
--------------------------------------------------------------------------------

  General Three-body potentials :

  Harmonic form:

--------------------------------------------------------------------------------
Atom    Atom    Atom           Force Constants            Theta     Cutoffs  
  1       2       3     (eVrad**-2/eVrad**-3/eVrad**-4)   (deg)  1-2  1-3  2-3
--------------------------------------------------------------------------------
Si    c O1    s O1    s  1.261        0.0000    0.0000   109.470 0.00 0.00 0.00
                                                                 1.90 1.90 3.50
Si    c O1    s O2    s  1.261        0.0000    0.0000   109.470 0.00 0.00 0.00
                                                                 1.90 1.90 3.50
Si    c O2    s O2    s  1.261        0.0000    0.0000   109.470 0.00 0.00 0.00
                                                                 1.90 1.90 3.50
--------------------------------------------------------------------------------

********************************************************************************
*  Output for configuration   1                                                *
********************************************************************************


  Components of energy : 

--------------------------------------------------------------------------------
  Interatomic potentials     =        2063.16396831 eV
  Three-body potentials      =           0.47336894 eV
  Monopole - monopole (real) =       -6612.60380790 eV
  Monopole - monopole (recip)=       -3171.14146495 eV
  Monopole - monopole (total)=       -9783.74527285 eV
  Neutralising energy        =          -6.45961349 eV
--------------------------------------------------------------------------------
  Total lattice energy       =       -7726.56754909 eV
--------------------------------------------------------------------------------
  Total lattice energy       =         -745495.6571 kJ/(mole unit cells)
--------------------------------------------------------------------------------


  Number of variables =      939

  Maximum number of calculations  =          5000
  Maximum Hessian update interval =            10
  Maximum step size               =   0.100000000
  Maximum parameter tolerance     =   0.000010000
  Maximum function  tolerance     =   0.000010000
  Maximum gradient  tolerance     =   0.001000000
  Maximum gradient  component     =   0.010000000

  Symmetry not applied to optimisation

  Cell parameters to be optimised using strains

  Newton-Raphson optimiser to be used

  BFGS hessian update to be used

  Dumpfile to be written after every cycle

  Start of bulk optimisation :

  Cycle:      0 Energy:     -7726.567549  Gnorm:      0.000721  CPU:    2.040
  ** Hessian calculated **
  Cycle:      1 Energy:     -7726.581960  Gnorm:      0.000642  CPU:    6.697
  Cycle:      2 Energy:     -7726.599326  Gnorm:      0.000596  CPU:   10.996
  Cycle:      3 Energy:     -7726.618804  Gnorm:      0.000784  CPU:   15.277
  Cycle:      4 Energy:     -7726.632143  Gnorm:      0.001060  CPU:   19.559
  Cycle:      5 Energy:     -7726.635418  Gnorm:      0.000785  CPU:   23.842
  Cycle:      6 Energy:     -7726.636237  Gnorm:      0.000464  CPU:   28.121
  Cycle:      7 Energy:     -7726.636444  Gnorm:      0.000254  CPU:   32.403
  Cycle:      8 Energy:     -7726.636488  Gnorm:      0.000157  CPU:   35.988
  Cycle:      9 Energy:     -7726.636501  Gnorm:      0.000111  CPU:   38.876
  Cycle:     10 Energy:     -7726.636507  Gnorm:      0.000078  CPU:   41.765
  ** Hessian calculated **
  Cycle:     11 Energy:     -7726.636507  Gnorm:      0.000041  CPU:   46.345
  Cycle:     12 Energy:     -7726.636507  Gnorm:      0.000030  CPU:   49.233


  **** Optimisation achieved ****


  Final energy =   -7726.63650720 eV
  Final Gnorm  =       0.00002221

  Components of energy : 

--------------------------------------------------------------------------------
  Interatomic potentials     =        2063.24992489 eV
  Three-body potentials      =           0.46862755 eV
  Monopole - monopole (real) =       -6614.47207775 eV
  Monopole - monopole (recip)=       -3169.42685995 eV
  Monopole - monopole (total)=       -9783.89893770 eV
  Neutralising energy        =          -6.45612195 eV
--------------------------------------------------------------------------------
  Total lattice energy       =       -7726.63650720 eV
--------------------------------------------------------------------------------
  Total lattice energy       =         -745502.3105 kJ/(mole unit cells)
--------------------------------------------------------------------------------

  Final fractional coordinates of atoms :

--------------------------------------------------------------------------------
   No.  Atomic        x           y          z          Radius
        Label       (Frac)      (Frac)     (Frac)       (Angs) 
--------------------------------------------------------------------------------
     1  Ge    c     0.699600    0.375700    0.033890    0.000000
     2  Si    c     0.600195    0.305380    0.364574    0.000000
     3  Si    c     0.653076    0.275546    0.697106    0.000000
     4  Si    c     0.264572    0.599048    0.527693    0.000000
     5  Si    c     0.358667    0.661774    0.858142    0.000000
     6  Si    c     0.299107    0.692734    0.195459    0.000000
     7  Si    c     0.351442    0.679275    0.295130    0.000000
     8  Si    c     0.308539    0.611510    0.961133    0.000000
     9  Si    c     0.271604    0.657125    0.627945    0.000000
    10  Si    c     0.596327    0.267393    0.797493    0.000000
    11  Si    c     0.645692    0.358347    0.465521    0.000000
    12  Si    c     0.668691    0.306372    0.132158    0.000000
    13  Si    c     0.521469    0.407377    0.966253    0.000000
    14  Si    c     0.560868    0.092957    0.301529    0.000000
    15  Si    c     0.862085    0.451246    0.632046    0.000000
    16  Si    c     0.435042    0.559673    0.462140    0.000000
    17  Si    c     0.385212    0.862071    0.793825    0.000000
    18  Si    c     0.091669    0.522580    0.127794    0.000000
    19  Si    c     0.391927    0.510316    0.360271    0.000000
    20  Si    c     0.092215    0.573233    0.024756    0.000000
    21  Si    c     0.443515    0.867360    0.692720    0.000000
    22  Si    c     0.574369    0.450802    0.861864    0.000000
    23  Si    c     0.855863    0.396491    0.530581    0.000000
    24  Si    c     0.507507    0.098977    0.200448    0.000000
    25  Si    c     0.288952    0.381368    0.845631    0.000000
    26  Si    c     0.580194    0.894579    0.181725    0.000000
    27  Si    c     0.064074    0.676502    0.514630    0.000000
    28  Si    c     0.674116    0.580893    0.349159    0.000000
    29  Si    c     0.374493    0.076611    0.680267    0.000000
    30  Si    c     0.879730    0.284700    0.010123    0.000000
    31  Si    c     0.364163    0.279443    0.476683    0.000000
    32  Si    c     0.876040    0.591822    0.141153    0.000000
    33  Si    c     0.669750    0.064458    0.811524    0.000000
    34  Si    c     0.590582    0.692213    0.979995    0.000000
    35  Si    c     0.071361    0.378920    0.644516    0.000000
    36  Si    c     0.278343    0.879700    0.314427    0.000000
    37  Si    c     0.238658    0.327328    0.947715    0.000000
    38  Si    c     0.633939    0.891663    0.282272    0.000000
    39  Si    c     0.062446    0.730255    0.615214    0.000000
    40  Si    c     0.716176    0.637183    0.449931    0.000000
    41  Si    c     0.312329    0.064887    0.780407    0.000000
    42  Si    c     0.886605    0.240361    0.113427    0.000000
    43  Si    c     0.318142    0.234353    0.375577    0.000000
    44  Si    c     0.892037    0.658257    0.038830    0.000000
    45  Si    c     0.723394    0.066540    0.710498    0.000000
    46  Ge    c     0.625656    0.713978    0.880047    0.000000
    47  Si    c     0.056676    0.318456    0.543933    0.000000
    48  Si    c     0.226211    0.897386    0.214603    0.000000
    49  Si    c     0.955897    0.109489    0.961225    0.000000
    50  Si    c     0.849008    0.826483    0.296410    0.000000
    51  Si    c     0.125788    0.010394    0.630595    0.000000
    52  Si    c     0.994212    0.856515    0.466034    0.000000
    53  Si    c     0.098825    0.131626    0.796538    0.000000
    54  Si    c     0.830836    0.965225    0.131130    0.000000
    55  Ge    c     0.096662    0.950287    0.363271    0.000000
    56  Si    c     0.835234    0.875710    0.030397    0.000000
    57  Si    c     0.005516    0.132415    0.695585    0.000000
    58  Si    c     0.852694    0.998984    0.862303    0.000000
    59  Si    c     0.117322    0.100904    0.530016    0.000000
    60  Si    c     0.946308    0.837348    0.195349    0.000000
    61  O2    c     0.910148    0.997007    0.997825    0.000000
    62  O3    c     0.972914    0.912380    0.325979    0.000000
    63  O2    c     0.047089    0.050905    0.664086    0.000000
    64  O2    c     0.034634    0.975351    0.499658    0.000000
    65  O2    c     0.978010    0.056965    0.829393    0.000000
    66  O2    c     0.911355    0.925412    0.164321    0.000000
    67  O2    c     0.314488    0.554931    0.326484    0.000000
    68  O2    c     0.396885    0.743911    0.659620    0.000000
    69  O2    c     0.219404    0.646252    0.992854    0.000000
    70  O2    c     0.639839    0.386568    0.831868    0.000000
    71  O2    c     0.559370    0.228340    0.170446    0.000000
    72  O2    c     0.727291    0.319414    0.499188    0.000000
    73  O3    c     0.562840    0.332597    0.999149    0.000000
    74  O2    c     0.738490    0.401330    0.665498    0.000000
    75  O2    c     0.639456    0.217834    0.333928    0.000000
    76  O2    c     0.385754    0.636083    0.493826    0.000000
    77  O2    c     0.215844    0.573951    0.160653    0.000000
    78  O2    c     0.305804    0.734769    0.825543    0.000000
    79  O2    c     0.111531    0.200927    0.967095    0.000000
    80  O2    c     0.756791    0.887326    0.302558    0.000000
    81  O2    c     0.062761    0.856166    0.634957    0.000000
    82  O2    c     0.839329    0.763233    0.471620    0.000000
    83  O2    c     0.186251    0.064732    0.800728    0.000000
    84  O2    c     0.890918    0.119149    0.135388    0.000000
    85  O3    c     0.195929    0.112206    0.353590    0.000000
    86  O2    c     0.909590    0.795892    0.023968    0.000000
    87  O2    c     0.850628    0.068388    0.690142    0.000000
    88  O3    c     0.771383    0.850131    0.858050    0.000000
    89  O2    c     0.053796    0.190941    0.524289    0.000000
    90  O2    c     0.101875    0.901208    0.194413    0.000000
    91  O2    c     0.892587    0.833907    0.244802    0.000000
    92  O2    c     0.110820    0.053583    0.580870    0.000000
    93  O2    c     0.914718    0.051352    0.911891    0.000000
    94  O2    c     0.046211    0.123476    0.746215    0.000000
    95  O2    c     0.848938    0.927851    0.081136    0.000000
    96  O3    c     0.031344    0.914340    0.416381    0.000000
    97  O2    c     0.891948    0.196072    0.971971    0.000000
    98  O2    c     0.773721    0.676604    0.310833    0.000000
    99  O2    c     0.278574    0.079746    0.641714    0.000000
   100  O2    c     0.064601    0.774537    0.476447    0.000000
   101  O2    c     0.189438    0.282999    0.808299    0.000000
   102  O2    c     0.678005    0.895496    0.143191    0.000000
   103  O3    c     0.182458    0.872789    0.353874    0.000000
   104  O2    c     0.681675    0.784345    0.021420    0.000000
   105  O2    c     0.075359    0.283268    0.682409    0.000000
   106  O2    c     0.763039    0.061942    0.850536    0.000000
   107  O2    c     0.267559    0.181951    0.515094    0.000000
   108  O2    c     0.878913    0.689808    0.179072    0.000000
   109  O2    c     0.296670    0.627260    0.244134    0.000000
   110  O2    c     0.326727    0.657605    0.577247    0.000000
   111  O2    c     0.307397    0.660730    0.910035    0.000000
   112  O2    c     0.652798    0.329581    0.747633    0.000000
   113  O3    c     0.604808    0.298278    0.084421    0.000000
   114  O2    c     0.652696    0.304936    0.415407    0.000000
   115  O2    c     0.362638    0.323116    0.965747    0.000000
   116  O2    c     0.646682    0.022906    0.302363    0.000000
   117  O2    c     0.930574    0.607179    0.634277    0.000000
   118  O2    c     0.591835    0.646387    0.466123    0.000000
   119  O2    c     0.297514    0.929809    0.796989    0.000000
   120  O2    c     0.019133    0.367217    0.129756    0.000000
   121  O2    c     0.306854    0.355012    0.357107    0.000000
   122  O2    c     0.024788    0.660615    0.023150    0.000000
   123  O2    c     0.600716    0.936897    0.690240    0.000000
   124  O3    c     0.663584    0.602147    0.855613    0.000000
   125  O2    c     0.923191    0.308514    0.526447    0.000000
   126  O2    c     0.350454    0.029766    0.196675    0.000000
   127  O3    c     0.747073    0.279254    0.001881    0.000000
   128  O2    c     0.675973    0.448207    0.341917    0.000000
   129  O2    c     0.510800    0.209595    0.673257    0.000000
   130  O2    c     0.196905    0.674583    0.505609    0.000000
   131  O2    c     0.290334    0.515067    0.838738    0.000000
   132  O2    c     0.442879    0.763643    0.172756    0.000000
   133  O2    c     0.275422    0.744269    0.318289    0.000000
   134  O2    c     0.451854    0.688608    0.983510    0.000000
   135  O2    c     0.205907    0.514405    0.650459    0.000000
   136  O2    c     0.670936    0.198326    0.818509    0.000000
   137  O2    c     0.499235    0.282341    0.485688    0.000000
   138  O2    c     0.744555    0.456397    0.149862    0.000000
   139  O3    c     0.767448    0.543328    0.017034    0.000000
   140  O2    c     0.444353    0.231386    0.357596    0.000000
   141  O2    c     0.728364    0.195378    0.692234    0.000000
   142  O2    c     0.182787    0.443003    0.523221    0.000000
   143  O3    c     0.512112    0.743042    0.851588    0.000000
   144  O2    c     0.220916    0.770599    0.193541    0.000000
   145  O2    c     0.507516    0.763275    0.300195    0.000000
   146  O2    c     0.243567    0.457041    0.964801    0.000000
   147  O2    c     0.189499    0.730341    0.633525    0.000000
   148  O2    c     0.438962    0.187752    0.801615    0.000000
   149  O2    c     0.716970    0.513504    0.470309    0.000000
   150  O2    c     0.763027    0.244179    0.132794    0.000000
   151  O2    c     0.225246    0.316024    0.893602    0.000000
   152  O2    c     0.652832    0.894989    0.227945    0.000000
   153  O2    c     0.061976    0.747520    0.560889    0.000000
   154  O2    c     0.742889    0.655529    0.395772    0.000000
   155  O2    c     0.297425    0.071447    0.726154    0.000000
   156  O2    c     0.884397    0.223615    0.059235    0.000000
   157  O2    c     0.293637    0.208599    0.429759    0.000000
   158  O2    c     0.879263    0.659676    0.093966    0.000000
   159  O2    c     0.739018    0.061292    0.764634    0.000000
   160  O3    c     0.673390    0.768843    0.936837    0.000000
   161  O2    c     0.062407    0.303420    0.598074    0.000000
   162  O2    c     0.207086    0.892494    0.269100    0.000000
   163  O2    c     0.567248    0.549303    0.987098    0.000000
   164  O2    c     0.419293    0.003834    0.324298    0.000000
   165  O2    c     0.947919    0.395402    0.654165    0.000000
   166  O2    c     0.375527    0.417392    0.484155    0.000000
   167  O2    c     0.525193    0.943943    0.818134    0.000000
   168  O2    c     0.999872    0.573722    0.147041    0.000000
   169  O2    c     0.535971    0.569179    0.338774    0.000000
   170  O2    c     0.002678    0.430824    0.004393    0.000000
   171  O2    c     0.385860    0.950965    0.670104    0.000000
   172  O2    c     0.430311    0.398585    0.839694    0.000000
   173  O2    c     0.937373    0.536759    0.506472    0.000000
   174  O2    c     0.567734    0.020905    0.175140    0.000000
   175  O2    c     0.559642    0.148052    0.251390    0.000000
   176  O2    c     0.805459    0.396838    0.581651    0.000000
   177  O2    c     0.572318    0.409817    0.914754    0.000000
   178  O2    c     0.387271    0.811081    0.742946    0.000000
   179  O2    c     0.138497    0.570466    0.076386    0.000000
   180  O2    c     0.386817    0.562027    0.410705    0.000000
   181  F     c     0.424950    0.886745    0.247029    0.000000
   182  F     c     0.067704    0.528001    0.578357    0.000000
   183  F     c     0.475618    0.570072    0.906705    0.000000
   184  F     c     0.518979    0.071866    0.744046    0.000000
   185  F     c     0.845867    0.431470    0.069378    0.000000
   186  F     c     0.519467    0.431203    0.411828    0.000000
   187  O2    s     0.906710    0.995814    0.997429    0.000000
   188  O3    s     0.969985    0.906155    0.325967    0.000000
   189  O2    s     0.051259    0.055429    0.663839    0.000000
   190  O2    s     0.039450    0.976282    0.499344    0.000000
   191  O2    s     0.978835    0.059557    0.829046    0.000000
   192  O2    s     0.906360    0.920170    0.164073    0.000000
   193  O2    s     0.326206    0.563319    0.326651    0.000000
   194  O2    s     0.388668    0.747535    0.659711    0.000000
   195  O2    s     0.215200    0.635022    0.992940    0.000000
   196  O2    s     0.628316    0.380760    0.831397    0.000000
   197  O2    s     0.565313    0.222926    0.169590    0.000000
   198  O2    s     0.731939    0.331347    0.498881    0.000000
   199  O3    s     0.567967    0.343854    0.998011    0.000000
   200  O2    s     0.742700    0.393710    0.665239    0.000000
   201  O2    s     0.627428    0.213824    0.333691    0.000000
   202  O2    s     0.378501    0.624303    0.493985    0.000000
   203  O2    s     0.210961    0.580441    0.160661    0.000000
   204  O2    s     0.318974    0.740198    0.825635    0.000000
   205  O2    s     0.108827    0.204811    0.964457    0.000000
   206  O2    s     0.753392    0.881301    0.299743    0.000000
   207  O2    s     0.069348    0.859354    0.632480    0.000000
   208  O2    s     0.842838    0.759911    0.468785    0.000000
   209  O2    s     0.190131    0.071850    0.798190    0.000000
   210  O2    s     0.884191    0.115627    0.132693    0.000000
   211  O3    s     0.200031    0.111082    0.356603    0.000000
   212  O2    s     0.900016    0.790045    0.026162    0.000000
   213  O2    s     0.854058    0.075036    0.692790    0.000000
   214  O3    s     0.771190    0.858284    0.859939    0.000000
   215  O2    s     0.060772    0.194501    0.526872    0.000000
   216  O2    s     0.098085    0.893983    0.196580    0.000000
   217  O2    s     0.893953    0.833485    0.244845    0.000000
   218  O2    s     0.113233    0.054099    0.580668    0.000000
   219  O2    s     0.913072    0.052698    0.912490    0.000000
   220  O2    s     0.047498    0.125419    0.746092    0.000000
   221  O2    s     0.845319    0.926362    0.081253    0.000000
   222  O3    s     0.033158    0.911350    0.416980    0.000000
   223  O2    s     0.897652    0.196229    0.974920    0.000000
   224  O2    s     0.771486    0.682635    0.313252    0.000000
   225  O2    s     0.271925    0.072019    0.644409    0.000000
   226  O2    s     0.057224    0.773237    0.479183    0.000000
   227  O2    s     0.190531    0.277604    0.811015    0.000000
   228  O2    s     0.684093    0.902727    0.145849    0.000000
   229  O3    s     0.184767    0.879717    0.350826    0.000000
   230  O2    s     0.688934    0.784967    0.018374    0.000000
   231  O2    s     0.067616    0.277265    0.679886    0.000000
   232  O2    s     0.762110    0.055976    0.847596    0.000000
   233  O2    s     0.261522    0.183437    0.512683    0.000000
   234  O2    s     0.885886    0.695327    0.176791    0.000000
   235  O2    s     0.302428    0.639160    0.244316    0.000000
   236  O2    s     0.314770    0.651562    0.577319    0.000000
   237  O2    s     0.312512    0.655714    0.910350    0.000000
   238  O2    s     0.647073    0.317699    0.747472    0.000000
   239  O3    s     0.617560    0.304054    0.086224    0.000000
   240  O2    s     0.646579    0.310434    0.415249    0.000000
   241  O2    s     0.364360    0.331854    0.963780    0.000000
   242  O2    s     0.636500    0.016472    0.300174    0.000000
   243  O2    s     0.937316    0.604035    0.632046    0.000000
   244  O2    s     0.588737    0.636381    0.463970    0.000000
   245  O2    s     0.308134    0.936981    0.794905    0.000000
   246  O2    s     0.012993    0.370362    0.127849    0.000000
   247  O2    s     0.317064    0.358795    0.359399    0.000000
   248  O2    s     0.018785    0.651215    0.024876    0.000000
   249  O2    s     0.597355    0.943308    0.692622    0.000000
   250  O3    s     0.651720    0.594520    0.857998    0.000000
   251  O2    s     0.930231    0.318568    0.528700    0.000000
   252  O2    s     0.353584    0.022984    0.198953    0.000000
   253  O3    s     0.758263    0.286257    0.004963    0.000000
   254  O2    s     0.668023    0.447326    0.345022    0.000000
   255  O2    s     0.510913    0.202249    0.676466    0.000000
   256  O2    s     0.189889    0.667062    0.508841    0.000000
   257  O2    s     0.297127    0.515691    0.841461    0.000000
   258  O2    s     0.442422    0.770044    0.176061    0.000000
   259  O2    s     0.283670    0.751765    0.315411    0.000000
   260  O2    s     0.450547    0.680945    0.980805    0.000000
   261  O2    s     0.198496    0.514794    0.647489    0.000000
   262  O2    s     0.662985    0.191442    0.815527    0.000000
   263  O2    s     0.500235    0.289949    0.482600    0.000000
   264  O2    s     0.751293    0.456386    0.147188    0.000000
   265  O3    s     0.776904    0.545357    0.020402    0.000000
   266  O2    s     0.447331    0.239586    0.360220    0.000000
   267  O2    s     0.719909    0.189779    0.694679    0.000000
   268  O2    s     0.177541    0.445714    0.525892    0.000000
   269  O3    s     0.504679    0.732504    0.854293    0.000000
   270  O2    s     0.229650    0.775957    0.195955    0.000000
   271  O2    s     0.504696    0.768480    0.297708    0.000000
   272  O2    s     0.249912    0.459538    0.962624    0.000000
   273  O2    s     0.184089    0.722628    0.630980    0.000000
   274  O2    s     0.441620    0.182690    0.798922    0.000000
   275  O2    s     0.709248    0.510607    0.467602    0.000000
   276  O2    s     0.767368    0.250027    0.130594    0.000000
   277  O2    s     0.233509    0.324245    0.894390    0.000000
   278  O2    s     0.643126    0.894614    0.228788    0.000000
   279  O2    s     0.062238    0.738233    0.561767    0.000000
   280  O2    s     0.733047    0.645907    0.396539    0.000000
   281  O2    s     0.307035    0.071292    0.727093    0.000000
   282  O2    s     0.884161    0.231404    0.060229    0.000000
   283  O2    s     0.303421    0.218492    0.429091    0.000000
   284  O2    s     0.880119    0.652012    0.093642    0.000000
   285  O2    s     0.730163    0.062162    0.763713    0.000000
   286  O3    s     0.661610    0.757230    0.937358    0.000000
   287  O2    s     0.062731    0.312954    0.597157    0.000000
   288  O2    s     0.216134    0.891789    0.267957    0.000000
   289  O2    s     0.564885    0.550271    0.984188    0.000000
   290  O2    s     0.419143    0.999810    0.320853    0.000000
   291  O2    s     0.952512    0.399640    0.650792    0.000000
   292  O2    s     0.380703    0.417433    0.481028    0.000000
   293  O2    s     0.526046    0.948586    0.814833    0.000000
   294  O2    s     0.996366    0.570038    0.144319    0.000000
   295  O2    s     0.535725    0.564116    0.342150    0.000000
   296  O2    s     0.999856    0.431539    0.007189    0.000000
   297  O2    s     0.390820    0.955874    0.673553    0.000000
   298  O2    s     0.428883    0.401982    0.842524    0.000000
   299  O2    s     0.942700    0.537230    0.509836    0.000000
   300  O2    s     0.562724    0.015255    0.178440    0.000000
   301  O2    s     0.554236    0.137090    0.251245    0.000000
   302  O2    s     0.816584    0.402412    0.581495    0.000000
   303  O2    s     0.567395    0.413783    0.914632    0.000000
   304  O2    s     0.392882    0.822182    0.742992    0.000000
   305  O2    s     0.128855    0.565720    0.076515    0.000000
   306  O2    s     0.392295    0.556452    0.410764    0.000000
   307  F     s     0.424475    0.886269    0.246911    0.000000
   308  F     s     0.068195    0.528239    0.578219    0.000000
   309  F     s     0.484462    0.579014    0.905147    0.000000
   310  F     s     0.518911    0.072311    0.743893    0.000000
   311  F     s     0.834849    0.427419    0.066770    0.000000
   312  F     s     0.519616    0.430981    0.411692    0.000000
--------------------------------------------------------------------------------

  Final Cartesian lattice vectors (Angstroms) :

       11.950779    0.004449   -0.000426
       -6.101022   10.387013    0.013609
        0.011461   -0.009624   29.505883


  Final cell parameters and derivatives :

--------------------------------------------------------------------------------
       a           11.950780 Angstrom     dE/de1(xx)     0.001421 eV/strain
       b           12.046273 Angstrom     dE/de2(yy)     0.000850 eV/strain
       c           29.505887 Angstrom     dE/de3(zz)     0.001529 eV/strain
       alpha       89.962657 Degrees      dE/de4(yz)    -0.000314 eV/strain
       beta        89.979795 Degrees      dE/de5(xz)     0.000090 eV/strain
       gamma      120.407356 Degrees      dE/de6(xy)     0.000355 eV/strain
--------------------------------------------------------------------------------

  Primitive cell volume =          3663.453305 Angs**3

  Density of cell =      1.746465 g/cm**3

  Non-primitive cell volume =          3663.453305 Angs**3


  Final internal derivatives :

--------------------------------------------------------------------------------
   No.  Atomic          a             b             c           Radius
        Label          (eV)          (eV)          (eV)        (eV/Angs)
--------------------------------------------------------------------------------
      1 Ge    c       0.000000      0.000000      0.000000      0.000000
      2 Si    c      -0.000040      0.000378      0.000488      0.000000
      3 Si    c       0.000155     -0.000036     -0.000416      0.000000
      4 Si    c       0.000132      0.000142     -0.000007      0.000000
      5 Si    c      -0.000117      0.000270     -0.000404      0.000000
      6 Si    c       0.000178      0.000109      0.000121      0.000000
      7 Si    c       0.000378      0.000368     -0.000425      0.000000
      8 Si    c       0.000163      0.000441      0.000153      0.000000
      9 Si    c       0.000037      0.000221     -0.000087      0.000000
     10 Si    c      -0.000030     -0.000544     -0.000543      0.000000
     11 Si    c       0.000116      0.000093      0.000182      0.000000
     12 Si    c       0.000832     -0.000233      0.005622      0.000000
     13 Si    c      -0.001193      0.001737     -0.005158      0.000000
     14 Si    c      -0.000118     -0.000013     -0.000255      0.000000
     15 Si    c       0.000141     -0.000133      0.000007      0.000000
     16 Si    c       0.000334      0.000100     -0.000065      0.000000
     17 Si    c       0.000246      0.000368      0.000317      0.000000
     18 Si    c      -0.000191      0.000528      0.000738      0.000000
     19 Si    c       0.000451      0.000144      0.000241      0.000000
     20 Si    c      -0.000875      0.000020      0.000315      0.000000
     21 Si    c       0.000187      0.000263      0.000225      0.000000
     22 Si    c       0.000370     -0.000089     -0.001436      0.000000
     23 Si    c       0.000152      0.000056     -0.000018      0.000000
     24 Si    c      -0.000157     -0.000210      0.000521      0.000000
     25 Si    c      -0.000062     -0.000046     -0.001034      0.000000
     26 Si    c      -0.000019     -0.000015      0.000108      0.000000
     27 Si    c       0.000290      0.000053      0.000120      0.000000
     28 Si    c       0.000211      0.000203     -0.000029      0.000000
     29 Si    c       0.000159     -0.000032     -0.000116      0.000000
     30 Si    c       0.000182      0.000915      0.000274      0.000000
     31 Si    c       0.000249     -0.000010     -0.000050      0.000000
     32 Si    c       0.000645     -0.000056      0.000190      0.000000
     33 Si    c      -0.000182      0.000083     -0.000036      0.000000
     34 Si    c      -0.000123      0.000434     -0.000028      0.000000
     35 Si    c      -0.000076      0.000202     -0.000243      0.000000
     36 Si    c       0.000268      0.000277     -0.000402      0.000000
     37 Si    c      -0.000482      0.000137     -0.000451      0.000000
     38 Si    c       0.000020      0.000063     -0.000313      0.000000
     39 Si    c       0.000256     -0.000215     -0.000269      0.000000
     40 Si    c       0.000191      0.000116     -0.000155      0.000000
     41 Si    c       0.000422     -0.000012      0.000208      0.000000
     42 Si    c       0.000163      0.000390      0.000598      0.000000
     43 Si    c       0.000257     -0.000048      0.000001      0.000000
     44 Si    c      -0.000176     -0.001603     -0.003031      0.000000
     45 Si    c      -0.000076      0.000082      0.000114      0.000000
     46 Ge    c       0.000010      0.000340     -0.000620      0.000000
     47 Si    c       0.000053      0.000265      0.000153      0.000000
     48 Si    c       0.000078     -0.000008     -0.000156      0.000000
     49 Si    c       0.000079      0.000039     -0.000455      0.000000
     50 Si    c      -0.000019      0.000015      0.000112      0.000000
     51 Si    c       0.000280      0.000024     -0.000373      0.000000
     52 Si    c       0.000154     -0.000100      0.000130      0.000000
     53 Si    c       0.000022      0.000099      0.000121      0.000000
     54 Si    c      -0.000048     -0.000045      0.001853      0.000000
     55 Ge    c       0.000214      0.000074      0.000573      0.000000
     56 Si    c       0.000627      0.000728      0.001540      0.000000
     57 Si    c      -0.000168      0.000171     -0.000882      0.000000
     58 Si    c       0.000145      0.000316     -0.001088      0.000000
     59 Si    c       0.000364      0.000167      0.000131      0.000000
     60 Si    c       0.000258      0.000155     -0.000505      0.000000
     61 O2    c       0.001161     -0.000366     -0.000107      0.000000
     62 O3    c       0.000570      0.000744     -0.000093      0.000000
     63 O2    c       0.000075     -0.000020     -0.000284      0.000000
     64 O2    c       0.000259      0.000134      0.000253      0.000000
     65 O2    c       0.000080     -0.000118     -0.000031      0.000000
     66 O2    c       0.000131      0.000011     -0.000079      0.000000
     67 O2    c       0.000234      0.000135     -0.000163      0.000000
     68 O2    c      -0.000188      0.000111     -0.000077      0.000000
     69 O2    c      -0.000396      0.000660      0.000067      0.000000
     70 O2    c       0.000197      0.000289      0.000604      0.000000
     71 O2    c      -0.000259     -0.000517      0.001734      0.000000
     72 O2    c       0.000285      0.000264      0.000074      0.000000
     73 O3    c      -0.001408     -0.003099      0.002881      0.000000
     74 O2    c       0.000335     -0.000161      0.000016      0.000000
     75 O2    c       0.000103      0.000113     -0.000139      0.000000
     76 O2    c       0.000132     -0.000023      0.000102      0.000000
     77 O2    c      -0.000065      0.000021     -0.000419      0.000000
     78 O2    c      -0.000129      0.000327     -0.000505      0.000000
     79 O2    c       0.001657     -0.000045      0.000342      0.000000
     80 O2    c      -0.000129      0.000366     -0.000298      0.000000
     81 O2    c       0.000213     -0.000192     -0.000190      0.000000
     82 O2    c       0.000336     -0.000062     -0.000230      0.000000
     83 O2    c       0.000417     -0.000113     -0.000125      0.000000
     84 O2    c       0.000116     -0.000295      0.000444      0.000000
     85 O3    c       0.000347      0.000249      0.000219      0.000000
     86 O2    c       0.003383     -0.003010     -0.002150      0.000000
     87 O2    c      -0.000172      0.000087     -0.000016      0.000000
     88 O3    c       0.000044     -0.000210     -0.000053      0.000000
     89 O2    c       0.000287      0.000135      0.000267      0.000000
     90 O2    c       0.000099     -0.000058      0.000175      0.000000
     91 O2    c       0.000232      0.000080     -0.001462      0.000000
     92 O2    c       0.000124      0.000056     -0.000033      0.000000
     93 O2    c       0.000186     -0.000409     -0.003698      0.000000
     94 O2    c       0.000186     -0.000087      0.001660      0.000000
     95 O2    c       0.000258      0.000600      0.004749      0.000000
     96 O3    c       0.000233     -0.000058     -0.000439      0.000000
     97 O2    c      -0.002203      0.001747      0.000089      0.000000
     98 O2    c       0.000097     -0.000478      0.000794      0.000000
     99 O2    c       0.000074     -0.000092      0.000173      0.000000
    100 O2    c       0.000146      0.000060      0.000471      0.000000
    101 O2    c      -0.000115      0.000302     -0.000202      0.000000
    102 O2    c       0.000186      0.000119      0.000306      0.000000
    103 O3    c       0.000539     -0.000059     -0.000504      0.000000
    104 O2    c      -0.003259      0.000564     -0.000386      0.000000
    105 O2    c      -0.000036      0.000376     -0.000478      0.000000
    106 O2    c      -0.000352      0.000499     -0.000229      0.000000
    107 O2    c       0.000106      0.000150     -0.000345      0.000000
    108 O2    c       0.000067      0.000161      0.000793      0.000000
    109 O2    c       0.000082      0.000199      0.000078      0.000000
    110 O2    c      -0.000150      0.000092      0.000135      0.000000
    111 O2    c      -0.000245      0.000254      0.000161      0.000000
    112 O2    c       0.000292     -0.000062     -0.000554      0.000000
    113 O3    c      -0.002186     -0.000624     -0.001932      0.000000
    114 O2    c       0.000043      0.000239      0.000046      0.000000
    115 O2    c      -0.001203     -0.000237      0.000423      0.000000
    116 O2    c       0.000101      0.000193     -0.000151      0.000000
    117 O2    c       0.000351     -0.000047     -0.000257      0.000000
    118 O2    c       0.000157     -0.000033     -0.000126      0.000000
    119 O2    c       0.000235      0.000093     -0.000259      0.000000
    120 O2    c      -0.000051      0.000496      0.000301      0.000000
    121 O2    c       0.000342     -0.000027      0.000225      0.000000
    122 O2    c       0.000385      0.000550     -0.000304      0.000000
    123 O2    c      -0.000103      0.000221      0.000237      0.000000
    124 O3    c       0.000378     -0.000284     -0.000485      0.000000
    125 O2    c       0.000335      0.000213      0.000332      0.000000
    126 O2    c       0.000184     -0.000177      0.000233      0.000000
    127 O3    c       0.000071     -0.000686     -0.000718      0.000000
    128 O2    c       0.000035      0.000292      0.000249      0.000000
    129 O2    c       0.000225     -0.000165      0.000411      0.000000
    130 O2    c       0.000117     -0.000019      0.000515      0.000000
    131 O2    c      -0.000105      0.000257     -0.000339      0.000000
    132 O2    c       0.000088      0.000225      0.000432      0.000000
    133 O2    c       0.000158      0.000312     -0.000283      0.000000
    134 O2    c       0.000101      0.000189      0.000347      0.000000
    135 O2    c      -0.000132      0.000118     -0.000296      0.000000
    136 O2    c       0.000059      0.000237     -0.000188      0.000000
    137 O2    c       0.000298      0.000225     -0.000438      0.000000
    138 O2    c       0.000290      0.000098      0.000914      0.000000
    139 O3    c      -0.001000     -0.001551     -0.001183      0.000000
    140 O2    c       0.000293      0.000219      0.000180      0.000000
    141 O2    c      -0.000037      0.000040      0.000299      0.000000
    142 O2    c       0.000010      0.000134      0.000332      0.000000
    143 O3    c       0.000032      0.000114     -0.000284      0.000000
    144 O2    c       0.000138      0.000166      0.000156      0.000000
    145 O2    c       0.000095      0.000196     -0.000193      0.000000
    146 O2    c      -0.000046      0.000237      0.000064      0.000000
    147 O2    c       0.000047     -0.000099     -0.000281      0.000000
    148 O2    c       0.000366     -0.000108     -0.000107      0.000000
    149 O2    c       0.000120      0.000077     -0.000272      0.000000
    150 O2    c       0.000028     -0.000063      0.000631      0.000000
    151 O2    c      -0.000108      0.000044      0.001059      0.000000
    152 O2    c       0.000031      0.000122      0.000207      0.000000
    153 O2    c       0.000231     -0.000165      0.000327      0.000000
    154 O2    c       0.000084     -0.000051      0.000154      0.000000
    155 O2    c       0.000272     -0.000107      0.000312      0.000000
    156 O2    c      -0.000147      0.000019     -0.000702      0.000000
    157 O2    c       0.000313      0.000212     -0.000175      0.000000
    158 O2    c       0.000361      0.000399      0.001135      0.000000
    159 O2    c       0.000004      0.000165     -0.000562      0.000000
    160 O3    c       0.000285     -0.000102      0.000551      0.000000
    161 O2    c       0.000035      0.000236     -0.000317      0.000000
    162 O2    c       0.000246      0.000008     -0.000215      0.000000
    163 O2    c       0.000223      0.000616      0.000454      0.000000
    164 O2    c       0.000190      0.000116     -0.000356      0.000000
    165 O2    c       0.000222      0.000047     -0.000434      0.000000
    166 O2    c       0.000256      0.000203     -0.000271      0.000000
    167 O2    c       0.000051      0.000201     -0.000351      0.000000
    168 O2    c       0.000342     -0.000148     -0.000061      0.000000
    169 O2    c       0.000274      0.000016      0.000486      0.000000
    170 O2    c       0.000015      0.000005     -0.000206      0.000000
    171 O2    c       0.000154      0.000011      0.000337      0.000000
    172 O2    c       0.000472     -0.000159     -0.000068      0.000000
    173 O2    c       0.000282      0.000019      0.000455      0.000000
    174 O2    c       0.000106     -0.000020      0.000101      0.000000
    175 O2    c       0.000153      0.000016     -0.000067      0.000000
    176 O2    c       0.000393      0.000017     -0.000050      0.000000
    177 O2    c       0.000748     -0.000124     -0.003954      0.000000
    178 O2    c       0.000054      0.000204     -0.000281      0.000000
    179 O2    c      -0.000021      0.000360      0.000576      0.000000
    180 O2    c       0.000332     -0.000016      0.000498      0.000000
    181 F     c       0.000130      0.000071     -0.000070      0.000000
    182 F     c       0.000148      0.000061      0.000004      0.000000
    183 F     c       0.000130      0.000196     -0.000155      0.000000
    184 F     c       0.000102      0.000076     -0.000102      0.000000
    185 F     c       0.000335     -0.000093     -0.000604      0.000000
    186 F     c       0.000232      0.000131      0.000041      0.000000
    187 O2    s       0.000975      0.000410     -0.000060      0.000000
    188 O3    s       0.000374      0.000817      0.000330      0.000000
    189 O2    s       0.000139      0.000022     -0.000471      0.000000
    190 O2    s       0.000404      0.000156      0.000139      0.000000
    191 O2    s       0.000372     -0.000260      0.000094      0.000000
    192 O2    s      -0.000099      0.000295      0.000448      0.000000
    193 O2    s       0.000528      0.000249     -0.000094      0.000000
    194 O2    s       0.000003      0.000127     -0.000148      0.000000
    195 O2    s       0.000502     -0.000475     -0.000607      0.000000
    196 O2    s      -0.000074      0.000378     -0.000051      0.000000
    197 O2    s      -0.000178     -0.000143      0.002702      0.000000
    198 O2    s       0.000190      0.000344      0.000006      0.000000
    199 O3    s       0.000379      0.002428      0.001329      0.000000
    200 O2    s       0.000243     -0.000204     -0.000139      0.000000
    201 O2    s      -0.000029      0.000169      0.000130      0.000000
    202 O2    s       0.000293      0.000006      0.000128      0.000000
    203 O2    s       0.000290     -0.000129      0.000014      0.000000
    204 O2    s       0.000226      0.000212     -0.000398      0.000000
    205 O2    s       0.001637      0.000574     -0.000606      0.000000
    206 O2    s      -0.000276      0.000350     -0.000623      0.000000
    207 O2    s       0.000282     -0.000077     -0.000521      0.000000
    208 O2    s       0.000249     -0.000044     -0.000521      0.000000
    209 O2    s       0.000255      0.000163     -0.000411      0.000000
    210 O2    s       0.000089     -0.000092      0.000413      0.000000
    211 O3    s       0.000314      0.000221      0.000934      0.000000
    212 O2    s       0.002002     -0.001622     -0.002410      0.000000
    213 O2    s      -0.000112     -0.000053     -0.000129      0.000000
    214 O3    s       0.000131     -0.000328      0.000748      0.000000
    215 O2    s       0.000394      0.000124      0.000573      0.000000
    216 O2    s       0.000217      0.000083      0.000911      0.000000
    217 O2    s       0.000347      0.000222     -0.000808      0.000000
    218 O2    s       0.000293      0.000177      0.000081      0.000000
    219 O2    s       0.000276     -0.000781     -0.002546      0.000000
    220 O2    s       0.000315     -0.000018      0.000739      0.000000
    221 O2    s      -0.000131      0.001735      0.003205      0.000000
    222 O3    s       0.000231      0.000034      0.000042      0.000000
    223 O2    s      -0.001259      0.001217      0.000240      0.000000
    224 O2    s      -0.000098     -0.000374      0.001296      0.000000
    225 O2    s       0.000114      0.000021      0.000362      0.000000
    226 O2    s       0.000261      0.000016      0.000611      0.000000
    227 O2    s       0.000213      0.000212     -0.000039      0.000000
    228 O2    s       0.000076      0.000137      0.000622      0.000000
    229 O3    s       0.000361      0.000053     -0.000147      0.000000
    230 O2    s      -0.003429      0.000442     -0.001232      0.000000
    231 O2    s       0.000046      0.000187     -0.000986      0.000000
    232 O2    s      -0.000176      0.000362     -0.000779      0.000000
    233 O2    s       0.000169      0.000242     -0.000195      0.000000
    234 O2    s       0.000221      0.000158      0.001019      0.000000
    235 O2    s       0.000330      0.000316     -0.000368      0.000000
    236 O2    s       0.000066      0.000023      0.000138      0.000000
    237 O2    s       0.000890     -0.000665     -0.000159      0.000000
    238 O2    s       0.000157      0.000000     -0.000777      0.000000
    239 O3    s       0.000888      0.000581      0.000081      0.000000
    240 O2    s       0.000016      0.000442      0.000215      0.000000
    241 O2    s      -0.001233      0.001698     -0.001821      0.000000
    242 O2    s       0.000026      0.000115     -0.000280      0.000000
    243 O2    s       0.000310     -0.000103     -0.000471      0.000000
    244 O2    s       0.000272      0.000047     -0.000215      0.000000
    245 O2    s       0.000303      0.000237     -0.000556      0.000000
    246 O2    s       0.000761     -0.000397      0.000586      0.000000
    247 O2    s       0.000575     -0.000067      0.000607      0.000000
    248 O2    s      -0.000037     -0.000160     -0.001087      0.000000
    249 O2    s       0.000032      0.000148      0.000294      0.000000
    250 O3    s      -0.000674      0.000356      0.001134      0.000000
    251 O2    s       0.000251      0.000165      0.000337      0.000000
    252 O2    s       0.000337     -0.000009      0.001000      0.000000
    253 O3    s       0.000643      0.000017     -0.000241      0.000000
    254 O2    s       0.000023      0.000325      0.000708      0.000000
    255 O2    s       0.000157      0.000007      0.000299      0.000000
    256 O2    s       0.000169      0.000045      0.000513      0.000000
    257 O2    s       0.000453     -0.000130      0.000202      0.000000
    258 O2    s       0.000270      0.000045      0.001055      0.000000
    259 O2    s       0.000369      0.000310     -0.000476      0.000000
    260 O2    s       0.000833     -0.000720     -0.000904      0.000000
    261 O2    s       0.000027      0.000071     -0.000629      0.000000
    262 O2    s       0.000099     -0.000089     -0.000581      0.000000
    263 O2    s       0.000133      0.000261     -0.000350      0.000000
    264 O2    s      -0.000415      0.000221      0.000134      0.000000
    265 O3    s       0.000692     -0.001119      0.002706      0.000000
    266 O2    s       0.000137      0.000344      0.000572      0.000000
    267 O2    s      -0.000038      0.000038      0.000232      0.000000
    268 O2    s       0.000189      0.000140      0.000546      0.000000
    269 O3    s       0.000586     -0.000605      0.000937      0.000000
    270 O2    s       0.000374      0.000127      0.000835      0.000000
    271 O2    s       0.000034      0.000265     -0.000467      0.000000
    272 O2    s       0.000760     -0.000179     -0.001015      0.000000
    273 O2    s       0.000065     -0.000067     -0.000676      0.000000
    274 O2    s       0.000009     -0.000005     -0.000571      0.000000
    275 O2    s       0.000152      0.000136     -0.000318      0.000000
    276 O2    s       0.000083     -0.000430      0.001335      0.000000
    277 O2    s       0.000194      0.000085      0.001183      0.000000
    278 O2    s      -0.000057      0.000148      0.000013      0.000000
    279 O2    s       0.000351     -0.000127      0.000125      0.000000
    280 O2    s       0.000114      0.000051      0.000070      0.000000
    281 O2    s       0.000311      0.000081      0.000125      0.000000
    282 O2    s       0.000536     -0.000477      0.000366      0.000000
    283 O2    s       0.000456      0.000325     -0.000155      0.000000
    284 O2    s      -0.000400      0.000175      0.001509      0.000000
    285 O2    s      -0.000020      0.000119     -0.000424      0.000000
    286 O3    s      -0.000727     -0.000300     -0.000405      0.000000
    287 O2    s       0.000157      0.000225     -0.000122      0.000000
    288 O2    s       0.000622      0.000084     -0.000023      0.000000
    289 O2    s      -0.001071      0.000166     -0.002250      0.000000
    290 O2    s       0.000205      0.000054     -0.000734      0.000000
    291 O2    s       0.000140      0.000038     -0.000764      0.000000
    292 O2    s       0.000414      0.000136     -0.000405      0.000000
    293 O2    s       0.000114      0.000136     -0.000659      0.000000
    294 O2    s       0.000339     -0.000094      0.000733      0.000000
    295 O2    s       0.000380      0.000090      0.000852      0.000000
    296 O2    s       0.000400     -0.000466     -0.000032      0.000000
    297 O2    s       0.000214      0.000035      0.000359      0.000000
    298 O2    s       0.000045      0.000422      0.000883      0.000000
    299 O2    s       0.000381      0.000005      0.000546      0.000000
    300 O2    s       0.000212     -0.000106      0.000811      0.000000
    301 O2    s       0.000111     -0.000125     -0.000008      0.000000
    302 O2    s       0.000413      0.000058     -0.000006      0.000000
    303 O2    s      -0.000618      0.001587     -0.002117      0.000000
    304 O2    s       0.000316      0.000349     -0.000120      0.000000
    305 O2    s       0.000658     -0.000692      0.000727      0.000000
    306 O2    s       0.000654     -0.000008      0.000331      0.000000
    307 F     s       0.000216      0.000006      0.000045      0.000000
    308 F     s       0.000143      0.000021     -0.000070      0.000000
    309 F     s       0.000363     -0.000220      0.000145      0.000000
    310 F     s       0.000147      0.000153     -0.000311      0.000000
    311 F     s      -0.000540      0.000219     -0.001056      0.000000
    312 F     s       0.000268      0.000143      0.000233      0.000000
--------------------------------------------------------------------------------
  Maximum abs         0.003429      0.003099      0.005622      0.000000
--------------------------------------------------------------------------------


  Time to end of optimisation =      52.1243 seconds


  Peak dynamic memory used =      19.13 MB 


  Timing analysis for GULP :

--------------------------------------------------------------------------------
  Task / Subroutine                                          Time (Seconds)
--------------------------------------------------------------------------------
  Calculation of reciprocal space energy and derivatives          1.3670
  Calculation of real space energy and derivatives               45.3949
  Calculation of three-body energy and derivatives                4.4948
  Calculation of matrix inversion                                 0.7446
  Global summation overhead                                       0.0001
--------------------------------------------------------------------------------
  Total CPU time                                                 52.1243
--------------------------------------------------------------------------------


  Dump file written as out.res                                                 
  CIF file written as out.cif                                                 


  Job Finished at 18:58.02 11th November   2016                               

