********************************************************************************
*                       GENERAL UTILITY LATTICE PROGRAM                        *
*                                 Julian Gale                                  *
*                      Nanochemistry Research Institute                        *
*                           Department of Chemistry                            *
*                    Curtin University, Western Australia                      *
********************************************************************************
* Version = 4.2.0 * Last modified =  20th January 2014                         *
********************************************************************************
*  optimise     - perform optimisation run                                     *
*  conp         - constant pressure calculation                                *
*  qok          - running with non charge neutral cell is OK                   *
********************************************************************************

  Job Started  at 07:41.20 12th November   2016                               

  Number of CPUs =     1


  Total number of configurations input =   1

********************************************************************************
*  Input for Configuration =   1                                               *
********************************************************************************

  Formula = Ge3Si57O120F6                                               

  Number of irreducible atoms/shells =     312


  Total number atoms/shells =     312

  Dimensionality = 3               :  Bulk   


  Charge on solid   =  -6.000000 =>neutralising background added


  Cartesian lattice vectors (Angstroms) :

       11.940357    0.000000    0.000000
       -6.033995   10.397181    0.000000
       -0.255595   -0.295427   29.474972

  Cell parameters (Angstroms/Degrees):

  a =      11.9404    alpha =  90.2473
  b =      12.0213    beta  =  90.4968
  c =      29.4776    gamma = 120.1287

  Initial cell volume =        3659.201514 Angs**3

  Temperature of configuration =  0.000     K 

  Pressure of configuration =         0.000 GPa 

  Fractional coordinates of asymmetric unit :

--------------------------------------------------------------------------------
   No.  Atomic       x           y          z         Charge      Occupancy
        Label      (Frac)      (Frac)     (Frac)        (e)         (Frac)  
--------------------------------------------------------------------------------
      1 Ge    c    0.699600    0.375700    0.033890     4.00000    1.000000    
      2 Si    c    0.614120 *  0.318276 *  0.364988 *   4.00000    1.000000    
      3 Si    c    0.677871 *  0.300471 *  0.697027 *   4.00000    1.000000    
      4 Si    c    0.289458 *  0.618683 *  0.527804 *   4.00000    1.000000    
      5 Si    c    0.374740 *  0.673885 *  0.858742 *   4.00000    1.000000    
      6 Si    c    0.312425 *  0.702219 *  0.195144 *   4.00000    1.000000    
      7 Si    c    0.367490 *  0.693936 *  0.295616 *   4.00000    1.000000    
      8 Si    c    0.315873 *  0.624686 *  0.958639 *   4.00000    1.000000    
      9 Si    c    0.297502 *  0.677850 *  0.628342 *   4.00000    1.000000    
     10 Si    c    0.622167 *  0.296727 *  0.797594 *   4.00000    1.000000    
     11 Si    c    0.669015 *  0.379500 *  0.465461 *   4.00000    1.000000    
     12 Si    c    0.681963 *  0.316897 *  0.132353 *   4.00000    1.000000    
     13 Si    c    0.535371 *  0.424077 *  0.965398 *   4.00000    1.000000    
     14 Si    c    0.575911 *  0.104505 *  0.302071 *   4.00000    1.000000    
     15 Si    c    0.886853 *  0.472802 *  0.632390 *   4.00000    1.000000    
     16 Si    c    0.459216 *  0.580285 *  0.461981 *   4.00000    1.000000    
     17 Si    c    0.417126 *  0.885340 *  0.794445 *   4.00000    1.000000    
     18 Si    c    0.103513 *  0.532011 *  0.126378 *   4.00000    1.000000    
     19 Si    c    0.406752 *  0.522106 *  0.360178 *   4.00000    1.000000    
     20 Si    c    0.102168 *  0.578635 *  0.023427 *   4.00000    1.000000    
     21 Si    c    0.471315 *  0.890501 *  0.692862 *   4.00000    1.000000    
     22 Si    c    0.583206 *  0.468818 *  0.862852 *   4.00000    1.000000    
     23 Si    c    0.880612 *  0.417388 *  0.530690 *   4.00000    1.000000    
     24 Si    c    0.522948 *  0.111843 *  0.200762 *   4.00000    1.000000    
     25 Si    c    0.300451 *  0.396794 *  0.845925 *   4.00000    1.000000    
     26 Si    c    0.592321 *  0.904121 *  0.183140 *   4.00000    1.000000    
     27 Si    c    0.087882 *  0.696451 *  0.514884 *   4.00000    1.000000    
     28 Si    c    0.688388 *  0.592982 *  0.348348 *   4.00000    1.000000    
     29 Si    c    0.399399 *  0.098824 *  0.680131 *   4.00000    1.000000    
     30 Si    c    0.884530 *  0.291714 *  0.008476 *   4.00000    1.000000    
     31 Si    c    0.389223 *  0.301839 *  0.477672 *   4.00000    1.000000    
     32 Si    c    0.887977 *  0.603779 *  0.139410 *   4.00000    1.000000    
     33 Si    c    0.698871 *  0.095226 *  0.810439 *   4.00000    1.000000    
     34 Si    c    0.594159 *  0.702842 *  0.975199 *   4.00000    1.000000    
     35 Si    c    0.097478 *  0.401407 *  0.644728 *   4.00000    1.000000    
     36 Si    c    0.293365 *  0.895471 *  0.313385 *   4.00000    1.000000    
     37 Si    c    0.256241 *  0.349650 *  0.946326 *   4.00000    1.000000    
     38 Si    c    0.650775 *  0.903147 *  0.283578 *   4.00000    1.000000    
     39 Si    c    0.087537 *  0.750364 *  0.615650 *   4.00000    1.000000    
     40 Si    c    0.739392 *  0.657923 *  0.448723 *   4.00000    1.000000    
     41 Si    c    0.340716 *  0.087106 *  0.780574 *   4.00000    1.000000    
     42 Si    c    0.897220 *  0.248584 *  0.111652 *   4.00000    1.000000    
     43 Si    c    0.331516 *  0.245544 *  0.376958 *   4.00000    1.000000    
     44 Si    c    0.896770 *  0.657426 *  0.036372 *   4.00000    1.000000    
     45 Si    c    0.750416 *  0.092449 *  0.709843 *   4.00000    1.000000    
     46 Si    c    0.656426 *  0.747091 *  0.874943 *   4.00000    1.000000    
     47 Si    c    0.081893 *  0.338996 *  0.544049 *   4.00000    1.000000    
     48 Si    c    0.242519 *  0.910323 *  0.213036 *   4.00000    1.000000    
     49 Ge    c    0.975985 *  0.125534 *  0.960308 *   4.00000    1.000000    
     50 Si    c    0.868038 *  0.838014 *  0.297726 *   4.00000    1.000000    
     51 Si    c    0.149944 *  0.030272 *  0.629114 *   4.00000    1.000000    
     52 Si    c    0.020214 *  0.876239 *  0.463764 *   4.00000    1.000000    
     53 Si    c    0.121921 *  0.147306 *  0.794436 *   4.00000    1.000000    
     54 Si    c    0.841536 *  0.973120 *  0.133054 *   4.00000    1.000000    
     55 Si    c    0.114035 *  0.964137 *  0.362939 *   4.00000    1.000000    
     56 Ge    c    0.844094 *  0.881290 *  0.029713 *   4.00000    1.000000    
     57 Si    c    0.030371 *  0.153616 *  0.693708 *   4.00000    1.000000    
     58 Si    c    0.877629 *  0.021195 *  0.858556 *   4.00000    1.000000    
     59 Si    c    0.143078 *  0.121153 *  0.528567 *   4.00000    1.000000    
     60 Si    c    0.962315 *  0.849989 *  0.196231 *   4.00000    1.000000    
     61 O1    c    0.940891 *  0.019612 *  0.002986 *   1.73396    1.000000    
     62 O2    c    0.991782 *  0.920502 *  0.329839 *   0.87073    1.000000    
     63 O2    c    0.069018 *  0.073725 *  0.660076 *   0.87073    1.000000    
     64 O2    c    0.062738 *  0.999864 *  0.495457 *   0.87073    1.000000    
     65 O2    c    0.997374 *  0.064970 *  0.825025 *   0.87073    1.000000    
     66 O2    c    0.923506 *  0.941920 *  0.169574 *   0.87073    1.000000    
     67 O2    c    0.329689 *  0.569039 *  0.326720 *   0.87073    1.000000    
     68 O2    c    0.423945 *  0.765867 *  0.659926 *   0.87073    1.000000    
     69 O2    c    0.226005 *  0.657378 *  0.991114 *   0.87073    1.000000    
     70 O2    c    0.659479 *  0.417906 *  0.831189 *   0.87073    1.000000    
     71 O2    c    0.576211 *  0.241606 *  0.171375 *   0.87073    1.000000    
     72 O2    c    0.751943 *  0.340883 *  0.498956 *   0.87073    1.000000    
     73 O3    c    0.565892 *  0.340755 *  0.998636 *   1.33043    1.000000    
     74 O2    c    0.763373 *  0.424879 *  0.665407 *   0.87073    1.000000    
     75 O2    c    0.653206 *  0.229530 *  0.334878 *   0.87073    1.000000    
     76 O2    c    0.409552 *  0.656717 *  0.493828 *   0.87073    1.000000    
     77 O2    c    0.226783 *  0.582310 *  0.160436 *   0.87073    1.000000    
     78 O2    c    0.338197 *  0.758091 *  0.825131 *   0.87073    1.000000    
     79 O3    c    0.138394 *  0.224986 *  0.968003 *   1.33043    1.000000    
     80 O2    c    0.777040 *  0.901121 *  0.303064 *   0.87073    1.000000    
     81 O2    c    0.088619 *  0.877095 *  0.635508 *   0.87073    1.000000    
     82 O2    c    0.865360 *  0.786307 *  0.468609 *   0.87073    1.000000    
     83 O2    c    0.213396 *  0.084971 *  0.800518 *   0.87073    1.000000    
     84 O2    c    0.903222 *  0.127904 *  0.133099 *   0.87073    1.000000    
     85 O2    c    0.205485 *  0.117561 *  0.356822 *   0.87073    1.000000    
     86 O3    c    0.914979 *  0.790277 *  0.018372 *   1.33043    1.000000    
     87 O2    c    0.875802 *  0.092602 *  0.689036 *   0.87073    1.000000    
     88 O2    c    0.781733 *  0.868035 *  0.852425 *   0.87073    1.000000    
     89 O2    c    0.078135 *  0.210644 *  0.524358 *   0.87073    1.000000    
     90 O2    c    0.117312 *  0.913077 *  0.192665 *   0.87073    1.000000    
     91 O2    c    0.918114 *  0.844750 *  0.247382 *   0.87073    1.000000    
     92 O2    c    0.134682 *  0.066080 *  0.578248 *   0.87073    1.000000    
     93 O3    c    0.934518 *  0.049001 *  0.908769 *   1.33043    1.000000    
     94 O2    c    0.072594 *  0.136890 *  0.743380 *   0.87073    1.000000    
     95 O3    c    0.853939 *  0.916160 *  0.086725 *   1.33043    1.000000    
     96 O2    c    0.061187 *  0.927199 *  0.413296 *   0.87073    1.000000    
     97 O3    c    0.893640 *  0.206915 *  0.968483 *   1.33043    1.000000    
     98 O2    c    0.786767 *  0.687580 *  0.310090 *   0.87073    1.000000    
     99 O2    c    0.302374 *  0.101667 *  0.641619 *   0.87073    1.000000    
    100 O2    c    0.088350 *  0.793748 *  0.476686 *   0.87073    1.000000    
    101 O2    c    0.202903 *  0.298042 *  0.807393 *   0.87073    1.000000    
    102 O2    c    0.689325 *  0.906498 *  0.144655 *   0.87073    1.000000    
    103 O2    c    0.195722 *  0.893556 *  0.351828 *   0.87073    1.000000    
    104 O3    c    0.683654 *  0.803711 *  0.014114 *   1.33043    1.000000    
    105 O2    c    0.101147 *  0.305436 *  0.682647 *   0.87073    1.000000    
    106 O2    c    0.797481 *  0.094694 *  0.848921 *   0.87073    1.000000    
    107 O2    c    0.294137 *  0.205738 *  0.516144 *   0.87073    1.000000    
    108 O2    c    0.892992 *  0.703970 *  0.177393 *   0.87073    1.000000    
    109 O2    c    0.311467 *  0.640348 *  0.244449 *   0.87073    1.000000    
    110 O2    c    0.351631 *  0.676772 *  0.577775 *   0.87073    1.000000    
    111 O2    c    0.312458 *  0.676469 *  0.907791 *   0.87073    1.000000    
    112 O2    c    0.678893 *  0.355918 *  0.747731 *   0.87073    1.000000    
    113 O3    c    0.610969 *  0.304503 *  0.085152 *   1.33043    1.000000    
    114 O2    c    0.671394 *  0.321831 *  0.415573 *   0.87073    1.000000    
    115 O2    c    0.378367 *  0.341144 *  0.964021 *   0.87073    1.000000    
    116 O2    c    0.662650 *  0.034795 *  0.303575 *   0.87073    1.000000    
    117 O2    c    0.956340 *  0.628857 *  0.634803 *   0.87073    1.000000    
    118 O2    c    0.616057 *  0.668440 *  0.465475 *   0.87073    1.000000    
    119 O2    c    0.330314 *  0.954582 *  0.797884 *   0.87073    1.000000    
    120 O2    c    0.028939 *  0.376523 *  0.128295 *   0.87073    1.000000    
    121 O2    c    0.320353 *  0.365841 *  0.357421 *   0.87073    1.000000    
    122 O2    c    0.031180 *  0.662282 *  0.023109 *   0.87073    1.000000    
    123 O2    c    0.628118 *  0.960638 *  0.690423 *   0.87073    1.000000    
    124 O2    c    0.666321 *  0.624161 *  0.857907 *   0.87073    1.000000    
    125 O2    c    0.947964 *  0.329077 *  0.526564 *   0.87073    1.000000    
    126 O2    c    0.366132 *  0.042759 *  0.195907 *   0.87073    1.000000    
    127 O3    c    0.748385 *  0.281280 *  0.001658 *   1.33043    1.000000    
    128 O2    c    0.688576 *  0.459104 *  0.341432 *   0.87073    1.000000    
    129 O2    c    0.534189 *  0.232900 *  0.673807 *   0.87073    1.000000    
    130 O2    c    0.220291 *  0.693767 *  0.506286 *   0.87073    1.000000    
    131 O2    c    0.302599 *  0.530604 *  0.836004 *   0.87073    1.000000    
    132 O2    c    0.456111 *  0.772405 *  0.173247 *   0.87073    1.000000    
    133 O2    c    0.291469 *  0.760281 *  0.318500 *   0.87073    1.000000    
    134 O2    c    0.459740 *  0.704465 *  0.980957 *   0.87073    1.000000    
    135 O2    c    0.232208 *  0.536195 *  0.651231 *   0.87073    1.000000    
    136 O2    c    0.697807 *  0.227897 *  0.819262 *   0.87073    1.000000    
    137 O2    c    0.524509 *  0.304700 *  0.486459 *   0.87073    1.000000    
    138 O2    c    0.759390 *  0.467585 *  0.149675 *   0.87073    1.000000    
    139 O3    c    0.770222 *  0.541607 *  0.015583 *   1.33043    1.000000    
    140 O2    c    0.457483 *  0.243396 *  0.358692 *   0.87073    1.000000    
    141 O2    c    0.752743 *  0.219785 *  0.691412 *   0.87073    1.000000    
    142 O2    c    0.207108 *  0.462653 *  0.523399 *   0.87073    1.000000    
    143 O2    c    0.531506 *  0.749848 *  0.855134 *   0.87073    1.000000    
    144 O2    c    0.237090 *  0.782985 *  0.192150 *   0.87073    1.000000    
    145 O2    c    0.523942 *  0.776323 *  0.301525 *   0.87073    1.000000    
    146 O2    c    0.245203 *  0.470555 *  0.965015 *   0.87073    1.000000    
    147 O2    c    0.215655 *  0.751697 *  0.634104 *   0.87073    1.000000    
    148 O2    c    0.465641 *  0.213087 *  0.801300 *   0.87073    1.000000    
    149 O2    c    0.741430 *  0.535259 *  0.469743 *   0.87073    1.000000    
    150 O2    c    0.773882 *  0.251658 *  0.131620 *   0.87073    1.000000    
    151 O2    c    0.226709 *  0.326703 *  0.892042 *   0.87073    1.000000    
    152 O2    c    0.666751 *  0.904021 *  0.229248 *   0.87073    1.000000    
    153 O2    c    0.085939 *  0.767413 *  0.561350 *   0.87073    1.000000    
    154 O2    c    0.759492 *  0.671124 *  0.394473 *   0.87073    1.000000    
    155 O2    c    0.323635 *  0.091490 *  0.726270 *   0.87073    1.000000    
    156 O2    c    0.892681 *  0.228855 *  0.057222 *   0.87073    1.000000    
    157 O2    c    0.314160 *  0.229491 *  0.431213 *   0.87073    1.000000    
    158 O2    c    0.882782 *  0.665553 *  0.091806 *   0.87073    1.000000    
    159 O2    c    0.770198 *  0.092908 *  0.764190 *   0.87073    1.000000    
    160 O2    c    0.675349 *  0.772272 *  0.929462 *   0.87073    1.000000    
    161 O2    c    0.088729 *  0.324882 *  0.598276 *   0.87073    1.000000    
    162 O2    c    0.224275 *  0.905961 *  0.267321 *   0.87073    1.000000    
    163 O2    c    0.584217 *  0.567486 *  0.986229 *   0.87073    1.000000    
    164 O2    c    0.434461 *  0.017531 *  0.324302 *   0.87073    1.000000    
    165 O2    c    0.973498 *  0.417182 *  0.654556 *   0.87073    1.000000    
    166 O2    c    0.402443 *  0.440709 *  0.485390 *   0.87073    1.000000    
    167 O2    c    0.559035 *  0.969444 *  0.818152 *   0.87073    1.000000    
    168 O2    c    0.013865 *  0.587669 *  0.144223 *   0.87073    1.000000    
    169 O2    c    0.548796 *  0.578841 *  0.337977 *   0.87073    1.000000    
    170 O2    c    0.009194 *  0.435870 *  0.003508 *   0.87073    1.000000    
    171 O2    c    0.413625 *  0.974437 *  0.670121 *   0.87073    1.000000    
    172 O2    c    0.439662 *  0.407418 *  0.840110 *   0.87073    1.000000    
    173 O2    c    0.961384 *  0.556896 *  0.506766 *   0.87073    1.000000    
    174 O2    c    0.581416 *  0.031394 *  0.176116 *   0.87073    1.000000    
    175 O2    c    0.574605 *  0.160106 *  0.252095 *   0.87073    1.000000    
    176 O2    c    0.830446 *  0.418277 *  0.581691 *   0.87073    1.000000    
    177 O2    c    0.590039 *  0.426675 *  0.914354 *   0.87073    1.000000    
    178 O2    c    0.417789 *  0.835629 *  0.743136 *   0.87073    1.000000    
    179 O2    c    0.151794 *  0.576483 *  0.075031 *   0.87073    1.000000    
    180 O2    c    0.405964 *  0.577134 *  0.410660 *   0.87073    1.000000    
    181 F     c    0.441893 *  0.898979 *  0.247381 *   0.56000    1.000000    
    182 F     c    0.092499 *  0.548061 *  0.579344 *   0.56000    1.000000    
    183 F     c    0.446852 *  0.554824 *  0.910555 *   0.56000    1.000000    
    184 F     c    0.549786 *  0.097458 *  0.745015 *   0.56000    1.000000    
    185 F     c    0.850419 *  0.434121 *  0.069114 *   0.56000    1.000000    
    186 F     c    0.539630 *  0.448656 *  0.412278 *   0.56000    1.000000    
    187 O1    s    0.935383 *  0.016424 *  0.001737 *  -3.73396    1.000000    
    188 O2    s    0.991596 *  0.916134 *  0.329946 *  -2.87073    1.000000    
    189 O2    s    0.073794 *  0.077773 *  0.660355 *  -2.87073    1.000000    
    190 O2    s    0.066924 *  0.999539 *  0.495600 *  -2.87073    1.000000    
    191 O2    s    0.998085 *  0.069369 *  0.825297 *  -2.87073    1.000000    
    192 O2    s    0.919109 *  0.935109 *  0.168654 *  -2.87073    1.000000    
    193 O2    s    0.341355 *  0.577061 *  0.326913 *  -2.87073    1.000000    
    194 O2    s    0.415748 *  0.769571 *  0.660036 *  -2.87073    1.000000    
    195 O2    s    0.222088 *  0.645879 *  0.991228 *  -2.87073    1.000000    
    196 O2    s    0.647870 *  0.410573 *  0.830931 *  -2.87073    1.000000    
    197 O2    s    0.581585 *  0.235802 *  0.170401 *  -2.87073    1.000000    
    198 O2    s    0.756570 *  0.352804 *  0.498728 *  -2.87073    1.000000    
    199 O3    s    0.572354 *  0.352244 *  0.997643 *  -3.33043    1.000000    
    200 O2    s    0.767411 *  0.417164 *  0.665229 *  -2.87073    1.000000    
    201 O2    s    0.641221 *  0.225608 *  0.334551 *  -2.87073    1.000000    
    202 O2    s    0.402413 *  0.644899 *  0.494010 *  -2.87073    1.000000    
    203 O2    s    0.222436 *  0.589059 *  0.160358 *  -2.87073    1.000000    
    204 O2    s    0.350095 *  0.762672 *  0.825389 *  -2.87073    1.000000    
    205 O3    s    0.136291 *  0.229046 *  0.965137 *  -3.33043    1.000000    
    206 O2    s    0.773488 *  0.894640 *  0.300488 *  -2.87073    1.000000    
    207 O2    s    0.094978 *  0.880167 *  0.632810 *  -2.87073    1.000000    
    208 O2    s    0.868773 *  0.782577 *  0.466064 *  -2.87073    1.000000    
    209 O2    s    0.216837 *  0.091814 *  0.797837 *  -2.87073    1.000000    
    210 O2    s    0.896193 *  0.124452 *  0.130869 *  -2.87073    1.000000    
    211 O2    s    0.208820 *  0.114540 *  0.359520 *  -2.87073    1.000000    
    212 O3    s    0.907326 *  0.784311 *  0.021092 *  -3.33043    1.000000    
    213 O2    s    0.879355 *  0.099138 *  0.691670 *  -2.87073    1.000000    
    214 O2    s    0.778959 *  0.871776 *  0.855358 *  -2.87073    1.000000    
    215 O2    s    0.085381 *  0.214341 *  0.526798 *  -2.87073    1.000000    
    216 O2    s    0.113823 *  0.906082 *  0.195129 *  -2.87073    1.000000    
    217 O2    s    0.917432 *  0.844597 *  0.247308 *  -2.87073    1.000000    
    218 O2    s    0.137348 *  0.068312 *  0.578332 *  -2.87073    1.000000    
    219 O3    s    0.932114 *  0.052711 *  0.907951 *  -3.33043    1.000000    
    220 O2    s    0.073364 *  0.140001 *  0.743503 *  -2.87073    1.000000    
    221 O3    s    0.851682 *  0.919626 *  0.087100 *  -3.33043    1.000000    
    222 O2    s    0.062568 *  0.925646 *  0.413262 *  -2.87073    1.000000    
    223 O3    s    0.899555 *  0.208663 *  0.971788 *  -3.33043    1.000000    
    224 O2    s    0.785366 *  0.693971 *  0.312692 *  -2.87073    1.000000    
    225 O2    s    0.296018 *  0.093796 *  0.644192 *  -2.87073    1.000000    
    226 O2    s    0.081015 *  0.792596 *  0.479214 *  -2.87073    1.000000    
    227 O2    s    0.204274 *  0.292052 *  0.809975 *  -2.87073    1.000000    
    228 O2    s    0.695139 *  0.913244 *  0.147449 *  -2.87073    1.000000    
    229 O2    s    0.197112 *  0.901156 *  0.349063 *  -2.87073    1.000000    
    230 O3    s    0.688494 *  0.800592 *  0.011705 *  -3.33043    1.000000    
    231 O2    s    0.093340 *  0.299272 *  0.679943 *  -2.87073    1.000000    
    232 O2    s    0.795941 *  0.087168 *  0.846088 *  -2.87073    1.000000    
    233 O2    s    0.287803 *  0.206652 *  0.513481 *  -2.87073    1.000000    
    234 O2    s    0.899873 *  0.709116 *  0.175432 *  -2.87073    1.000000    
    235 O2    s    0.317162 *  0.651974 *  0.244572 *  -2.87073    1.000000    
    236 O2    s    0.339769 *  0.670930 *  0.577811 *  -2.87073    1.000000    
    237 O2    s    0.318976 *  0.670959 *  0.908068 *  -2.87073    1.000000    
    238 O2    s    0.673040 *  0.344263 *  0.747611 *  -2.87073    1.000000    
    239 O3    s    0.624025 *  0.310411 *  0.086627 *  -3.33043    1.000000    
    240 O2    s    0.665220 *  0.327403 *  0.415446 *  -2.87073    1.000000    
    241 O2    s    0.380815 *  0.350812 *  0.962105 *  -2.87073    1.000000    
    242 O2    s    0.652524 *  0.028287 *  0.301340 *  -2.87073    1.000000    
    243 O2    s    0.962909 *  0.625544 *  0.632548 *  -2.87073    1.000000    
    244 O2    s    0.612840 *  0.658259 *  0.463344 *  -2.87073    1.000000    
    245 O2    s    0.340345 *  0.961421 *  0.795699 *  -2.87073    1.000000    
    246 O2    s    0.023100 *  0.379531 *  0.126369 *  -2.87073    1.000000    
    247 O2    s    0.330330 *  0.369352 *  0.359731 *  -2.87073    1.000000    
    248 O2    s    0.025163 *  0.652671 *  0.024518 *  -2.87073    1.000000    
    249 O2    s    0.624743 *  0.967241 *  0.692727 *  -2.87073    1.000000    
    250 O2    s    0.656657 *  0.621036 *  0.860224 *  -2.87073    1.000000    
    251 O2    s    0.955052 *  0.339189 *  0.528825 *  -2.87073    1.000000    
    252 O2    s    0.369249 *  0.035953 *  0.198204 *  -2.87073    1.000000    
    253 O3    s    0.759466 *  0.288802 *  0.004666 *  -3.33043    1.000000    
    254 O2    s    0.680914 *  0.458632 *  0.344595 *  -2.87073    1.000000    
    255 O2    s    0.534768 *  0.225751 *  0.676884 *  -2.87073    1.000000    
    256 O2    s    0.213449 *  0.686311 *  0.509440 *  -2.87073    1.000000    
    257 O2    s    0.309783 *  0.531389 *  0.839397 *  -2.87073    1.000000    
    258 O2    s    0.455399 *  0.778811 *  0.176559 *  -2.87073    1.000000    
    259 O2    s    0.299436 *  0.767614 *  0.315583 *  -2.87073    1.000000    
    260 O2    s    0.458490 *  0.695948 *  0.977974 *  -2.87073    1.000000    
    261 O2    s    0.224725 *  0.536515 *  0.648172 *  -2.87073    1.000000    
    262 O2    s    0.690212 *  0.221019 *  0.816099 *  -2.87073    1.000000    
    263 O2    s    0.525141 *  0.312167 *  0.483309 *  -2.87073    1.000000    
    264 O2    s    0.765395 *  0.467267 *  0.146880 *  -2.87073    1.000000    
    265 O3    s    0.779577 *  0.543724 *  0.018919 *  -3.33043    1.000000    
    266 O2    s    0.460144 *  0.251465 *  0.361272 *  -2.87073    1.000000    
    267 O2    s    0.744585 *  0.214359 *  0.693962 *  -2.87073    1.000000    
    268 O2    s    0.202058 *  0.465506 *  0.526051 *  -2.87073    1.000000    
    269 O2    s    0.528619 *  0.741498 *  0.857649 *  -2.87073    1.000000    
    270 O2    s    0.245601 *  0.788147 *  0.194673 *  -2.87073    1.000000    
    271 O2    s    0.521318 *  0.781544 *  0.298991 *  -2.87073    1.000000    
    272 O2    s    0.253881 *  0.474138 *  0.962392 *  -2.87073    1.000000    
    273 O2    s    0.210116 *  0.743794 *  0.631531 *  -2.87073    1.000000    
    274 O2    s    0.468512 *  0.208091 *  0.798682 *  -2.87073    1.000000    
    275 O2    s    0.733550 *  0.532293 *  0.467047 *  -2.87073    1.000000    
    276 O2    s    0.778289 *  0.257922 *  0.129496 *  -2.87073    1.000000    
    277 O2    s    0.237265 *  0.336313 *  0.892722 *  -2.87073    1.000000    
    278 O2    s    0.657179 *  0.903931 *  0.230191 *  -2.87073    1.000000    
    279 O2    s    0.086301 *  0.758110 *  0.562200 *  -2.87073    1.000000    
    280 O2    s    0.749889 *  0.661514 *  0.395383 *  -2.87073    1.000000    
    281 O2    s    0.333399 *  0.091793 *  0.727161 *  -2.87073    1.000000    
    282 O2    s    0.892384 *  0.236749 *  0.058315 *  -2.87073    1.000000    
    283 O2    s    0.323870 *  0.238792 *  0.430307 *  -2.87073    1.000000    
    284 O2    s    0.884539 *  0.657991 *  0.091769 *  -2.87073    1.000000    
    285 O2    s    0.760692 *  0.093094 *  0.763264 *  -2.87073    1.000000    
    286 O2    s    0.665488 *  0.762920 *  0.928444 *  -2.87073    1.000000    
    287 O2    s    0.088911 *  0.334397 *  0.597358 *  -2.87073    1.000000    
    288 O2    s    0.233435 *  0.905347 *  0.266342 *  -2.87073    1.000000    
    289 O2    s    0.580184 *  0.567876 *  0.982911 *  -2.87073    1.000000    
    290 O2    s    0.434106 *  0.013324 *  0.320792 *  -2.87073    1.000000    
    291 O2    s    0.977974 *  0.421480 *  0.651171 *  -2.87073    1.000000    
    292 O2    s    0.407134 *  0.440311 *  0.482089 *  -2.87073    1.000000    
    293 O2    s    0.559302 *  0.974406 *  0.814846 *  -2.87073    1.000000    
    294 O2    s    0.009998 *  0.583304 *  0.141785 *  -2.87073    1.000000    
    295 O2    s    0.548884 *  0.574243 *  0.341415 *  -2.87073    1.000000    
    296 O2    s    0.006471 *  0.436741 *  0.006201 *  -2.87073    1.000000    
    297 O2    s    0.418266 *  0.979243 *  0.673562 *  -2.87073    1.000000    
    298 O2    s    0.439577 *  0.412802 *  0.843103 *  -2.87073    1.000000    
    299 O2    s    0.966806 *  0.557463 *  0.510123 *  -2.87073    1.000000    
    300 O2    s    0.576307 *  0.025987 *  0.179446 *  -2.87073    1.000000    
    301 O2    s    0.569234 *  0.149142 *  0.251887 *  -2.87073    1.000000    
    302 O2    s    0.841510 *  0.423824 *  0.581627 *  -2.87073    1.000000    
    303 O2    s    0.583983 *  0.430930 *  0.913933 *  -2.87073    1.000000    
    304 O2    s    0.423288 *  0.846517 *  0.743240 *  -2.87073    1.000000    
    305 O2    s    0.141808 *  0.572045 *  0.075231 *  -2.87073    1.000000    
    306 O2    s    0.411514 *  0.571782 *  0.410731 *  -2.87073    1.000000    
    307 F     s    0.441607 *  0.898540 *  0.247278 *  -1.56000    1.000000    
    308 F     s    0.092935 *  0.548227 *  0.579292 *  -1.56000    1.000000    
    309 F     s    0.446243 *  0.555474 *  0.910527 *  -1.56000    1.000000    
    310 F     s    0.550057 *  0.097914 *  0.744971 *  -1.56000    1.000000    
    311 F     s    0.839711 *  0.429996 *  0.066752 *  -1.56000    1.000000    
    312 F     s    0.539909 *  0.448501 *  0.412194 *  -1.56000    1.000000    
--------------------------------------------------------------------------------



********************************************************************************
*  General input information                                                   *
********************************************************************************

  Species output for all configurations : 

--------------------------------------------------------------------------------
  Species    Type    Atomic    Atomic    Charge       Radii (Angs)     Library
                     Number     Mass       (e)     Cova   Ionic  VDW   Symbol
--------------------------------------------------------------------------------
    Si       Core       14      28.09   4.000000   1.200  0.000  2.100          
    O1       Core        8      16.00   1.733957   0.730  0.000  1.360          
    O1       Shell       8       0.00  -3.733957   0.730  0.000  1.360          
    O2       Core        8      16.00   0.870733   0.730  0.000  1.360          
    O2       Shell       8       0.00  -2.870733   0.730  0.000  1.360          
    O3       Core        8      16.00   1.330431   0.730  0.000  1.360          
    O3       Shell       8       0.00  -3.330431   0.730  0.000  1.360          
    F        Core        9      19.00   0.560000   0.710  0.000  1.300          
    F        Shell       9       0.00  -1.560000   0.710  0.000  1.300          
    Ge       Core       32      72.61   4.000000   1.170  0.000  1.750          
--------------------------------------------------------------------------------


  Lattice summation method               =    Ewald          (3-D)
                                         =    Parry          (2-D)
                                         =    Saunders et al (1-D)
  Accuracy factor for lattice sums       =   12.000


  Time limit = Infinity

  Maximum range for interatomic potentials =        16.000000 Angstroms

  Taper potentials to zero over   1.0000 Angstroms using polynomial

  General interatomic potentials :

--------------------------------------------------------------------------------
Atom  Types   Potential         A         B         C         D     Cutoffs(Ang)
  1     2                                                            Min    Max 
--------------------------------------------------------------------------------
Si   c O1   s Buckingham    0.132E+04 0.318      10.1      0.00     0.000 16.000
Si   c O2   s Buckingham    0.132E+04 0.318      10.1      0.00     0.000 16.000
Si   c O3   s Buckingham    0.132E+04 0.318      10.1      0.00     0.000 16.000
Ge   c O1   s Buckingham    0.150E+04 0.326      16.8      0.00     0.000 16.000
Ge   c O2   s Buckingham    0.150E+04 0.326      16.8      0.00     0.000 16.000
Ge   c O3   s Buckingham    0.150E+04 0.326      16.8      0.00     0.000 16.000
O1   s O1   s Buckingham    0.228E+05 0.149      10.9      0.00     0.000 16.000
O1   s O2   s Buckingham    0.228E+05 0.149      10.9      0.00     0.000 16.000
O1   s O3   s Buckingham    0.228E+05 0.149      10.9      0.00     0.000 16.000
O2   s O2   s Buckingham    0.228E+05 0.149      10.9      0.00     0.000 16.000
O2   s O3   s Buckingham    0.228E+05 0.149      10.9      0.00     0.000 16.000
O3   s O3   s Buckingham    0.228E+05 0.149      10.9      0.00     0.000 16.000
Si   c F    s Buckingham     977.     0.282      0.00      0.00     0.000 16.000
Ge   c F    s Buckingham     681.     0.320      0.00      0.00     0.000 16.000
F    s F    s Buckingham     540.     0.262      0.00      0.00     0.000 16.000
O1   s F    s Buckingham    0.168E+04 0.268      0.00      0.00     0.000 16.000
O2   s F    s Buckingham    0.168E+04 0.268      0.00      0.00     0.000 16.000
O3   s F    s Buckingham    0.168E+04 0.268      0.00      0.00     0.000 16.000
O2   c O2   s Spring (c-s)   76.0      0.00      0.00      0.00     0.000  0.800
O3   c O3   s Spring (c-s)   128.      0.00      0.00      0.00     0.000  0.800
O1   c O1   s Spring (c-s)   180.      0.00      0.00      0.00     0.000  0.800
F    c F    s Spring (c-s)   33.5      0.00      0.00      0.00     0.000  0.800
--------------------------------------------------------------------------------

  General Three-body potentials :

  Harmonic form:

--------------------------------------------------------------------------------
Atom    Atom    Atom           Force Constants            Theta     Cutoffs  
  1       2       3     (eVrad**-2/eVrad**-3/eVrad**-4)   (deg)  1-2  1-3  2-3
--------------------------------------------------------------------------------
Si    c O1    s O1    s  1.261        0.0000    0.0000   109.470 0.00 0.00 0.00
                                                                 1.90 1.90 3.50
Si    c O1    s O2    s  1.261        0.0000    0.0000   109.470 0.00 0.00 0.00
                                                                 1.90 1.90 3.50
Si    c O2    s O2    s  1.261        0.0000    0.0000   109.470 0.00 0.00 0.00
                                                                 1.90 1.90 3.50
--------------------------------------------------------------------------------

********************************************************************************
*  Output for configuration   1                                                *
********************************************************************************


  Components of energy : 

--------------------------------------------------------------------------------
  Interatomic potentials     =        2061.01354510 eV
  Three-body potentials      =           0.48655672 eV
  Monopole - monopole (real) =       -6609.76421576 eV
  Monopole - monopole (recip)=       -3170.99832025 eV
  Monopole - monopole (total)=       -9780.76253601 eV
  Neutralising energy        =          -6.45862153 eV
--------------------------------------------------------------------------------
  Total lattice energy       =       -7725.72105572 eV
--------------------------------------------------------------------------------
  Total lattice energy       =         -745413.9834 kJ/(mole unit cells)
--------------------------------------------------------------------------------


  Number of variables =      939

  Maximum number of calculations  =          5000
  Maximum Hessian update interval =            10
  Maximum step size               =   0.100000000
  Maximum parameter tolerance     =   0.000010000
  Maximum function  tolerance     =   0.000010000
  Maximum gradient  tolerance     =   0.001000000
  Maximum gradient  component     =   0.010000000

  Symmetry not applied to optimisation

  Cell parameters to be optimised using strains

  Newton-Raphson optimiser to be used

  BFGS hessian update to be used

  Dumpfile to be written after every cycle

  Start of bulk optimisation :

  Cycle:      0 Energy:     -7725.721056  Gnorm:      0.000324  CPU:    2.054
  ** Hessian calculated **
  Cycle:      1 Energy:     -7725.730432  Gnorm:      0.000294  CPU:    6.611
  Cycle:      2 Energy:     -7725.741080  Gnorm:      0.000497  CPU:   10.783
  Cycle:      3 Energy:     -7725.751376  Gnorm:      0.001004  CPU:   14.955
  Cycle:      4 Energy:     -7725.754561  Gnorm:      0.000881  CPU:   19.127
  Cycle:      5 Energy:     -7725.755366  Gnorm:      0.000573  CPU:   23.300
  Cycle:      6 Energy:     -7725.755574  Gnorm:      0.000333  CPU:   27.472
  Cycle:      7 Energy:     -7725.755620  Gnorm:      0.000218  CPU:   30.968
  Cycle:      8 Energy:     -7725.755633  Gnorm:      0.000156  CPU:   33.787
  Cycle:      9 Energy:     -7725.755640  Gnorm:      0.000113  CPU:   36.606
  Cycle:     10 Energy:     -7725.755644  Gnorm:      0.000079  CPU:   39.431
  ** Hessian calculated **
  Cycle:     11 Energy:     -7725.755644  Gnorm:      0.000044  CPU:   43.955
  Cycle:     12 Energy:     -7725.755644  Gnorm:      0.000035  CPU:   46.780
  Cycle:     13 Energy:     -7725.755644  Gnorm:      0.000029  CPU:   49.602


  **** Optimisation achieved ****


  Final energy =   -7725.75564360 eV
  Final Gnorm  =       0.00002526

  Components of energy : 

--------------------------------------------------------------------------------
  Interatomic potentials     =        2061.25874311 eV
  Three-body potentials      =           0.48027235 eV
  Monopole - monopole (real) =       -6611.24347387 eV
  Monopole - monopole (recip)=       -3169.79501355 eV
  Monopole - monopole (total)=       -9781.03848741 eV
  Neutralising energy        =          -6.45617165 eV
--------------------------------------------------------------------------------
  Total lattice energy       =       -7725.75564360 eV
--------------------------------------------------------------------------------
  Total lattice energy       =         -745417.3206 kJ/(mole unit cells)
--------------------------------------------------------------------------------

  Final fractional coordinates of atoms :

--------------------------------------------------------------------------------
   No.  Atomic        x           y          z          Radius
        Label       (Frac)      (Frac)     (Frac)       (Angs) 
--------------------------------------------------------------------------------
     1  Ge    c     0.699600    0.375700    0.033890    0.000000
     2  Si    c     0.596248    0.306287    0.365269    0.000000
     3  Si    c     0.660655    0.285640    0.696818    0.000000
     4  Si    c     0.271866    0.605241    0.528536    0.000000
     5  Si    c     0.362458    0.662388    0.859514    0.000000
     6  Si    c     0.299281    0.693090    0.196312    0.000000
     7  Si    c     0.352557    0.684217    0.296834    0.000000
     8  Si    c     0.307334    0.613304    0.959686    0.000000
     9  Si    c     0.279821    0.664153    0.629082    0.000000
    10  Si    c     0.607064    0.283978    0.797443    0.000000
    11  Si    c     0.651035    0.365834    0.465786    0.000000
    12  Si    c     0.671259    0.308870    0.132061    0.000000
    13  Si    c     0.527393    0.413635    0.965157    0.000000
    14  Si    c     0.560169    0.094356    0.302050    0.000000
    15  Si    c     0.869382    0.458712    0.632334    0.000000
    16  Si    c     0.441822    0.566821    0.462969    0.000000
    17  Si    c     0.402209    0.873185    0.795250    0.000000
    18  Si    c     0.092408    0.522409    0.127802    0.000000
    19  Si    c     0.389583    0.510302    0.361189    0.000000
    20  Si    c     0.096953    0.573423    0.025013    0.000000
    21  Si    c     0.454399    0.876297    0.693593    0.000000
    22  Si    c     0.571221    0.458032    0.862355    0.000000
    23  Si    c     0.863112    0.403657    0.530709    0.000000
    24  Si    c     0.509303    0.102829    0.200526    0.000000
    25  Si    c     0.288660    0.385860    0.846160    0.000000
    26  Si    c     0.578507    0.894609    0.183811    0.000000
    27  Si    c     0.070475    0.682825    0.515291    0.000000
    28  Si    c     0.670864    0.581412    0.348885    0.000000
    29  Si    c     0.382299    0.084410    0.680454    0.000000
    30  Si    c     0.880251    0.287323    0.008581    0.000000
    31  Si    c     0.371560    0.288125    0.478310    0.000000
    32  Si    c     0.877934    0.595282    0.140407    0.000000
    33  Si    c     0.683807    0.082594    0.810878    0.000000
    34  Si    c     0.586035    0.692093    0.975310    0.000000
    35  Si    c     0.079617    0.387328    0.645049    0.000000
    36  Si    c     0.278004    0.885661    0.313921    0.000000
    37  Si    c     0.248208    0.338735    0.946754    0.000000
    38  Si    c     0.635469    0.893162    0.284344    0.000000
    39  Si    c     0.069798    0.736388    0.616004    0.000000
    40  Si    c     0.721789    0.644688    0.449352    0.000000
    41  Si    c     0.325626    0.074635    0.781033    0.000000
    42  Si    c     0.886418    0.239837    0.111868    0.000000
    43  Si    c     0.314016    0.233578    0.377583    0.000000
    44  Si    c     0.894783    0.656109    0.037539    0.000000
    45  Si    c     0.733477    0.077944    0.710166    0.000000
    46  Si    c     0.644419    0.735853    0.874753    0.000000
    47  Si    c     0.064325    0.325328    0.544401    0.000000
    48  Si    c     0.229048    0.901077    0.213398    0.000000
    49  Ge    c     0.967094    0.117745    0.960443    0.000000
    50  Si    c     0.851776    0.826824    0.298338    0.000000
    51  Si    c     0.132527    0.016196    0.629779    0.000000
    52  Si    c     0.002630    0.862884    0.464372    0.000000
    53  Si    c     0.108327    0.136782    0.795104    0.000000
    54  Si    c     0.827787    0.963091    0.133763    0.000000
    55  Si    c     0.097299    0.952430    0.363613    0.000000
    56  Ge    c     0.834612    0.874242    0.030523    0.000000
    57  Si    c     0.013616    0.139896    0.694474    0.000000
    58  Si    c     0.863874    0.010560    0.859312    0.000000
    59  Si    c     0.125232    0.107285    0.529167    0.000000
    60  Si    c     0.948636    0.839984    0.197095    0.000000
    61  O1    c     0.927409    0.014815    0.004576    0.000000
    62  O2    c     0.974924    0.908025    0.330654    0.000000
    63  O2    c     0.052855    0.059764    0.661290    0.000000
    64  O2    c     0.044620    0.985771    0.496302    0.000000
    65  O2    c     0.985364    0.056621    0.826573    0.000000
    66  O2    c     0.909265    0.931547    0.170386    0.000000
    67  O2    c     0.313503    0.558907    0.327956    0.000000
    68  O2    c     0.405858    0.751380    0.660818    0.000000
    69  O2    c     0.221316    0.649309    0.992788    0.000000
    70  O2    c     0.646113    0.406343    0.830442    0.000000
    71  O2    c     0.563620    0.232093    0.170574    0.000000
    72  O2    c     0.734589    0.327245    0.499027    0.000000
    73  O3    c     0.564278    0.335590    0.998356    0.000000
    74  O2    c     0.745466    0.410083    0.665108    0.000000
    75  O2    c     0.636367    0.219084    0.334876    0.000000
    76  O2    c     0.392432    0.643270    0.494819    0.000000
    77  O2    c     0.214426    0.571928    0.162202    0.000000
    78  O2    c     0.324359    0.746420    0.826350    0.000000
    79  O3    c     0.130161    0.212017    0.967666    0.000000
    80  O2    c     0.761686    0.890880    0.303686    0.000000
    81  O2    c     0.070685    0.862853    0.635904    0.000000
    82  O2    c     0.847870    0.772735    0.469138    0.000000
    83  O2    c     0.198767    0.073275    0.800971    0.000000
    84  O2    c     0.890508    0.117916    0.133221    0.000000
    85  O2    c     0.187871    0.105955    0.357502    0.000000
    86  O3    c     0.912638    0.789248    0.019951    0.000000
    87  O2    c     0.859058    0.077951    0.689668    0.000000
    88  O2    c     0.769303    0.857644    0.852306    0.000000
    89  O2    c     0.060789    0.197188    0.524736    0.000000
    90  O2    c     0.103592    0.903842    0.193320    0.000000
    91  O2    c     0.903253    0.834008    0.248160    0.000000
    92  O2    c     0.116594    0.052885    0.579059    0.000000
    93  O3    c     0.918465    0.036747    0.909909    0.000000
    94  O2    c     0.056451    0.125166    0.744350    0.000000
    95  O3    c     0.838701    0.904377    0.087683    0.000000
    96  O2    c     0.044277    0.914735    0.413970    0.000000
    97  O3    c     0.891427    0.205781    0.968045    0.000000
    98  O2    c     0.769153    0.676292    0.310594    0.000000
    99  O2    c     0.284903    0.086692    0.641997    0.000000
   100  O2    c     0.070853    0.780363    0.477113    0.000000
   101  O2    c     0.190663    0.287564    0.807706    0.000000
   102  O2    c     0.675905    0.897376    0.145486    0.000000
   103  O2    c     0.180005    0.883156    0.352300    0.000000
   104  O3    c     0.675263    0.792591    0.014119    0.000000
   105  O2    c     0.083520    0.291391    0.683004    0.000000
   106  O2    c     0.783006    0.083147    0.849356    0.000000
   107  O2    c     0.276204    0.191271    0.516669    0.000000
   108  O2    c     0.880764    0.694007    0.178464    0.000000
   109  O2    c     0.297568    0.631093    0.245674    0.000000
   110  O2    c     0.333740    0.663243    0.578481    0.000000
   111  O2    c     0.301643    0.664374    0.908882    0.000000
   112  O2    c     0.662510    0.341829    0.747345    0.000000
   113  O3    c     0.605621    0.301320    0.084393    0.000000
   114  O2    c     0.653059    0.308702    0.415836    0.000000
   115  O2    c     0.370281    0.329942    0.964418    0.000000
   116  O2    c     0.647179    0.024981    0.303942    0.000000
   117  O2    c     0.938492    0.614649    0.634972    0.000000
   118  O2    c     0.598544    0.654797    0.466366    0.000000
   119  O2    c     0.315175    0.942169    0.798638    0.000000
   120  O2    c     0.017598    0.366886    0.129254    0.000000
   121  O2    c     0.302823    0.354147    0.358193    0.000000
   122  O2    c     0.028789    0.659934    0.024588    0.000000
   123  O2    c     0.611098    0.946102    0.690949    0.000000
   124  O2    c     0.654305    0.613410    0.857255    0.000000
   125  O2    c     0.930701    0.315567    0.526729    0.000000
   126  O2    c     0.352464    0.033433    0.195888    0.000000
   127  O3    c     0.745776    0.279627    0.001557    0.000000
   128  O2    c     0.670709    0.447512    0.341916    0.000000
   129  O2    c     0.517032    0.218088    0.673729    0.000000
   130  O2    c     0.202954    0.680382    0.506783    0.000000
   131  O2    c     0.290168    0.519556    0.836628    0.000000
   132  O2    c     0.442542    0.762943    0.174119    0.000000
   133  O2    c     0.276420    0.750704    0.319369    0.000000
   134  O2    c     0.451581    0.693035    0.981320    0.000000
   135  O2    c     0.214051    0.522035    0.651713    0.000000
   136  O2    c     0.682725    0.215297    0.819226    0.000000
   137  O2    c     0.506759    0.290797    0.486968    0.000000
   138  O2    c     0.748906    0.459043    0.149969    0.000000
   139  O3    c     0.769144    0.540987    0.015894    0.000000
   140  O2    c     0.439731    0.231511    0.359061    0.000000
   141  O2    c     0.735440    0.204849    0.691318    0.000000
   142  O2    c     0.189685    0.449314    0.523981    0.000000
   143  O2    c     0.519036    0.738463    0.855461    0.000000
   144  O2    c     0.223741    0.773693    0.192724    0.000000
   145  O2    c     0.508863    0.766738    0.302721    0.000000
   146  O2    c     0.236768    0.458916    0.966085    0.000000
   147  O2    c     0.197669    0.737626    0.634624    0.000000
   148  O2    c     0.450711    0.200532    0.801518    0.000000
   149  O2    c     0.723490    0.521499    0.470133    0.000000
   150  O2    c     0.762651    0.242927    0.131274    0.000000
   151  O2    c     0.216668    0.315640    0.892567    0.000000
   152  O2    c     0.651968    0.893949    0.230058    0.000000
   153  O2    c     0.068444    0.753731    0.561698    0.000000
   154  O2    c     0.741530    0.658592    0.395090    0.000000
   155  O2    c     0.307622    0.078220    0.726738    0.000000
   156  O2    c     0.885105    0.222533    0.057402    0.000000
   157  O2    c     0.296577    0.216526    0.431834    0.000000
   158  O2    c     0.876612    0.659853    0.092844    0.000000
   159  O2    c     0.753850    0.079144    0.764501    0.000000
   160  O2    c     0.665019    0.760815    0.929179    0.000000
   161  O2    c     0.070845    0.310965    0.598643    0.000000
   162  O2    c     0.209999    0.896443    0.267651    0.000000
   163  O2    c     0.576223    0.556837    0.985992    0.000000
   164  O2    c     0.418947    0.007784    0.324477    0.000000
   165  O2    c     0.955584    0.402873    0.654758    0.000000
   166  O2    c     0.384886    0.426911    0.486302    0.000000
   167  O2    c     0.544015    0.957238    0.818870    0.000000
   168  O2    c     0.002894    0.578031    0.145691    0.000000
   169  O2    c     0.531302    0.567210    0.338757    0.000000
   170  O2    c     0.004178    0.431983    0.004544    0.000000
   171  O2    c     0.396336    0.959855    0.670754    0.000000
   172  O2    c     0.427712    0.396851    0.839767    0.000000
   173  O2    c     0.944154    0.543489    0.506925    0.000000
   174  O2    c     0.567659    0.021817    0.176438    0.000000
   175  O2    c     0.559799    0.150489    0.251973    0.000000
   176  O2    c     0.813008    0.404415    0.581694    0.000000
   177  O2    c     0.579441    0.415809    0.913711    0.000000
   178  O2    c     0.401887    0.822286    0.744082    0.000000
   179  O2    c     0.143562    0.569051    0.076809    0.000000
   180  O2    c     0.388570    0.564401    0.411725    0.000000
   181  F     c     0.427465    0.889248    0.247904    0.000000
   182  F     c     0.074568    0.534366    0.579656    0.000000
   183  F     c     0.435796    0.542309    0.910651    0.000000
   184  F     c     0.533189    0.083426    0.745294    0.000000
   185  F     c     0.846429    0.430483    0.069835    0.000000
   186  F     c     0.521231    0.435497    0.412958    0.000000
   187  O1    s     0.922541    0.011013    0.003180    0.000000
   188  O2    s     0.974835    0.903886    0.330724    0.000000
   189  O2    s     0.057423    0.063826    0.661458    0.000000
   190  O2    s     0.048896    0.985568    0.496392    0.000000
   191  O2    s     0.985666    0.060528    0.826670    0.000000
   192  O2    s     0.904981    0.924823    0.169458    0.000000
   193  O2    s     0.325221    0.566821    0.328124    0.000000
   194  O2    s     0.397836    0.755184    0.660893    0.000000
   195  O2    s     0.216863    0.637714    0.992850    0.000000
   196  O2    s     0.634448    0.398949    0.830266    0.000000
   197  O2    s     0.568999    0.226480    0.169734    0.000000
   198  O2    s     0.739141    0.339141    0.498822    0.000000
   199  O3    s     0.569810    0.347027    0.997235    0.000000
   200  O2    s     0.749630    0.402402    0.664965    0.000000
   201  O2    s     0.624377    0.215038    0.334577    0.000000
   202  O2    s     0.385217    0.631450    0.494975    0.000000
   203  O2    s     0.210079    0.578882    0.162015    0.000000
   204  O2    s     0.336309    0.750969    0.826522    0.000000
   205  O3    s     0.127883    0.216563    0.964944    0.000000
   206  O2    s     0.758058    0.884341    0.301128    0.000000
   207  O2    s     0.077119    0.865981    0.633231    0.000000
   208  O2    s     0.851247    0.769059    0.466612    0.000000
   209  O2    s     0.202261    0.080163    0.798315    0.000000
   210  O2    s     0.883566    0.114566    0.131062    0.000000
   211  O2    s     0.191294    0.102870    0.360190    0.000000
   212  O3    s     0.904541    0.782675    0.022554    0.000000
   213  O2    s     0.862578    0.084583    0.692279    0.000000
   214  O2    s     0.766467    0.861309    0.855321    0.000000
   215  O2    s     0.067957    0.200824    0.527195    0.000000
   216  O2    s     0.100145    0.896783    0.195770    0.000000
   217  O2    s     0.902548    0.833893    0.248082    0.000000
   218  O2    s     0.119364    0.054934    0.579107    0.000000
   219  O3    s     0.916992    0.041038    0.909014    0.000000
   220  O2    s     0.057452    0.128176    0.744423    0.000000
   221  O3    s     0.837106    0.908444    0.088005    0.000000
   222  O2    s     0.045601    0.913171    0.413932    0.000000
   223  O3    s     0.896581    0.206723    0.971477    0.000000
   224  O2    s     0.767897    0.682651    0.313213    0.000000
   225  O2    s     0.278596    0.078974    0.644595    0.000000
   226  O2    s     0.063519    0.779197    0.479658    0.000000
   227  O2    s     0.191913    0.281506    0.810303    0.000000
   228  O2    s     0.681657    0.904010    0.148262    0.000000
   229  O2    s     0.181330    0.890691    0.349563    0.000000
   230  O3    s     0.680085    0.789812    0.011761    0.000000
   231  O2    s     0.075755    0.285226    0.680334    0.000000
   232  O2    s     0.781508    0.075600    0.846566    0.000000
   233  O2    s     0.269905    0.192316    0.514033    0.000000
   234  O2    s     0.887719    0.699299    0.176474    0.000000
   235  O2    s     0.303285    0.642767    0.245800    0.000000
   236  O2    s     0.321934    0.657404    0.578531    0.000000
   237  O2    s     0.308259    0.658979    0.909109    0.000000
   238  O2    s     0.656662    0.330163    0.747273    0.000000
   239  O3    s     0.618441    0.306830    0.086169    0.000000
   240  O2    s     0.646972    0.314342    0.415727    0.000000
   241  O2    s     0.372679    0.339617    0.962457    0.000000
   242  O2    s     0.637063    0.018424    0.301709    0.000000
   243  O2    s     0.945127    0.611384    0.632710    0.000000
   244  O2    s     0.595354    0.644692    0.464219    0.000000
   245  O2    s     0.325216    0.949011    0.796431    0.000000
   246  O2    s     0.011879    0.370023    0.127304    0.000000
   247  O2    s     0.312835    0.357626    0.360509    0.000000
   248  O2    s     0.022447    0.650240    0.025976    0.000000
   249  O2    s     0.607754    0.952716    0.693243    0.000000
   250  O2    s     0.644675    0.610275    0.859633    0.000000
   251  O2    s     0.937726    0.325631    0.528991    0.000000
   252  O2    s     0.355623    0.026737    0.198187    0.000000
   253  O3    s     0.757021    0.286986    0.004602    0.000000
   254  O2    s     0.663078    0.447031    0.345069    0.000000
   255  O2    s     0.517587    0.210953    0.676834    0.000000
   256  O2    s     0.196085    0.672904    0.509949    0.000000
   257  O2    s     0.297436    0.520291    0.839997    0.000000
   258  O2    s     0.441898    0.769427    0.177441    0.000000
   259  O2    s     0.284383    0.758007    0.316452    0.000000
   260  O2    s     0.450274    0.684536    0.978365    0.000000
   261  O2    s     0.206664    0.522439    0.648661    0.000000
   262  O2    s     0.675121    0.208370    0.816097    0.000000
   263  O2    s     0.507390    0.298299    0.483820    0.000000
   264  O2    s     0.755035    0.458927    0.147208    0.000000
   265  O3    s     0.778271    0.542687    0.019331    0.000000
   266  O2    s     0.442412    0.239562    0.361658    0.000000
   267  O2    s     0.727346    0.199461    0.693898    0.000000
   268  O2    s     0.184586    0.452097    0.526625    0.000000
   269  O2    s     0.516252    0.730132    0.857964    0.000000
   270  O2    s     0.232227    0.778905    0.195277    0.000000
   271  O2    s     0.506231    0.771893    0.300148    0.000000
   272  O2    s     0.245407    0.462554    0.963411    0.000000
   273  O2    s     0.192221    0.729761    0.632055    0.000000
   274  O2    s     0.453538    0.195527    0.798894    0.000000
   275  O2    s     0.715651    0.518612    0.467457    0.000000
   276  O2    s     0.767212    0.249214    0.129221    0.000000
   277  O2    s     0.227228    0.325279    0.893185    0.000000
   278  O2    s     0.642422    0.893928    0.230979    0.000000
   279  O2    s     0.068794    0.744417    0.562566    0.000000
   280  O2    s     0.732007    0.649004    0.395990    0.000000
   281  O2    s     0.317372    0.078489    0.727609    0.000000
   282  O2    s     0.884791    0.230352    0.058495    0.000000
   283  O2    s     0.306293    0.225857    0.430931    0.000000
   284  O2    s     0.878361    0.652431    0.092757    0.000000
   285  O2    s     0.744398    0.079370    0.763603    0.000000
   286  O2    s     0.655127    0.751484    0.928222    0.000000
   287  O2    s     0.071065    0.320491    0.597718    0.000000
   288  O2    s     0.219159    0.895826    0.266714    0.000000
   289  O2    s     0.572191    0.557406    0.982700    0.000000
   290  O2    s     0.418545    0.003498    0.320984    0.000000
   291  O2    s     0.960139    0.407212    0.651361    0.000000
   292  O2    s     0.389582    0.426558    0.482985    0.000000
   293  O2    s     0.544332    0.962192    0.815547    0.000000
   294  O2    s     0.999079    0.573794    0.143196    0.000000
   295  O2    s     0.531456    0.562612    0.342192    0.000000
   296  O2    s     0.001559    0.432767    0.007234    0.000000
   297  O2    s     0.401039    0.964713    0.674173    0.000000
   298  O2    s     0.427612    0.402170    0.842805    0.000000
   299  O2    s     0.949510    0.543972    0.510295    0.000000
   300  O2    s     0.562540    0.016507    0.179759    0.000000
   301  O2    s     0.554475    0.139584    0.251755    0.000000
   302  O2    s     0.824091    0.409964    0.581619    0.000000
   303  O2    s     0.573475    0.420138    0.913315    0.000000
   304  O2    s     0.407390    0.833202    0.744135    0.000000
   305  O2    s     0.133544    0.564620    0.076911    0.000000
   306  O2    s     0.394156    0.559055    0.411776    0.000000
   307  F     s     0.427179    0.888777    0.247794    0.000000
   308  F     s     0.074969    0.534539    0.579597    0.000000
   309  F     s     0.435089    0.542797    0.910611    0.000000
   310  F     s     0.533410    0.083836    0.745242    0.000000
   311  F     s     0.835510    0.426499    0.067273    0.000000
   312  F     s     0.521436    0.435306    0.412881    0.000000
--------------------------------------------------------------------------------

  Final Cartesian lattice vectors (Angstroms) :

       11.949858    0.004649   -0.000765
       -6.034748   10.398255    0.016636
       -0.257801   -0.249558   29.475003


  Final cell parameters and derivatives :

--------------------------------------------------------------------------------
       a           11.949859 Angstrom     dE/de1(xx)     0.000431 eV/strain
       b           12.022569 Angstrom     dE/de2(yy)     0.000247 eV/strain
       c           29.477187 Angstrom     dE/de3(zz)     0.000493 eV/strain
       alpha       90.088736 Degrees      dE/de4(yz)    -0.000115 eV/strain
       beta        90.504958 Degrees      dE/de5(xz)    -0.000054 eV/strain
       gamma      120.106917 Degrees      dE/de6(xy)     0.000134 eV/strain
--------------------------------------------------------------------------------

  Primitive cell volume =          3663.368699 Angs**3

  Density of cell =      1.746505 g/cm**3

  Non-primitive cell volume =          3663.368699 Angs**3


  Final internal derivatives :

--------------------------------------------------------------------------------
   No.  Atomic          a             b             c           Radius
        Label          (eV)          (eV)          (eV)        (eV/Angs)
--------------------------------------------------------------------------------
      1 Ge    c       0.000000      0.000000      0.000000      0.000000
      2 Si    c       0.000024      0.000199      0.000192      0.000000
      3 Si    c       0.000044      0.000135     -0.000305      0.000000
      4 Si    c       0.000179     -0.000024     -0.000018      0.000000
      5 Si    c       0.000457     -0.000316      0.000022      0.000000
      6 Si    c       0.000326      0.000029      0.000415      0.000000
      7 Si    c       0.000215      0.000071     -0.000060      0.000000
      8 Si    c       0.000680     -0.000312     -0.000542      0.000000
      9 Si    c       0.000095     -0.000082     -0.000207      0.000000
     10 Si    c      -0.000149     -0.000074     -0.000689      0.000000
     11 Si    c       0.000046      0.000115      0.000007      0.000000
     12 Si    c      -0.000138      0.000241      0.001236      0.000000
     13 Si    c      -0.000627      0.001097     -0.002369      0.000000
     14 Si    c      -0.000051      0.000039     -0.000103      0.000000
     15 Si    c       0.000002     -0.000049     -0.000133      0.000000
     16 Si    c       0.000210      0.000005     -0.000047      0.000000
     17 Si    c       0.000169     -0.000121     -0.000130      0.000000
     18 Si    c       0.000532      0.000013      0.000385      0.000000
     19 Si    c       0.000232      0.000092      0.000008      0.000000
     20 Si    c      -0.000110     -0.000336      0.000199      0.000000
     21 Si    c       0.000156     -0.000019      0.000231      0.000000
     22 Si    c      -0.000480      0.000563     -0.000611      0.000000
     23 Si    c       0.000091      0.000108      0.000024      0.000000
     24 Si    c      -0.000141     -0.000080      0.000580      0.000000
     25 Si    c       0.000281      0.000055      0.000670      0.000000
     26 Si    c       0.000103     -0.000122      0.000165      0.000000
     27 Si    c       0.000109      0.000086     -0.000066      0.000000
     28 Si    c       0.000161      0.000221      0.000002      0.000000
     29 Si    c      -0.000029      0.000080      0.000069      0.000000
     30 Si    c      -0.000072      0.000712      0.002177      0.000000
     31 Si    c       0.000062      0.000016     -0.000045      0.000000
     32 Si    c      -0.000148      0.000455     -0.000147      0.000000
     33 Si    c      -0.000033     -0.000135     -0.000455      0.000000
     34 Si    c      -0.000128     -0.000048     -0.001123      0.000000
     35 Si    c       0.000082     -0.000045     -0.000168      0.000000
     36 Si    c       0.000144      0.000152     -0.000193      0.000000
     37 Si    c       0.000005      0.000016     -0.000111      0.000000
     38 Si    c       0.000072     -0.000001     -0.000242      0.000000
     39 Si    c       0.000042     -0.000099     -0.000317      0.000000
     40 Si    c       0.000106      0.000037     -0.000222      0.000000
     41 Si    c      -0.000046      0.000101     -0.000148      0.000000
     42 Si    c       0.000320     -0.000221      0.000450      0.000000
     43 Si    c       0.000199      0.000086      0.000210      0.000000
     44 Si    c      -0.000525     -0.000821     -0.000925      0.000000
     45 Si    c       0.000095     -0.000087      0.000004      0.000000
     46 Si    c       0.000039     -0.000069      0.000210      0.000000
     47 Si    c       0.000151      0.000087      0.000172      0.000000
     48 Si    c       0.000038      0.000104      0.000226      0.000000
     49 Ge    c      -0.000188      0.001050     -0.001592      0.000000
     50 Si    c       0.000121      0.000070     -0.000174      0.000000
     51 Si    c       0.000078      0.000037     -0.000210      0.000000
     52 Si    c       0.000089      0.000028     -0.000272      0.000000
     53 Si    c       0.000240      0.000038     -0.000000      0.000000
     54 Si    c       0.000049      0.000178      0.001787      0.000000
     55 Si    c       0.000134      0.000070      0.000133      0.000000
     56 Ge    c      -0.000652     -0.001270      0.001301      0.000000
     57 Si    c       0.000037      0.000048     -0.000172      0.000000
     58 Si    c      -0.000093     -0.000035     -0.002589      0.000000
     59 Si    c       0.000183      0.000134      0.000085      0.000000
     60 Si    c       0.000111      0.000139      0.000038      0.000000
     61 O1    c       0.003189     -0.001039      0.004734      0.000000
     62 O2    c       0.000223      0.000053      0.000067      0.000000
     63 O2    c       0.000044     -0.000027     -0.000098      0.000000
     64 O2    c       0.000200      0.000021      0.000055      0.000000
     65 O2    c       0.000087     -0.000160     -0.000573      0.000000
     66 O2    c       0.000062     -0.000054      0.000107      0.000000
     67 O2    c       0.000318      0.000161     -0.000093      0.000000
     68 O2    c      -0.000072      0.000031     -0.000033      0.000000
     69 O2    c       0.000093      0.000023     -0.000356      0.000000
     70 O2    c       0.000074     -0.000058     -0.000251      0.000000
     71 O2    c      -0.000171     -0.000137      0.000940      0.000000
     72 O2    c       0.000130      0.000255     -0.000001      0.000000
     73 O3    c      -0.001670      0.000073      0.000298      0.000000
     74 O2    c       0.000201     -0.000165      0.000015      0.000000
     75 O2    c      -0.000078      0.000127     -0.000009      0.000000
     76 O2    c       0.000102     -0.000130      0.000081      0.000000
     77 O2    c       0.000169      0.000002      0.000059      0.000000
     78 O2    c       0.000143      0.000078     -0.000468      0.000000
     79 O3    c       0.003053     -0.000350      0.000257      0.000000
     80 O2    c       0.000070      0.000045     -0.000332      0.000000
     81 O2    c       0.000138     -0.000077     -0.000330      0.000000
     82 O2    c       0.000304     -0.000050     -0.000266      0.000000
     83 O2    c       0.000273     -0.000016     -0.000310      0.000000
     84 O2    c       0.000024      0.000071      0.000256      0.000000
     85 O2    c       0.000210      0.000029      0.000304      0.000000
     86 O3    c       0.002322     -0.001702     -0.001687      0.000000
     87 O2    c      -0.000032      0.000042      0.000210      0.000000
     88 O2    c      -0.000024     -0.000171      0.000081      0.000000
     89 O2    c       0.000248      0.000073      0.000351      0.000000
     90 O2    c       0.000087     -0.000035      0.000504      0.000000
     91 O2    c       0.000114      0.000083     -0.000233      0.000000
     92 O2    c       0.000065      0.000067     -0.000123      0.000000
     93 O3    c       0.000415     -0.001997     -0.008602      0.000000
     94 O2    c      -0.000006      0.000004     -0.000308      0.000000
     95 O3    c       0.000211      0.000577      0.005910      0.000000
     96 O2    c       0.000151      0.000001      0.000002      0.000000
     97 O3    c      -0.004910      0.003661     -0.002603      0.000000
     98 O2    c       0.000013      0.000157      0.000471      0.000000
     99 O2    c       0.000047     -0.000097      0.000316      0.000000
    100 O2    c       0.000041      0.000031      0.000427      0.000000
    101 O2    c       0.000122      0.000042      0.000275      0.000000
    102 O2    c       0.000105      0.000019      0.000420      0.000000
    103 O2    c       0.000206      0.000153     -0.000395      0.000000
    104 O3    c      -0.003138      0.000451     -0.000683      0.000000
    105 O2    c      -0.000065      0.000032     -0.000457      0.000000
    106 O2    c      -0.000165      0.000099     -0.000404      0.000000
    107 O2    c       0.000017      0.000136     -0.000375      0.000000
    108 O2    c       0.000029      0.000181      0.000376      0.000000
    109 O2    c       0.000144      0.000173      0.000006      0.000000
    110 O2    c      -0.000053     -0.000062      0.000114      0.000000
    111 O2    c       0.000529     -0.000472     -0.000831      0.000000
    112 O2    c      -0.000002     -0.000082     -0.000172      0.000000
    113 O3    c      -0.000291     -0.000366      0.000732      0.000000
    114 O2    c      -0.000032      0.000213     -0.000044      0.000000
    115 O2    c      -0.001069      0.000376     -0.000464      0.000000
    116 O2    c       0.000011      0.000066     -0.000162      0.000000
    117 O2    c       0.000209     -0.000070     -0.000292      0.000000
    118 O2    c       0.000168     -0.000083     -0.000157      0.000000
    119 O2    c       0.000104      0.000121     -0.000283      0.000000
    120 O2    c       0.000393      0.000078      0.000244      0.000000
    121 O2    c       0.000300      0.000052      0.000259      0.000000
    122 O2    c       0.000226      0.000495     -0.000236      0.000000
    123 O2    c      -0.000048      0.000045      0.000209      0.000000
    124 O2    c      -0.000304      0.000071      0.000516      0.000000
    125 O2    c       0.000231      0.000148      0.000223      0.000000
    126 O2    c       0.000136     -0.000072      0.000436      0.000000
    127 O3    c      -0.000051     -0.000283     -0.000154      0.000000
    128 O2    c      -0.000028      0.000176      0.000362      0.000000
    129 O2    c       0.000058     -0.000106      0.000311      0.000000
    130 O2    c       0.000036     -0.000061      0.000389      0.000000
    131 O2    c       0.000318     -0.000221      0.000409      0.000000
    132 O2    c       0.000138      0.000049      0.000455      0.000000
    133 O2    c       0.000237      0.000211     -0.000327      0.000000
    134 O2    c       0.000719     -0.000464     -0.000151      0.000000
    135 O2    c      -0.000041      0.000029     -0.000375      0.000000
    136 O2    c       0.000067     -0.000042     -0.000264      0.000000
    137 O2    c       0.000175      0.000203     -0.000374      0.000000
    138 O2    c      -0.000136      0.000339      0.000244      0.000000
    139 O3    c      -0.000453     -0.000865      0.000177      0.000000
    140 O2    c       0.000197      0.000173      0.000243      0.000000
    141 O2    c      -0.000027     -0.000099      0.000222      0.000000
    142 O2    c       0.000009      0.000070      0.000339      0.000000
    143 O2    c       0.000132     -0.000351      0.000361      0.000000
    144 O2    c       0.000221      0.000080      0.000325      0.000000
    145 O2    c       0.000084      0.000173     -0.000283      0.000000
    146 O2    c       0.000322      0.000101     -0.000360      0.000000
    147 O2    c      -0.000008     -0.000072     -0.000257      0.000000
    148 O2    c       0.000058     -0.000015     -0.000281      0.000000
    149 O2    c       0.000010      0.000110     -0.000246      0.000000
    150 O2    c       0.000145     -0.000237      0.000211      0.000000
    151 O2    c       0.000360      0.000075     -0.000055      0.000000
    152 O2    c      -0.000022      0.000081      0.000034      0.000000
    153 O2    c       0.000120     -0.000129      0.000268      0.000000
    154 O2    c       0.000016     -0.000053      0.000195      0.000000
    155 O2    c       0.000127     -0.000005      0.000215      0.000000
    156 O2    c       0.000007     -0.000289      0.000325      0.000000
    157 O2    c       0.000242      0.000164     -0.000248      0.000000
    158 O2    c      -0.000067      0.000366      0.000578      0.000000
    159 O2    c      -0.000047     -0.000015     -0.000094      0.000000
    160 O2    c      -0.000146     -0.000226      0.000190      0.000000
    161 O2    c       0.000062      0.000126     -0.000278      0.000000
    162 O2    c       0.000261      0.000006     -0.000273      0.000000
    163 O2    c      -0.000344      0.000618     -0.000541      0.000000
    164 O2    c       0.000174      0.000024     -0.000414      0.000000
    165 O2    c       0.000165      0.000025     -0.000404      0.000000
    166 O2    c       0.000192      0.000154     -0.000355      0.000000
    167 O2    c       0.000153     -0.000032     -0.000330      0.000000
    168 O2    c       0.000225     -0.000015      0.000295      0.000000
    169 O2    c       0.000222     -0.000033      0.000458      0.000000
    170 O2    c       0.000350     -0.000047     -0.000140      0.000000
    171 O2    c       0.000087     -0.000005      0.000210      0.000000
    172 O2    c      -0.000172      0.000253      0.000647      0.000000
    173 O2    c       0.000191     -0.000025      0.000407      0.000000
    174 O2    c       0.000147     -0.000084      0.000303      0.000000
    175 O2    c       0.000061     -0.000035      0.000162      0.000000
    176 O2    c       0.000227      0.000060     -0.000078      0.000000
    177 O2    c      -0.000403      0.000720     -0.002170      0.000000
    178 O2    c       0.000131      0.000067     -0.000150      0.000000
    179 O2    c       0.000377     -0.000189      0.000712      0.000000
    180 O2    c       0.000272     -0.000062      0.000160      0.000000
    181 F     c       0.000137      0.000018      0.000009      0.000000
    182 F     c       0.000099     -0.000004     -0.000031      0.000000
    183 F     c       0.000146     -0.000152      0.000021      0.000000
    184 F     c       0.000043      0.000002     -0.000086      0.000000
    185 F     c      -0.000205      0.000154     -0.000666      0.000000
    186 F     c       0.000170      0.000084      0.000009      0.000000
    187 O1    s       0.003562     -0.001716      0.006628      0.000000
    188 O2    s       0.000212      0.000139      0.000107      0.000000
    189 O2    s       0.000024      0.000042     -0.000181      0.000000
    190 O2    s       0.000381      0.000031     -0.000059      0.000000
    191 O2    s      -0.000042     -0.000180     -0.001080      0.000000
    192 O2    s       0.000115      0.000074      0.000644      0.000000
    193 O2    s       0.000428      0.000174     -0.000100      0.000000
    194 O2    s      -0.000253      0.000238     -0.000071      0.000000
    195 O2    s      -0.000111      0.000396     -0.000893      0.000000
    196 O2    s       0.000042     -0.000048      0.000229      0.000000
    197 O2    s       0.000354     -0.000484      0.001510      0.000000
    198 O2    s       0.000185      0.000241      0.000021      0.000000
    199 O3    s       0.000561     -0.000227      0.000669      0.000000
    200 O2    s       0.000317     -0.000388      0.000063      0.000000
    201 O2    s       0.000012      0.000076     -0.000094      0.000000
    202 O2    s       0.000132     -0.000046      0.000037      0.000000
    203 O2    s      -0.000028      0.000351      0.000225      0.000000
    204 O2    s       0.000032      0.000264     -0.000140      0.000000
    205 O3    s       0.003262      0.001326     -0.001152      0.000000
    206 O2    s       0.000078      0.000059     -0.000533      0.000000
    207 O2    s       0.000313     -0.000115     -0.000549      0.000000
    208 O2    s       0.000344     -0.000049     -0.000559      0.000000
    209 O2    s       0.000283     -0.000059     -0.000337      0.000000
    210 O2    s      -0.000100      0.000052      0.001223      0.000000
    211 O2    s       0.000300      0.000005      0.000529      0.000000
    212 O3    s       0.002695     -0.003419     -0.001692      0.000000
    213 O2    s      -0.000090      0.000155      0.000099      0.000000
    214 O2    s      -0.000171     -0.000081     -0.000596      0.000000
    215 O2    s       0.000276      0.000080      0.000412      0.000000
    216 O2    s       0.000178     -0.000055      0.000589      0.000000
    217 O2    s       0.000206      0.000187      0.000083      0.000000
    218 O2    s       0.000266      0.000077     -0.000116      0.000000
    219 O3    s       0.000179     -0.001264     -0.006677      0.000000
    220 O2    s       0.000019      0.000070     -0.000343      0.000000
    221 O3    s      -0.000357      0.000171      0.003907      0.000000
    222 O2    s       0.000293     -0.000052      0.000062      0.000000
    223 O3    s      -0.004784      0.004082     -0.002529      0.000000
    224 O2    s       0.000080      0.000116      0.000595      0.000000
    225 O2    s       0.000147     -0.000195      0.000214      0.000000
    226 O2    s       0.000109      0.000028      0.000356      0.000000
    227 O2    s       0.000135      0.000098      0.000273      0.000000
    228 O2    s      -0.000051      0.000327      0.000982      0.000000
    229 O2    s       0.000210      0.000150     -0.000384      0.000000
    230 O3    s      -0.003844      0.000734      0.000054      0.000000
    231 O2    s      -0.000183      0.000092     -0.000549      0.000000
    232 O2    s      -0.000144      0.000182     -0.000584      0.000000
    233 O2    s       0.000111      0.000152     -0.000410      0.000000
    234 O2    s       0.000440      0.000131      0.000923      0.000000
    235 O2    s       0.000186      0.000341      0.000081      0.000000
    236 O2    s      -0.000191      0.000142      0.000058      0.000000
    237 O2    s      -0.000081      0.000432     -0.000915      0.000000
    238 O2    s       0.000252     -0.000342     -0.000081      0.000000
    239 O3    s       0.000016     -0.000083     -0.000077      0.000000
    240 O2    s      -0.000003      0.000326      0.000035      0.000000
    241 O2    s      -0.000267      0.000228     -0.000815      0.000000
    242 O2    s       0.000002      0.000066     -0.000420      0.000000
    243 O2    s       0.000381     -0.000243     -0.000405      0.000000
    244 O2    s       0.000173     -0.000039     -0.000286      0.000000
    245 O2    s       0.000329     -0.000012     -0.000392      0.000000
    246 O2    s      -0.000116      0.000407      0.000490      0.000000
    247 O2    s       0.000443      0.000027      0.000362      0.000000
    248 O2    s       0.000031     -0.000185     -0.000188      0.000000
    249 O2    s      -0.000186      0.000326      0.000288      0.000000
    250 O2    s       0.000439     -0.000383     -0.000453      0.000000
    251 O2    s       0.000154      0.000179      0.000377      0.000000
    252 O2    s       0.000362     -0.000267      0.000598      0.000000
    253 O3    s       0.000290      0.000161      0.001158      0.000000
    254 O2    s       0.000045      0.000190      0.000464      0.000000
    255 O2    s       0.000286     -0.000307      0.000437      0.000000
    256 O2    s       0.000081     -0.000015      0.000619      0.000000
    257 O2    s      -0.000250      0.000206     -0.000412      0.000000
    258 O2    s      -0.000013      0.000365      0.000660      0.000000
    259 O2    s       0.000273      0.000180     -0.000607      0.000000
    260 O2    s       0.000177      0.000289      0.000019      0.000000
    261 O2    s      -0.000217      0.000160     -0.000505      0.000000
    262 O2    s      -0.000139     -0.000054     -0.000538      0.000000
    263 O2    s       0.000093      0.000228     -0.000487      0.000000
    264 O2    s       0.000500     -0.000475      0.000855      0.000000
    265 O3    s       0.000340     -0.000770      0.000387      0.000000
    266 O2    s       0.000133      0.000280      0.000438      0.000000
    267 O2    s      -0.000098     -0.000001      0.000425      0.000000
    268 O2    s      -0.000020      0.000174      0.000457      0.000000
    269 O2    s      -0.000198      0.000363     -0.000110      0.000000
    270 O2    s       0.000259      0.000137      0.000354      0.000000
    271 O2    s       0.000025      0.000254     -0.000476      0.000000
    272 O2    s      -0.000330      0.000510     -0.000377      0.000000
    273 O2    s       0.000052     -0.000143     -0.000517      0.000000
    274 O2    s       0.000371     -0.000354     -0.000276      0.000000
    275 O2    s       0.000112      0.000061     -0.000364      0.000000
    276 O2    s      -0.000047      0.000019      0.000981      0.000000
    277 O2    s      -0.000144      0.000191     -0.000538      0.000000
    278 O2    s      -0.000080      0.000257      0.000154      0.000000
    279 O2    s       0.000375     -0.000301      0.000157      0.000000
    280 O2    s       0.000121      0.000002      0.000112      0.000000
    281 O2    s       0.000443     -0.000279      0.000165      0.000000
    282 O2    s      -0.000357      0.000213      0.000615      0.000000
    283 O2    s       0.000399      0.000200     -0.000089      0.000000
    284 O2    s       0.000338     -0.000383      0.001262      0.000000
    285 O2    s      -0.000314      0.000237     -0.000115      0.000000
    286 O2    s      -0.000392     -0.000107      0.000278      0.000000
    287 O2    s      -0.000064      0.000309     -0.000196      0.000000
    288 O2    s       0.000515     -0.000039     -0.000149      0.000000
    289 O2    s      -0.000109      0.000109     -0.000983      0.000000
    290 O2    s       0.000204      0.000017     -0.000711      0.000000
    291 O2    s       0.000085      0.000007     -0.000683      0.000000
    292 O2    s       0.000349      0.000066     -0.000564      0.000000
    293 O2    s      -0.000181      0.000355     -0.000415      0.000000
    294 O2    s       0.000298     -0.000089     -0.000023      0.000000
    295 O2    s       0.000214      0.000045      0.000661      0.000000
    296 O2    s       0.000089      0.000319      0.001072      0.000000
    297 O2    s       0.000138      0.000022      0.000584      0.000000
    298 O2    s       0.000398     -0.000378     -0.000612      0.000000
    299 O2    s       0.000325     -0.000061      0.000600      0.000000
    300 O2    s       0.000090     -0.000019      0.000608      0.000000
    301 O2    s       0.000229     -0.000237      0.000086      0.000000
    302 O2    s       0.000417     -0.000071      0.000014      0.000000
    303 O2    s       0.000563     -0.000049     -0.001825      0.000000
    304 O2    s      -0.000062      0.000384     -0.000020      0.000000
    305 O2    s      -0.000287      0.000246      0.000804      0.000000
    306 O2    s       0.000492     -0.000066      0.000100      0.000000
    307 F     s       0.000145      0.000049     -0.000114      0.000000
    308 F     s       0.000090      0.000010      0.000030      0.000000
    309 F     s       0.000052     -0.000022      0.000049      0.000000
    310 F     s       0.000053      0.000017      0.000047      0.000000
    311 F     s       0.000158     -0.000252     -0.000902      0.000000
    312 F     s       0.000186      0.000093      0.000018      0.000000
--------------------------------------------------------------------------------
  Maximum abs         0.004910      0.004082      0.008602      0.000000
--------------------------------------------------------------------------------


  Time to end of optimisation =      52.4243 seconds


  Peak dynamic memory used =      19.13 MB 


  Timing analysis for GULP :

--------------------------------------------------------------------------------
  Task / Subroutine                                          Time (Seconds)
--------------------------------------------------------------------------------
  Calculation of reciprocal space energy and derivatives          1.3905
  Calculation of real space energy and derivatives               45.4917
  Calculation of three-body energy and derivatives                4.6984
  Calculation of matrix inversion                                 0.7447
  Global summation overhead                                       0.0001
--------------------------------------------------------------------------------
  Total CPU time                                                 52.4243
--------------------------------------------------------------------------------


  Dump file written as out.res                                                 
  CIF file written as out.cif                                                 


  Job Finished at 07:42.12 12th November   2016                               

