********************************************************************************
*                       GENERAL UTILITY LATTICE PROGRAM                        *
*                                 Julian Gale                                  *
*                      Nanochemistry Research Institute                        *
*                           Department of Chemistry                            *
*                    Curtin University, Western Australia                      *
********************************************************************************
* Version = 4.2.0 * Last modified =  20th January 2014                         *
********************************************************************************
*  optimise     - perform optimisation run                                     *
*  conp         - constant pressure calculation                                *
*  qok          - running with non charge neutral cell is OK                   *
********************************************************************************

  Job Started  at 16:44.42 12th November   2016                               

  Number of CPUs =     1


  Total number of configurations input =   1

********************************************************************************
*  Input for Configuration =   1                                               *
********************************************************************************

  Formula = Ge3Si57O120F6                                               

  Number of irreducible atoms/shells =     312


  Total number atoms/shells =     312

  Dimensionality = 3               :  Bulk   


  Charge on solid   =  -6.000000 =>neutralising background added


  Cartesian lattice vectors (Angstroms) :

       11.940163    0.000000    0.000000
       -6.048529   10.407301    0.000000
       -0.177769   -0.158829   29.496729

  Cell parameters (Angstroms/Degrees):

  a =      11.9402    alpha =  90.0932
  b =      12.0373    beta  =  90.3453
  c =      29.4977    gamma = 120.1644

  Initial cell volume =        3665.407088 Angs**3

  Temperature of configuration =  0.000     K 

  Pressure of configuration =         0.000 GPa 

  Fractional coordinates of asymmetric unit :

--------------------------------------------------------------------------------
   No.  Atomic       x           y          z         Charge      Occupancy
        Label      (Frac)      (Frac)     (Frac)        (e)         (Frac)  
--------------------------------------------------------------------------------
      1 Ge    c    0.699600    0.375700    0.033890     4.00000    1.000000    
      2 Si    c    0.621591 *  0.323687 *  0.364590 *   4.00000    1.000000    
      3 Si    c    0.677263 *  0.298181 *  0.699342 *   4.00000    1.000000    
      4 Si    c    0.298175 *  0.623672 *  0.531631 *   4.00000    1.000000    
      5 Si    c    0.376988 *  0.675269 *  0.862892 *   4.00000    1.000000    
      6 Si    c    0.318828 *  0.703702 *  0.196116 *   4.00000    1.000000    
      7 Si    c    0.375603 *  0.698589 *  0.296606 *   4.00000    1.000000    
      8 Si    c    0.319016 *  0.621227 *  0.962748 *   4.00000    1.000000    
      9 Si    c    0.298193 *  0.676274 *  0.632255 *   4.00000    1.000000    
     10 Si    c    0.622323 *  0.297618 *  0.799917 *   4.00000    1.000000    
     11 Si    c    0.675116 *  0.378550 *  0.465133 *   4.00000    1.000000    
     12 Si    c    0.684695 *  0.316905 *  0.132420 *   4.00000    1.000000    
     13 Si    c    0.529442 *  0.419063 *  0.966548 *   4.00000    1.000000    
     14 Si    c    0.583460 *  0.110454 *  0.301300 *   4.00000    1.000000    
     15 Si    c    0.886008 *  0.470290 *  0.633924 *   4.00000    1.000000    
     16 Si    c    0.461204 *  0.580743 *  0.464021 *   4.00000    1.000000    
     17 Si    c    0.416356 *  0.886540 *  0.798964 *   4.00000    1.000000    
     18 Si    c    0.107119 *  0.531885 *  0.128827 *   4.00000    1.000000    
     19 Si    c    0.414127 *  0.527580 *  0.362160 *   4.00000    1.000000    
     20 Si    c    0.102287 *  0.580260 *  0.025524 *   4.00000    1.000000    
     21 Si    c    0.469311 *  0.887609 *  0.697436 *   4.00000    1.000000    
     22 Si    c    0.583146 *  0.470169 *  0.864449 *   4.00000    1.000000    
     23 Si    c    0.883266 *  0.421152 *  0.532172 *   4.00000    1.000000    
     24 Si    c    0.527015 *  0.110957 *  0.200185 *   4.00000    1.000000    
     25 Si    c    0.301349 *  0.399307 *  0.848967 *   4.00000    1.000000    
     26 Si    c    0.599114 *  0.905391 *  0.182845 *   4.00000    1.000000    
     27 Si    c    0.095473 *  0.699292 *  0.517606 *   4.00000    1.000000    
     28 Si    c    0.697309 *  0.600531 *  0.349300 *   4.00000    1.000000    
     29 Si    c    0.398665 *  0.096035 *  0.684080 *   4.00000    1.000000    
     30 Si    c    0.888674 *  0.293090 *  0.011162 *   4.00000    1.000000    
     31 Si    c    0.396613 *  0.303453 *  0.478842 *   4.00000    1.000000    
     32 Si    c    0.890933 *  0.601271 *  0.141704 *   4.00000    1.000000    
     33 Si    c    0.698453 *  0.096243 *  0.813841 *   4.00000    1.000000    
     34 Si    c    0.597855 *  0.699351 *  0.978651 *   4.00000    1.000000    
     35 Si    c    0.096615 *  0.398319 *  0.647306 *   4.00000    1.000000    
     36 Si    c    0.301564 *  0.900230 *  0.313191 *   4.00000    1.000000    
     37 Si    c    0.249458 *  0.342666 *  0.949024 *   4.00000    1.000000    
     38 Si    c    0.658168 *  0.909183 *  0.283414 *   4.00000    1.000000    
     39 Si    c    0.088140 *  0.748530 *  0.618321 *   4.00000    1.000000    
     40 Si    c    0.739765 *  0.654636 *  0.450211 *   4.00000    1.000000    
     41 Si    c    0.340027 *  0.087962 *  0.784358 *   4.00000    1.000000    
     42 Si    c    0.901995 *  0.250222 *  0.114098 *   4.00000    1.000000    
     43 Si    c    0.338707 *  0.250430 *  0.378187 *   4.00000    1.000000    
     44 Si    c    0.897429 *  0.659607 *  0.039305 *   4.00000    1.000000    
     45 Si    c    0.748606 *  0.089954 *  0.713332 *   4.00000    1.000000    
     46 Si    c    0.658622 *  0.747942 *  0.878219 *   4.00000    1.000000    
     47 Si    c    0.086111 *  0.346468 *  0.546351 *   4.00000    1.000000    
     48 Si    c    0.246572 *  0.910266 *  0.213071 *   4.00000    1.000000    
     49 Si    c    0.972004 *  0.121529 *  0.963745 *   4.00000    1.000000    
     50 Si    c    0.875286 *  0.845445 *  0.296453 *   4.00000    1.000000    
     51 Si    c    0.148150 *  0.025729 *  0.634190 *   4.00000    1.000000    
     52 Ge    c    0.022968 *  0.874787 *  0.463599 *   4.00000    1.000000    
     53 Si    c    0.122030 *  0.150034 *  0.798800 *   4.00000    1.000000    
     54 Si    c    0.846092 *  0.974110 *  0.130792 *   4.00000    1.000000    
     55 Si    c    0.121353 *  0.970463 *  0.360792 *   4.00000    1.000000    
     56 Si    c    0.847130 *  0.882855 *  0.029532 *   4.00000    1.000000    
     57 Si    c    0.028462 *  0.150836 *  0.697967 *   4.00000    1.000000    
     58 Si    c    0.878323 *  0.025856 *  0.863398 *   4.00000    1.000000    
     59 Ge    c    0.148193 *  0.126800 *  0.531768 *   4.00000    1.000000    
     60 Si    c    0.965602 *  0.849509 *  0.194956 *   4.00000    1.000000    
     61 O2    c    0.929189 *  0.006248 *  0.998740 *   0.87073    1.000000    
     62 O2    c    0.005553 *  0.930736 *  0.324774 *   0.87073    1.000000    
     63 O2    c    0.068286 *  0.068685 *  0.666198 *   0.87073    1.000000    
     64 O1    c    0.059293 *  0.005719 *  0.495006 *   1.73396    1.000000    
     65 O2    c    0.999636 *  0.068747 *  0.830711 *   0.87073    1.000000    
     66 O2    c    0.929995 *  0.936046 *  0.163314 *   0.87073    1.000000    
     67 O2    c    0.338218 *  0.574965 *  0.328394 *   0.87073    1.000000    
     68 O2    c    0.421667 *  0.762291 *  0.665073 *   0.87073    1.000000    
     69 O2    c    0.229864 *  0.656607 *  0.994545 *   0.87073    1.000000    
     70 O2    c    0.659925 *  0.419891 *  0.832762 *   0.87073    1.000000    
     71 O2    c    0.576888 *  0.239807 *  0.170678 *   0.87073    1.000000    
     72 O2    c    0.758366 *  0.342001 *  0.499168 *   0.87073    1.000000    
     73 O3    c    0.566418 *  0.337868 *  0.998790 *   1.33043    1.000000    
     74 O2    c    0.762025 *  0.421323 *  0.666946 *   0.87073    1.000000    
     75 O2    c    0.660242 *  0.236706 *  0.333357 *   0.87073    1.000000    
     76 O2    c    0.416820 *  0.659474 *  0.497002 *   0.87073    1.000000    
     77 O2    c    0.232588 *  0.583595 *  0.161774 *   0.87073    1.000000    
     78 O2    c    0.338986 *  0.760369 *  0.830358 *   0.87073    1.000000    
     79 O2    c    0.125817 *  0.215054 *  0.969454 *   0.87073    1.000000    
     80 O2    c    0.784301 *  0.907943 *  0.303438 *   0.87073    1.000000    
     81 O2    c    0.087585 *  0.872249 *  0.639910 *   0.87073    1.000000    
     82 O3    c    0.859849 *  0.777247 *  0.472470 *   1.33043    1.000000    
     83 O2    c    0.213386 *  0.087432 *  0.804224 *   0.87073    1.000000    
     84 O2    c    0.906534 *  0.127980 *  0.135063 *   0.87073    1.000000    
     85 O2    c    0.214058 *  0.124572 *  0.356815 *   0.87073    1.000000    
     86 O2    c    0.914837 *  0.797076 *  0.023737 *   0.87073    1.000000    
     87 O2    c    0.873928 *  0.089457 *  0.692610 *   0.87073    1.000000    
     88 O2    c    0.785731 *  0.872411 *  0.857785 *   0.87073    1.000000    
     89 O3    c    0.081559 *  0.223019 *  0.524855 *   1.33043    1.000000    
     90 O2    c    0.120775 *  0.912090 *  0.192947 *   0.87073    1.000000    
     91 O2    c    0.915382 *  0.850994 *  0.244676 *   0.87073    1.000000    
     92 O3    c    0.129167 *  0.060100 *  0.584126 *   1.33043    1.000000    
     93 O2    c    0.933400 *  0.061897 *  0.913946 *   0.87073    1.000000    
     94 O2    c    0.068694 *  0.137985 *  0.748330 *   0.87073    1.000000    
     95 O2    c    0.856609 *  0.932169 *  0.080613 *   0.87073    1.000000    
     96 O3    c    0.057499 *  0.926611 *  0.408728 *   1.33043    1.000000    
     97 O2    c    0.900577 *  0.201767 *  0.973614 *   0.87073    1.000000    
     98 O2    c    0.796432 *  0.696306 *  0.311166 *   0.87073    1.000000    
     99 O2    c    0.301325 *  0.097816 *  0.645623 *   0.87073    1.000000    
    100 O3    c    0.103543 *  0.795198 *  0.478294 *   1.33043    1.000000    
    101 O2    c    0.203829 *  0.301196 *  0.810463 *   0.87073    1.000000    
    102 O2    c    0.694953 *  0.904269 *  0.144250 *   0.87073    1.000000    
    103 O2    c    0.205008 *  0.900628 *  0.351565 *   0.87073    1.000000    
    104 O2    c    0.695035 *  0.799877 *  0.016910 *   0.87073    1.000000    
    105 O2    c    0.099180 *  0.301588 *  0.685102 *   0.87073    1.000000    
    106 O2    c    0.796786 *  0.096469 *  0.852229 *   0.87073    1.000000    
    107 O3    c    0.310304 *  0.211050 *  0.518902 *   1.33043    1.000000    
    108 O2    c    0.896337 *  0.700802 *  0.179799 *   0.87073    1.000000    
    109 O2    c    0.318570 *  0.643667 *  0.245762 *   0.87073    1.000000    
    110 O2    c    0.357099 *  0.677750 *  0.582179 *   0.87073    1.000000    
    111 O2    c    0.317178 *  0.676582 *  0.912476 *   0.87073    1.000000    
    112 O2    c    0.678581 *  0.354979 *  0.749718 *   0.87073    1.000000    
    113 O3    c    0.612944 *  0.303150 *  0.085357 *   1.33043    1.000000    
    114 O2    c    0.679726 *  0.324765 *  0.414790 *   0.87073    1.000000    
    115 O2    c    0.371744 *  0.333712 *  0.966862 *   0.87073    1.000000    
    116 O2    c    0.670167 *  0.040789 *  0.303153 *   0.87073    1.000000    
    117 O2    c    0.956478 *  0.625990 *  0.636864 *   0.87073    1.000000    
    118 O2    c    0.617221 *  0.666569 *  0.466553 *   0.87073    1.000000    
    119 O2    c    0.329479 *  0.955708 *  0.802166 *   0.87073    1.000000    
    120 O2    c    0.034630 *  0.376531 *  0.130936 *   0.87073    1.000000    
    121 O2    c    0.328574 *  0.371616 *  0.359069 *   0.87073    1.000000    
    122 O2    c    0.031270 *  0.664511 *  0.023923 *   0.87073    1.000000    
    123 O2    c    0.626176 *  0.957698 *  0.694564 *   0.87073    1.000000    
    124 O2    c    0.668614 *  0.625817 *  0.860307 *   0.87073    1.000000    
    125 O2    c    0.952086 *  0.335245 *  0.529014 *   0.87073    1.000000    
    126 O2    c    0.370236 *  0.042075 *  0.195612 *   0.87073    1.000000    
    127 O3    c    0.753483 *  0.283045 *  0.002444 *   1.33043    1.000000    
    128 O2    c    0.695134 *  0.465701 *  0.341735 *   0.87073    1.000000    
    129 O2    c    0.533227 *  0.229714 *  0.676589 *   0.87073    1.000000    
    130 O2    c    0.229833 *  0.699314 *  0.510747 *   0.87073    1.000000    
    131 O2    c    0.302734 *  0.532861 *  0.839754 *   0.87073    1.000000    
    132 O2    c    0.462687 *  0.773231 *  0.174140 *   0.87073    1.000000    
    133 O2    c    0.300302 *  0.765766 *  0.319355 *   0.87073    1.000000    
    134 O2    c    0.462870 *  0.699514 *  0.985550 *   0.87073    1.000000    
    135 O2    c    0.230172 *  0.533781 *  0.654613 *   0.87073    1.000000    
    136 O2    c    0.698044 *  0.229378 *  0.821763 *   0.87073    1.000000    
    137 O2    c    0.530722 *  0.303097 *  0.485769 *   0.87073    1.000000    
    138 O2    c    0.759591 *  0.466498 *  0.150407 *   0.87073    1.000000    
    139 O3    c    0.771431 *  0.545460 *  0.018139 *   1.33043    1.000000    
    140 O2    c    0.464860 *  0.248565 *  0.359783 *   0.87073    1.000000    
    141 O2    c    0.751439 *  0.216879 *  0.694204 *   0.87073    1.000000    
    142 O2    c    0.214638 *  0.468975 *  0.526710 *   0.87073    1.000000    
    143 O2    c    0.533862 *  0.750596 *  0.858258 *   0.87073    1.000000    
    144 O2    c    0.242653 *  0.783448 *  0.192732 *   0.87073    1.000000    
    145 O2    c    0.532088 *  0.781891 *  0.301702 *   0.87073    1.000000    
    146 O2    c    0.245040 *  0.466140 *  0.968559 *   0.87073    1.000000    
    147 O2    c    0.216368 *  0.750126 *  0.636618 *   0.87073    1.000000    
    148 O2    c    0.465825 *  0.214134 *  0.804233 *   0.87073    1.000000    
    149 O2    c    0.745316 *  0.532882 *  0.470148 *   0.87073    1.000000    
    150 O2    c    0.778881 *  0.254360 *  0.133703 *   0.87073    1.000000    
    151 O2    c    0.227391 *  0.325741 *  0.894739 *   0.87073    1.000000    
    152 O2    c    0.674540 *  0.909005 *  0.229079 *   0.87073    1.000000    
    153 O2    c    0.088787 *  0.769801 *  0.563877 *   0.87073    1.000000    
    154 O2    c    0.767407 *  0.674014 *  0.396008 *   0.87073    1.000000    
    155 O2    c    0.322723 *  0.090457 *  0.730049 *   0.87073    1.000000    
    156 O2    c    0.897813 *  0.233356 *  0.059944 *   0.87073    1.000000    
    157 O2    c    0.318188 *  0.230437 *  0.432588 *   0.87073    1.000000    
    158 O2    c    0.891126 *  0.667279 *  0.094568 *   0.87073    1.000000    
    159 O2    c    0.768833 *  0.092068 *  0.767587 *   0.87073    1.000000    
    160 O2    c    0.674850 *  0.767772 *  0.932572 *   0.87073    1.000000    
    161 O2    c    0.092916 *  0.325965 *  0.600511 *   0.87073    1.000000    
    162 O2    c    0.229782 *  0.907297 *  0.267357 *   0.87073    1.000000    
    163 O2    c    0.581043 *  0.560808 *  0.988761 *   0.87073    1.000000    
    164 O2    c    0.442059 *  0.023409 *  0.323688 *   0.87073    1.000000    
    165 O2    c    0.970684 *  0.411988 *  0.655692 *   0.87073    1.000000    
    166 O2    c    0.405582 *  0.440431 *  0.486682 *   0.87073    1.000000    
    167 O2    c    0.558406 *  0.971293 *  0.822173 *   0.87073    1.000000    
    168 O2    c    0.014903 *  0.582888 *  0.147961 *   0.87073    1.000000    
    169 O2    c    0.557489 *  0.587267 *  0.340395 *   0.87073    1.000000    
    170 O2    c    0.011052 *  0.438042 *  0.004957 *   0.87073    1.000000    
    171 O2    c    0.411536 *  0.970910 *  0.674377 *   0.87073    1.000000    
    172 O2    c    0.440657 *  0.411202 *  0.841379 *   0.87073    1.000000    
    173 O2    c    0.966823 *  0.561592 *  0.509014 *   0.87073    1.000000    
    174 O2    c    0.586521 *  0.031461 *  0.175306 *   0.87073    1.000000    
    175 O2    c    0.581062 *  0.162779 *  0.250934 *   0.87073    1.000000    
    176 O2    c    0.830043 *  0.419900 *  0.582941 *   0.87073    1.000000    
    177 O2    c    0.584900 *  0.423074 *  0.915657 *   0.87073    1.000000    
    178 O2    c    0.416171 *  0.834720 *  0.747972 *   0.87073    1.000000    
    179 O2    c    0.150148 *  0.577699 *  0.077240 *   0.87073    1.000000    
    180 O2    c    0.408501 *  0.579285 *  0.412739 *   0.87073    1.000000    
    181 F     c    0.448705 *  0.902741 *  0.247512 *   0.56000    1.000000    
    182 F     c    0.094376 *  0.548943 *  0.581835 *   0.56000    1.000000    
    183 F     c    0.446539 *  0.551870 *  0.913094 *   0.56000    1.000000    
    184 F     c    0.548214 *  0.096227 *  0.748216 *   0.56000    1.000000    
    185 F     c    0.850977 *  0.434735 *  0.069710 *   0.56000    1.000000    
    186 F     c    0.544315 *  0.451006 *  0.413647 *   0.56000    1.000000    
    187 O2    s    0.924669 *  0.005245 *  0.998292 *  -2.87073    1.000000    
    188 O2    s    0.003449 *  0.925423 *  0.325494 *  -2.87073    1.000000    
    189 O2    s    0.072655 *  0.073162 *  0.666228 *  -2.87073    1.000000    
    190 O1    s    0.063711 *  0.004691 *  0.495393 *  -3.73396    1.000000    
    191 O2    s    0.999738 *  0.073037 *  0.830798 *  -2.87073    1.000000    
    192 O2    s    0.924734 *  0.930710 *  0.163238 *  -2.87073    1.000000    
    193 O2    s    0.349721 *  0.582847 *  0.328528 *  -2.87073    1.000000    
    194 O2    s    0.413794 *  0.766244 *  0.664991 *  -2.87073    1.000000    
    195 O2    s    0.225387 *  0.645033 *  0.994608 *  -2.87073    1.000000    
    196 O2    s    0.648262 *  0.412411 *  0.832588 *  -2.87073    1.000000    
    197 O2    s    0.582893 *  0.234205 *  0.169793 *  -2.87073    1.000000    
    198 O2    s    0.762516 *  0.353959 *  0.499004 *  -2.87073    1.000000    
    199 O3    s    0.572561 *  0.349291 *  0.998041 *  -3.33043    1.000000    
    200 O2    s    0.766193 *  0.413843 *  0.666850 *  -2.87073    1.000000    
    201 O2    s    0.648391 *  0.232490 *  0.333225 *  -2.87073    1.000000    
    202 O2    s    0.409260 *  0.647730 *  0.497157 *  -2.87073    1.000000    
    203 O2    s    0.228085 *  0.590188 *  0.161773 *  -2.87073    1.000000    
    204 O2    s    0.350896 *  0.764794 *  0.830422 *  -2.87073    1.000000    
    205 O2    s    0.121856 *  0.218056 *  0.966753 *  -2.87073    1.000000    
    206 O2    s    0.780788 *  0.901454 *  0.300646 *  -2.87073    1.000000    
    207 O2    s    0.093964 *  0.875449 *  0.637100 *  -2.87073    1.000000    
    208 O3    s    0.861023 *  0.772693 *  0.469463 *  -3.33043    1.000000    
    209 O2    s    0.216827 *  0.094129 *  0.801614 *  -2.87073    1.000000    
    210 O2    s    0.899741 *  0.124526 *  0.132473 *  -2.87073    1.000000    
    211 O2    s    0.217286 *  0.121484 *  0.359434 *  -2.87073    1.000000    
    212 O2    s    0.905781 *  0.792362 *  0.025924 *  -2.87073    1.000000    
    213 O2    s    0.877467 *  0.096084 *  0.695294 *  -2.87073    1.000000    
    214 O2    s    0.782512 *  0.875937 *  0.860455 *  -2.87073    1.000000    
    215 O3    s    0.087622 *  0.227659 *  0.527648 *  -3.33043    1.000000    
    216 O2    s    0.117242 *  0.905201 *  0.195228 *  -2.87073    1.000000    
    217 O2    s    0.916595 *  0.850197 *  0.244853 *  -2.87073    1.000000    
    218 O3    s    0.132919 *  0.062276 *  0.584935 *  -3.33043    1.000000    
    219 O2    s    0.931547 *  0.064582 *  0.913866 *  -2.87073    1.000000    
    220 O2    s    0.070145 *  0.140836 *  0.748290 *  -2.87073    1.000000    
    221 O2    s    0.854338 *  0.931543 *  0.080729 *  -2.87073    1.000000    
    222 O3    s    0.061594 *  0.926954 *  0.408161 *  -3.33043    1.000000    
    223 O2    s    0.907160 *  0.202615 *  0.976483 *  -2.87073    1.000000    
    224 O2    s    0.794669 *  0.702314 *  0.313501 *  -2.87073    1.000000    
    225 O2    s    0.295070 *  0.090071 *  0.648297 *  -2.87073    1.000000    
    226 O3    s    0.096134 *  0.792507 *  0.480885 *  -3.33043    1.000000    
    227 O2    s    0.205039 *  0.295014 *  0.813156 *  -2.87073    1.000000    
    228 O2    s    0.701109 *  0.911772 *  0.146789 *  -2.87073    1.000000    
    229 O2    s    0.206284 *  0.907786 *  0.348579 *  -2.87073    1.000000    
    230 O2    s    0.701376 *  0.798553 *  0.014396 *  -2.87073    1.000000    
    231 O2    s    0.091518 *  0.295709 *  0.682572 *  -2.87073    1.000000    
    232 O2    s    0.795362 *  0.088992 *  0.849490 *  -2.87073    1.000000    
    233 O3    s    0.305446 *  0.213201 *  0.516035 *  -3.33043    1.000000    
    234 O2    s    0.903206 *  0.706348 *  0.177438 *  -2.87073    1.000000    
    235 O2    s    0.324266 *  0.655200 *  0.245808 *  -2.87073    1.000000    
    236 O2    s    0.345250 *  0.672117 *  0.582062 *  -2.87073    1.000000    
    237 O2    s    0.323390 *  0.670771 *  0.912614 *  -2.87073    1.000000    
    238 O2    s    0.672760 *  0.343392 *  0.749661 *  -2.87073    1.000000    
    239 O3    s    0.626034 *  0.309356 *  0.086746 *  -3.33043    1.000000    
    240 O2    s    0.673316 *  0.330141 *  0.414770 *  -2.87073    1.000000    
    241 O2    s    0.374134 *  0.343402 *  0.964822 *  -2.87073    1.000000    
    242 O2    s    0.660048 *  0.034270 *  0.300913 *  -2.87073    1.000000    
    243 O2    s    0.962993 *  0.622745 *  0.634604 *  -2.87073    1.000000    
    244 O2    s    0.613526 *  0.656103 *  0.464520 *  -2.87073    1.000000    
    245 O2    s    0.339499 *  0.962469 *  0.799961 *  -2.87073    1.000000    
    246 O2    s    0.028499 *  0.379662 *  0.128982 *  -2.87073    1.000000    
    247 O2    s    0.338408 *  0.375075 *  0.361378 *  -2.87073    1.000000    
    248 O2    s    0.025445 *  0.655118 *  0.025626 *  -2.87073    1.000000    
    249 O2    s    0.622829 *  0.964357 *  0.696840 *  -2.87073    1.000000    
    250 O2    s    0.658805 *  0.622630 *  0.862605 *  -2.87073    1.000000    
    251 O2    s    0.958989 *  0.345648 *  0.531220 *  -2.87073    1.000000    
    252 O2    s    0.373246 *  0.035172 *  0.197938 *  -2.87073    1.000000    
    253 O3    s    0.764310 *  0.290213 *  0.005515 *  -3.33043    1.000000    
    254 O2    s    0.687826 *  0.465111 *  0.344877 *  -2.87073    1.000000    
    255 O2    s    0.533883 *  0.222712 *  0.679739 *  -2.87073    1.000000    
    256 O2    s    0.222873 *  0.691321 *  0.513729 *  -2.87073    1.000000    
    257 O2    s    0.310182 *  0.533479 *  0.843112 *  -2.87073    1.000000    
    258 O2    s    0.461961 *  0.779739 *  0.177340 *  -2.87073    1.000000    
    259 O2    s    0.308114 *  0.772937 *  0.316346 *  -2.87073    1.000000    
    260 O2    s    0.461999 *  0.691497 *  0.982479 *  -2.87073    1.000000    
    261 O2    s    0.223176 *  0.534222 *  0.651525 *  -2.87073    1.000000    
    262 O2    s    0.690337 *  0.222444 *  0.818664 *  -2.87073    1.000000    
    263 O2    s    0.531816 *  0.311164 *  0.482776 *  -2.87073    1.000000    
    264 O2    s    0.766265 *  0.466277 *  0.147689 *  -2.87073    1.000000    
    265 O3    s    0.781103 *  0.547758 *  0.021374 *  -3.33043    1.000000    
    266 O2    s    0.467704 *  0.256716 *  0.362241 *  -2.87073    1.000000    
    267 O2    s    0.743282 *  0.211590 *  0.696781 *  -2.87073    1.000000    
    268 O2    s    0.209640 *  0.472307 *  0.529333 *  -2.87073    1.000000    
    269 O2    s    0.531061 *  0.742399 *  0.860869 *  -2.87073    1.000000    
    270 O2    s    0.251062 *  0.788655 *  0.195232 *  -2.87073    1.000000    
    271 O2    s    0.529314 *  0.787047 *  0.299199 *  -2.87073    1.000000    
    272 O2    s    0.253219 *  0.469150 *  0.965918 *  -2.87073    1.000000    
    273 O2    s    0.210879 *  0.742111 *  0.634182 *  -2.87073    1.000000    
    274 O2    s    0.468597 *  0.209107 *  0.801647 *  -2.87073    1.000000    
    275 O2    s    0.737064 *  0.529466 *  0.467467 *  -2.87073    1.000000    
    276 O2    s    0.783090 *  0.260224 *  0.131413 *  -2.87073    1.000000    
    277 O2    s    0.237428 *  0.335238 *  0.895656 *  -2.87073    1.000000    
    278 O2    s    0.664843 *  0.908642 *  0.229976 *  -2.87073    1.000000    
    279 O2    s    0.089360 *  0.760568 *  0.564754 *  -2.87073    1.000000    
    280 O2    s    0.757325 *  0.664364 *  0.396629 *  -2.87073    1.000000    
    281 O2    s    0.332519 *  0.090768 *  0.730968 *  -2.87073    1.000000    
    282 O2    s    0.897334 *  0.241061 *  0.061005 *  -2.87073    1.000000    
    283 O2    s    0.328042 *  0.239723 *  0.431651 *  -2.87073    1.000000    
    284 O2    s    0.891643 *  0.659147 *  0.094319 *  -2.87073    1.000000    
    285 O2    s    0.759350 *  0.092280 *  0.766651 *  -2.87073    1.000000    
    286 O2    s    0.665134 *  0.758573 *  0.931618 *  -2.87073    1.000000    
    287 O2    s    0.092664 *  0.335595 *  0.599837 *  -2.87073    1.000000    
    288 O2    s    0.239035 *  0.906882 *  0.266311 *  -2.87073    1.000000    
    289 O2    s    0.577372 *  0.561615 *  0.985382 *  -2.87073    1.000000    
    290 O2    s    0.441870 *  0.019156 *  0.320196 *  -2.87073    1.000000    
    291 O2    s    0.975579 *  0.416776 *  0.652509 *  -2.87073    1.000000    
    292 O2    s    0.410605 *  0.440541 *  0.483435 *  -2.87073    1.000000    
    293 O2    s    0.558673 *  0.976108 *  0.818838 *  -2.87073    1.000000    
    294 O2    s    0.011469 *  0.579257 *  0.145232 *  -2.87073    1.000000    
    295 O2    s    0.557531 *  0.582306 *  0.343618 *  -2.87073    1.000000    
    296 O2    s    0.008203 *  0.438567 *  0.007805 *  -2.87073    1.000000    
    297 O2    s    0.416355 *  0.975822 *  0.677822 *  -2.87073    1.000000    
    298 O2    s    0.440565 *  0.416242 *  0.844604 *  -2.87073    1.000000    
    299 O2    s    0.972035 *  0.561740 *  0.512345 *  -2.87073    1.000000    
    300 O2    s    0.581576 *  0.025974 *  0.178669 *  -2.87073    1.000000    
    301 O2    s    0.575575 *  0.151721 *  0.250910 *  -2.87073    1.000000    
    302 O2    s    0.841266 *  0.425213 *  0.582932 *  -2.87073    1.000000    
    303 O2    s    0.579197 *  0.427703 *  0.915332 *  -2.87073    1.000000    
    304 O2    s    0.421736 *  0.845612 *  0.747969 *  -2.87073    1.000000    
    305 O2    s    0.140773 *  0.573093 *  0.077505 *  -2.87073    1.000000    
    306 O2    s    0.414397 *  0.574144 *  0.412795 *  -2.87073    1.000000    
    307 F     s    0.448425 *  0.902409 *  0.247430 *  -1.56000    1.000000    
    308 F     s    0.094705 *  0.549026 *  0.581748 *  -1.56000    1.000000    
    309 F     s    0.445888 *  0.552425 *  0.912995 *  -1.56000    1.000000    
    310 F     s    0.548412 *  0.096642 *  0.748131 *  -1.56000    1.000000    
    311 F     s    0.840721 *  0.430744 *  0.067459 *  -1.56000    1.000000    
    312 F     s    0.544493 *  0.450848 *  0.413633 *  -1.56000    1.000000    
--------------------------------------------------------------------------------



********************************************************************************
*  General input information                                                   *
********************************************************************************

  Species output for all configurations : 

--------------------------------------------------------------------------------
  Species    Type    Atomic    Atomic    Charge       Radii (Angs)     Library
                     Number     Mass       (e)     Cova   Ionic  VDW   Symbol
--------------------------------------------------------------------------------
    Si       Core       14      28.09   4.000000   1.200  0.000  2.100          
    O1       Core        8      16.00   1.733957   0.730  0.000  1.360          
    O1       Shell       8       0.00  -3.733957   0.730  0.000  1.360          
    O2       Core        8      16.00   0.870733   0.730  0.000  1.360          
    O2       Shell       8       0.00  -2.870733   0.730  0.000  1.360          
    O3       Core        8      16.00   1.330431   0.730  0.000  1.360          
    O3       Shell       8       0.00  -3.330431   0.730  0.000  1.360          
    F        Core        9      19.00   0.560000   0.710  0.000  1.300          
    F        Shell       9       0.00  -1.560000   0.710  0.000  1.300          
    Ge       Core       32      72.61   4.000000   1.170  0.000  1.750          
--------------------------------------------------------------------------------


  Lattice summation method               =    Ewald          (3-D)
                                         =    Parry          (2-D)
                                         =    Saunders et al (1-D)
  Accuracy factor for lattice sums       =   12.000


  Time limit = Infinity

  Maximum range for interatomic potentials =        16.000000 Angstroms

  Taper potentials to zero over   1.0000 Angstroms using polynomial

  General interatomic potentials :

--------------------------------------------------------------------------------
Atom  Types   Potential         A         B         C         D     Cutoffs(Ang)
  1     2                                                            Min    Max 
--------------------------------------------------------------------------------
Si   c O1   s Buckingham    0.132E+04 0.318      10.1      0.00     0.000 16.000
Si   c O2   s Buckingham    0.132E+04 0.318      10.1      0.00     0.000 16.000
Si   c O3   s Buckingham    0.132E+04 0.318      10.1      0.00     0.000 16.000
Ge   c O1   s Buckingham    0.150E+04 0.326      16.8      0.00     0.000 16.000
Ge   c O2   s Buckingham    0.150E+04 0.326      16.8      0.00     0.000 16.000
Ge   c O3   s Buckingham    0.150E+04 0.326      16.8      0.00     0.000 16.000
O1   s O1   s Buckingham    0.228E+05 0.149      10.9      0.00     0.000 16.000
O1   s O2   s Buckingham    0.228E+05 0.149      10.9      0.00     0.000 16.000
O1   s O3   s Buckingham    0.228E+05 0.149      10.9      0.00     0.000 16.000
O2   s O2   s Buckingham    0.228E+05 0.149      10.9      0.00     0.000 16.000
O2   s O3   s Buckingham    0.228E+05 0.149      10.9      0.00     0.000 16.000
O3   s O3   s Buckingham    0.228E+05 0.149      10.9      0.00     0.000 16.000
Si   c F    s Buckingham     977.     0.282      0.00      0.00     0.000 16.000
Ge   c F    s Buckingham     681.     0.320      0.00      0.00     0.000 16.000
F    s F    s Buckingham     540.     0.262      0.00      0.00     0.000 16.000
O1   s F    s Buckingham    0.168E+04 0.268      0.00      0.00     0.000 16.000
O2   s F    s Buckingham    0.168E+04 0.268      0.00      0.00     0.000 16.000
O3   s F    s Buckingham    0.168E+04 0.268      0.00      0.00     0.000 16.000
O2   c O2   s Spring (c-s)   76.0      0.00      0.00      0.00     0.000  0.800
O3   c O3   s Spring (c-s)   128.      0.00      0.00      0.00     0.000  0.800
O1   c O1   s Spring (c-s)   180.      0.00      0.00      0.00     0.000  0.800
F    c F    s Spring (c-s)   33.5      0.00      0.00      0.00     0.000  0.800
--------------------------------------------------------------------------------

  General Three-body potentials :

  Harmonic form:

--------------------------------------------------------------------------------
Atom    Atom    Atom           Force Constants            Theta     Cutoffs  
  1       2       3     (eVrad**-2/eVrad**-3/eVrad**-4)   (deg)  1-2  1-3  2-3
--------------------------------------------------------------------------------
Si    c O1    s O1    s  1.261        0.0000    0.0000   109.470 0.00 0.00 0.00
                                                                 1.90 1.90 3.50
Si    c O1    s O2    s  1.261        0.0000    0.0000   109.470 0.00 0.00 0.00
                                                                 1.90 1.90 3.50
Si    c O2    s O2    s  1.261        0.0000    0.0000   109.470 0.00 0.00 0.00
                                                                 1.90 1.90 3.50
--------------------------------------------------------------------------------

********************************************************************************
*  Output for configuration   1                                                *
********************************************************************************


  Components of energy : 

--------------------------------------------------------------------------------
  Interatomic potentials     =        2060.42003034 eV
  Three-body potentials      =           0.47041877 eV
  Monopole - monopole (real) =       -6611.02902350 eV
  Monopole - monopole (recip)=       -3169.20717475 eV
  Monopole - monopole (total)=       -9780.23619825 eV
  Neutralising energy        =          -6.45497463 eV
--------------------------------------------------------------------------------
  Total lattice energy       =       -7725.80072377 eV
--------------------------------------------------------------------------------
  Total lattice energy       =         -745421.6702 kJ/(mole unit cells)
--------------------------------------------------------------------------------


  Number of variables =      939

  Maximum number of calculations  =          5000
  Maximum Hessian update interval =            10
  Maximum step size               =   0.100000000
  Maximum parameter tolerance     =   0.000010000
  Maximum function  tolerance     =   0.000010000
  Maximum gradient  tolerance     =   0.001000000
  Maximum gradient  component     =   0.010000000

  Symmetry not applied to optimisation

  Cell parameters to be optimised using strains

  Newton-Raphson optimiser to be used

  BFGS hessian update to be used

  Dumpfile to be written after every cycle

  Start of bulk optimisation :

  Cycle:      0 Energy:     -7725.800724  Gnorm:      0.008154  CPU:    2.014
  ** Hessian calculated **
  Cycle:      1 Energy:     -7725.800825  Gnorm:      0.003101  CPU:    5.228
  Cycle:      2 Energy:     -7725.800850  Gnorm:      0.001860  CPU:    8.056
  Cycle:      3 Energy:     -7725.800868  Gnorm:      0.001193  CPU:   10.883
  Cycle:      4 Energy:     -7725.800889  Gnorm:      0.000826  CPU:   13.711
  Cycle:      5 Energy:     -7725.800917  Gnorm:      0.000838  CPU:   16.540
  Cycle:      6 Energy:     -7725.800956  Gnorm:      0.001242  CPU:   19.369
  Cycle:      7 Energy:     -7725.801012  Gnorm:      0.001936  CPU:   22.198
  Cycle:      8 Energy:     -7725.801285  Gnorm:      0.005612  CPU:   27.747
  Cycle:      9 Energy:     -7725.801603  Gnorm:      0.009473  CPU:   31.942
  Cycle:     10 Energy:     -7725.801987  Gnorm:      0.014088  CPU:   36.143
  ** Hessian calculated **
  Cycle:     11 Energy:     -7725.802271  Gnorm:      0.005781  CPU:   40.674
  Cycle:     12 Energy:     -7725.802327  Gnorm:      0.003690  CPU:   43.514
  Cycle:     13 Energy:     -7725.802367  Gnorm:      0.002300  CPU:   46.344
  Cycle:     14 Energy:     -7725.802399  Gnorm:      0.001350  CPU:   49.184
  Cycle:     15 Energy:     -7725.802434  Gnorm:      0.000951  CPU:   52.013
  Cycle:     16 Energy:     -7725.802479  Gnorm:      0.001382  CPU:   54.841
  Cycle:     17 Energy:     -7725.802539  Gnorm:      0.002254  CPU:   57.670
  Cycle:     18 Energy:     -7725.802735  Gnorm:      0.006211  CPU:   62.535
  Cycle:     19 Energy:     -7725.802847  Gnorm:      0.007534  CPU:   65.363
  Cycle:     20 Energy:     -7725.803066  Gnorm:      0.009841  CPU:   70.229
  ** Hessian calculated **
  Cycle:     21 Energy:     -7725.803239  Gnorm:      0.004541  CPU:   74.744
  Cycle:     22 Energy:     -7725.803300  Gnorm:      0.003077  CPU:   77.571
  Cycle:     23 Energy:     -7725.803354  Gnorm:      0.002210  CPU:   80.399
  Cycle:     24 Energy:     -7725.803490  Gnorm:      0.001802  CPU:   85.265
  Cycle:     25 Energy:     -7725.803556  Gnorm:      0.002365  CPU:   88.093
  Cycle:     26 Energy:     -7725.803602  Gnorm:      0.002594  CPU:   90.920
  Cycle:     27 Energy:     -7725.803650  Gnorm:      0.002741  CPU:   93.747
  Cycle:     28 Energy:     -7725.803782  Gnorm:      0.003331  CPU:   98.613
  Cycle:     29 Energy:     -7725.803887  Gnorm:      0.003092  CPU:  102.120
  Cycle:     30 Energy:     -7725.804028  Gnorm:      0.002818  CPU:  106.307
  ** Hessian calculated **
  Cycle:     31 Energy:     -7725.804362  Gnorm:      0.002813  CPU:  112.180
  Cycle:     32 Energy:     -7725.804929  Gnorm:      0.002804  CPU:  117.060
  Cycle:     33 Energy:     -7725.805808  Gnorm:      0.002791  CPU:  121.939
  Cycle:     34 Energy:     -7725.807137  Gnorm:      0.002771  CPU:  126.818
  Cycle:     35 Energy:     -7725.808789  Gnorm:      0.002746  CPU:  131.014
  Cycle:     36 Energy:     -7725.811569  Gnorm:      0.002702  CPU:  135.886
  Cycle:     37 Energy:     -7725.815815  Gnorm:      0.002635  CPU:  140.762
  Cycle:     38 Energy:     -7725.821029  Gnorm:      0.002551  CPU:  144.953
  Cycle:     39 Energy:     -7725.829540  Gnorm:      0.002407  CPU:  149.822
  Cycle:     40 Energy:     -7725.839816  Gnorm:      0.002224  CPU:  154.011
  ** Hessian calculated **
  Cycle:     41 Energy:     -7725.853935  Gnorm:      0.001941  CPU:  159.888
  Cycle:     42 Energy:     -7725.870303  Gnorm:      0.001597  CPU:  164.076
  Cycle:     43 Energy:     -7725.887067  Gnorm:      0.001280  CPU:  168.265
  Cycle:     44 Energy:     -7725.893818  Gnorm:      0.000998  CPU:  172.456
  Cycle:     45 Energy:     -7725.895486  Gnorm:      0.000622  CPU:  176.645
  Cycle:     46 Energy:     -7725.895904  Gnorm:      0.000347  CPU:  180.835
  Cycle:     47 Energy:     -7725.896009  Gnorm:      0.000184  CPU:  185.025
  Cycle:     48 Energy:     -7725.896026  Gnorm:      0.000130  CPU:  187.854
  Cycle:     49 Energy:     -7725.896035  Gnorm:      0.000092  CPU:  190.684
  Cycle:     50 Energy:     -7725.896040  Gnorm:      0.000064  CPU:  193.514
  ** Hessian calculated **
  Cycle:     51 Energy:     -7725.896040  Gnorm:      0.000035  CPU:  198.030
  Cycle:     52 Energy:     -7725.896040  Gnorm:      0.000026  CPU:  200.859


  **** Optimisation achieved ****


  Final energy =   -7725.89603959 eV
  Final Gnorm  =       0.00002069

  Components of energy : 

--------------------------------------------------------------------------------
  Interatomic potentials     =        2060.73432074 eV
  Three-body potentials      =           0.47119149 eV
  Monopole - monopole (real) =       -6612.54471371 eV
  Monopole - monopole (recip)=       -3168.10410704 eV
  Monopole - monopole (total)=       -9780.64882075 eV
  Neutralising energy        =          -6.45273106 eV
--------------------------------------------------------------------------------
  Total lattice energy       =       -7725.89603959 eV
--------------------------------------------------------------------------------
  Total lattice energy       =         -745430.8667 kJ/(mole unit cells)
--------------------------------------------------------------------------------

  Final fractional coordinates of atoms :

--------------------------------------------------------------------------------
   No.  Atomic        x           y          z          Radius
        Label       (Frac)      (Frac)     (Frac)       (Angs) 
--------------------------------------------------------------------------------
     1  Ge    c     0.699600    0.375700    0.033890    0.000000
     2  Si    c     0.595015    0.306945    0.364659    0.000000
     3  Si    c     0.656071    0.283751    0.698989    0.000000
     4  Si    c     0.274156    0.609323    0.531816    0.000000
     5  Si    c     0.360743    0.662821    0.863378    0.000000
     6  Si    c     0.297697    0.690293    0.197074    0.000000
     7  Si    c     0.351514    0.683843    0.297601    0.000000
     8  Si    c     0.306522    0.608617    0.963512    0.000000
     9  Si    c     0.276720    0.663499    0.632442    0.000000
    10  Si    c     0.603223    0.284329    0.799676    0.000000
    11  Si    c     0.649779    0.362004    0.465192    0.000000
    12  Si    c     0.666418    0.304309    0.131898    0.000000
    13  Si    c     0.519677    0.408061    0.966590    0.000000
    14  Si    c     0.558354    0.095283    0.300996    0.000000
    15  Si    c     0.864220    0.457006    0.633753    0.000000
    16  Si    c     0.435567    0.563779    0.464488    0.000000
    17  Si    c     0.397794    0.873514    0.799304    0.000000
    18  Si    c     0.088910    0.517868    0.130154    0.000000
    19  Si    c     0.387819    0.510473    0.362728    0.000000
    20  Si    c     0.092686    0.572187    0.027025    0.000000
    21  Si    c     0.449233    0.874247    0.697584    0.000000
    22  Si    c     0.567870    0.459147    0.863964    0.000000
    23  Si    c     0.859722    0.407113    0.532004    0.000000
    24  Si    c     0.504374    0.096927    0.199494    0.000000
    25  Si    c     0.286038    0.387509    0.849023    0.000000
    26  Si    c     0.577000    0.891260    0.183013    0.000000
    27  Si    c     0.071849    0.685041    0.517843    0.000000
    28  Si    c     0.670751    0.583909    0.349379    0.000000
    29  Si    c     0.377749    0.082045    0.683896    0.000000
    30  Si    c     0.880704    0.285388    0.011153    0.000000
    31  Si    c     0.371569    0.286810    0.479028    0.000000
    32  Si    c     0.873375    0.587971    0.142654    0.000000
    33  Si    c     0.679643    0.083131    0.814007    0.000000
    34  Si    c     0.585724    0.687593    0.978403    0.000000
    35  Si    c     0.074992    0.385458    0.647319    0.000000
    36  Si    c     0.276840    0.885196    0.313404    0.000000
    37  Si    c     0.238975    0.331058    0.949402    0.000000
    38  Si    c     0.633518    0.894147    0.283846    0.000000
    39  Si    c     0.065985    0.734996    0.618494    0.000000
    40  Si    c     0.714290    0.638284    0.450343    0.000000
    41  Si    c     0.321259    0.074748    0.784402    0.000000
    42  Si    c     0.884274    0.237376    0.114403    0.000000
    43  Si    c     0.312393    0.233567    0.378516    0.000000
    44  Si    c     0.891787    0.656843    0.040519    0.000000
    45  Si    c     0.728316    0.076347    0.713326    0.000000
    46  Si    c     0.642815    0.736271    0.877779    0.000000
    47  Si    c     0.062648    0.332104    0.546390    0.000000
    48  Si    c     0.224242    0.895894    0.213015    0.000000
    49  Si    c     0.960733    0.111903    0.963481    0.000000
    50  Si    c     0.849708    0.829164    0.296685    0.000000
    51  Si    c     0.126606    0.011915    0.634383    0.000000
    52  Ge    c     0.997037    0.859288    0.464010    0.000000
    53  Si    c     0.104901    0.138928    0.798893    0.000000
    54  Si    c     0.824664    0.960395    0.131227    0.000000
    55  Si    c     0.095428    0.953956    0.361063    0.000000
    56  Si    c     0.833795    0.874184    0.029944    0.000000
    57  Si    c     0.008715    0.138564    0.698220    0.000000
    58  Si    c     0.861338    0.014653    0.863552    0.000000
    59  Ge    c     0.122863    0.110897    0.531823    0.000000
    60  Si    c     0.942922    0.834121    0.195538    0.000000
    61  O2    c     0.914958    0.997684    0.999175    0.000000
    62  O2    c     0.979850    0.913685    0.324977    0.000000
    63  O2    c     0.048707    0.056499    0.666601    0.000000
    64  O1    c     0.032304    0.990142    0.495181    0.000000
    65  O2    c     0.982526    0.058609    0.830836    0.000000
    66  O2    c     0.906628    0.919629    0.163572    0.000000
    67  O2    c     0.312711    0.559557    0.329239    0.000000
    68  O2    c     0.400424    0.749039    0.665153    0.000000
    69  O2    c     0.220495    0.646060    0.996136    0.000000
    70  O2    c     0.642782    0.407590    0.831983    0.000000
    71  O2    c     0.555804    0.225241    0.169303    0.000000
    72  O2    c     0.734666    0.327164    0.499187    0.000000
    73  O3    c     0.563901    0.332975    0.998454    0.000000
    74  O2    c     0.740074    0.407269    0.666657    0.000000
    75  O2    c     0.634163    0.221074    0.333129    0.000000
    76  O2    c     0.392462    0.643788    0.497206    0.000000
    77  O2    c     0.212814    0.568513    0.163530    0.000000
    78  O2    c     0.321478    0.747664    0.831034    0.000000
    79  O2    c     0.114905    0.201898    0.969106    0.000000
    80  O2    c     0.759459    0.892382    0.303805    0.000000
    81  O2    c     0.065813    0.858505    0.640300    0.000000
    82  O3    c     0.833998    0.760605    0.472649    0.000000
    83  O2    c     0.194934    0.074840    0.804245    0.000000
    84  O2    c     0.886068    0.114105    0.135806    0.000000
    85  O2    c     0.187578    0.108026    0.357280    0.000000
    86  O2    c     0.908224    0.794076    0.025626    0.000000
    87  O2    c     0.854153    0.076284    0.692933    0.000000
    88  O2    c     0.769588    0.861501    0.857546    0.000000
    89  O3    c     0.057326    0.208240    0.525129    0.000000
    90  O2    c     0.098075    0.897754    0.193260    0.000000
    91  O2    c     0.890799    0.835158    0.244979    0.000000
    92  O3    c     0.104945    0.044473    0.584294    0.000000
    93  O2    c     0.917593    0.050856    0.914040    0.000000
    94  O2    c     0.050905    0.127560    0.748535    0.000000
    95  O2    c     0.836584    0.921414    0.080807    0.000000
    96  O3    c     0.030488    0.909260    0.408846    0.000000
    97  O2    c     0.893946    0.196410    0.973291    0.000000
    98  O2    c     0.769759    0.679872    0.311206    0.000000
    99  O2    c     0.279872    0.083349    0.645470    0.000000
   100  O3    c     0.079216    0.781345    0.478679    0.000000
   101  O2    c     0.187686    0.289693    0.810730    0.000000
   102  O2    c     0.673446    0.890889    0.144499    0.000000
   103  O2    c     0.179949    0.885207    0.351688    0.000000
   104  O2    c     0.683343    0.787878    0.016425    0.000000
   105  O2    c     0.078312    0.289037    0.685150    0.000000
   106  O2    c     0.778466    0.084041    0.852443    0.000000
   107  O3    c     0.284808    0.193784    0.518971    0.000000
   108  O2    c     0.875670    0.685392    0.180880    0.000000
   109  O2    c     0.295983    0.629638    0.246727    0.000000
   110  O2    c     0.334170    0.664238    0.582153    0.000000
   111  O2    c     0.302128    0.663564    0.913283    0.000000
   112  O2    c     0.658120    0.340739    0.749272    0.000000
   113  O3    c     0.603654    0.297980    0.083956    0.000000
   114  O2    c     0.653355    0.307691    0.414863    0.000000
   115  O2    c     0.361606    0.322593    0.967311    0.000000
   116  O2    c     0.645256    0.025844    0.303145    0.000000
   117  O2    c     0.934308    0.612466    0.636953    0.000000
   118  O2    c     0.591433    0.649250    0.466779    0.000000
   119  O2    c     0.310741    0.942551    0.802419    0.000000
   120  O2    c     0.015999    0.362668    0.132061    0.000000
   121  O2    c     0.301892    0.354729    0.359415    0.000000
   122  O2    c     0.025221    0.660120    0.025776    0.000000
   123  O2    c     0.606050    0.944151    0.694574    0.000000
   124  O2    c     0.653099    0.614729    0.859531    0.000000
   125  O2    c     0.928957    0.321591    0.529042    0.000000
   126  O2    c     0.347553    0.027673    0.195118    0.000000
   127  O3    c     0.747851    0.279348    0.002202    0.000000
   128  O2    c     0.668427    0.449141    0.341914    0.000000
   129  O2    c     0.512161    0.215459    0.676229    0.000000
   130  O2    c     0.206102    0.685107    0.510647    0.000000
   131  O2    c     0.286262    0.520703    0.840270    0.000000
   132  O2    c     0.440915    0.759213    0.174604    0.000000
   133  O2    c     0.275928    0.751061    0.319979    0.000000
   134  O2    c     0.450716    0.687156    0.985786    0.000000
   135  O2    c     0.208381    0.520711    0.654580    0.000000
   136  O2    c     0.678865    0.215991    0.821606    0.000000
   137  O2    c     0.505691    0.286443    0.486091    0.000000
   138  O2    c     0.741868    0.453249    0.150591    0.000000
   139  O3    c     0.768088    0.543271    0.017893    0.000000
   140  O2    c     0.438348    0.231643    0.359927    0.000000
   141  O2    c     0.730646    0.202811    0.693840    0.000000
   142  O2    c     0.190872    0.454790    0.526814    0.000000
   143  O2    c     0.517462    0.738585    0.858204    0.000000
   144  O2    c     0.220588    0.769228    0.192802    0.000000
   145  O2    c     0.507850    0.767441    0.302680    0.000000
   146  O2    c     0.233179    0.453467    0.969323    0.000000
   147  O2    c     0.194406    0.736751    0.636721    0.000000
   148  O2    c     0.446872    0.200769    0.804217    0.000000
   149  O2    c     0.719613    0.516107    0.469962    0.000000
   150  O2    c     0.760167    0.241105    0.133029    0.000000
   151  O2    c     0.215064    0.313936    0.895190    0.000000
   152  O2    c     0.650869    0.894067    0.229541    0.000000
   153  O2    c     0.065845    0.756144    0.564015    0.000000
   154  O2    c     0.740523    0.657149    0.396063    0.000000
   155  O2    c     0.302938    0.076907    0.730093    0.000000
   156  O2    c     0.885210    0.223448    0.060164    0.000000
   157  O2    c     0.292304    0.213353    0.432974    0.000000
   158  O2    c     0.877697    0.657386    0.095646    0.000000
   159  O2    c     0.749059    0.078638    0.767587    0.000000
   160  O2    c     0.660817    0.756253    0.932067    0.000000
   161  O2    c     0.070328    0.312712    0.600602    0.000000
   162  O2    c     0.206289    0.892470    0.267276    0.000000
   163  O2    c     0.570300    0.549924    0.988451    0.000000
   164  O2    c     0.417166    0.008420    0.323492    0.000000
   165  O2    c     0.949166    0.399097    0.655683    0.000000
   166  O2    c     0.380024    0.423391    0.487205    0.000000
   167  O2    c     0.539756    0.958357    0.822420    0.000000
   168  O2    c     0.996694    0.568892    0.149188    0.000000
   169  O2    c     0.530722    0.570048    0.340629    0.000000
   170  O2    c     0.001683    0.431305    0.005825    0.000000
   171  O2    c     0.391017    0.957172    0.674429    0.000000
   172  O2    c     0.425497    0.400598    0.840905    0.000000
   173  O2    c     0.943033    0.547822    0.508950    0.000000
   174  O2    c     0.563971    0.016997    0.175242    0.000000
   175  O2    c     0.556704    0.147869    0.250457    0.000000
   176  O2    c     0.807585    0.406541    0.582875    0.000000
   177  O2    c     0.571419    0.412240    0.915012    0.000000
   178  O2    c     0.397016    0.821526    0.748292    0.000000
   179  O2    c     0.136252    0.565954    0.078993    0.000000
   180  O2    c     0.382225    0.561836    0.413271    0.000000
   181  F     c     0.424649    0.887359    0.247571    0.000000
   182  F     c     0.071653    0.536302    0.581652    0.000000
   183  F     c     0.432575    0.540372    0.913115    0.000000
   184  F     c     0.528236    0.082375    0.748070    0.000000
   185  F     c     0.844258    0.429356    0.070557    0.000000
   186  F     c     0.516674    0.432658    0.413919    0.000000
   187  O2    s     0.910819    0.996478    0.998654    0.000000
   188  O2    s     0.977743    0.908515    0.325708    0.000000
   189  O2    s     0.052852    0.060775    0.666594    0.000000
   190  O1    s     0.036898    0.989069    0.495594    0.000000
   191  O2    s     0.982630    0.062695    0.830931    0.000000
   192  O2    s     0.901603    0.914706    0.163536    0.000000
   193  O2    s     0.324318    0.567379    0.329362    0.000000
   194  O2    s     0.392648    0.752976    0.665074    0.000000
   195  O2    s     0.215542    0.634494    0.996147    0.000000
   196  O2    s     0.631096    0.400102    0.831883    0.000000
   197  O2    s     0.561863    0.219930    0.168594    0.000000
   198  O2    s     0.738635    0.338989    0.499000    0.000000
   199  O3    s     0.568728    0.344260    0.997498    0.000000
   200  O2    s     0.744363    0.399809    0.666559    0.000000
   201  O2    s     0.622371    0.216791    0.333015    0.000000
   202  O2    s     0.384806    0.632036    0.497383    0.000000
   203  O2    s     0.208245    0.575406    0.163385    0.000000
   204  O2    s     0.333376    0.752098    0.831036    0.000000
   205  O2    s     0.110813    0.205282    0.966517    0.000000
   206  O2    s     0.755902    0.885892    0.301011    0.000000
   207  O2    s     0.072164    0.861710    0.637458    0.000000
   208  O3    s     0.835168    0.756153    0.469651    0.000000
   209  O2    s     0.198462    0.081633    0.801646    0.000000
   210  O2    s     0.879458    0.110769    0.133138    0.000000
   211  O2    s     0.190868    0.104895    0.359859    0.000000
   212  O2    s     0.898640    0.788492    0.027605    0.000000
   213  O2    s     0.857634    0.082945    0.695576    0.000000
   214  O2    s     0.766343    0.864953    0.860234    0.000000
   215  O3    s     0.063374    0.212847    0.527869    0.000000
   216  O2    s     0.094588    0.890765    0.195528    0.000000
   217  O2    s     0.892141    0.834379    0.245172    0.000000
   218  O3    s     0.108890    0.046832    0.585089    0.000000
   219  O2    s     0.916169    0.053702    0.913971    0.000000
   220  O2    s     0.052203    0.130120    0.748483    0.000000
   221  O2    s     0.834904    0.920654    0.080954    0.000000
   222  O3    s     0.034825    0.909888    0.408317    0.000000
   223  O2    s     0.899879    0.196693    0.976264    0.000000
   224  O2    s     0.768112    0.685853    0.313565    0.000000
   225  O2    s     0.273663    0.075737    0.648166    0.000000
   226  O3    s     0.071728    0.778517    0.481245    0.000000
   227  O2    s     0.188875    0.283526    0.813378    0.000000
   228  O2    s     0.679553    0.898273    0.147045    0.000000
   229  O2    s     0.181180    0.892314    0.348729    0.000000
   230  O2    s     0.689684    0.787020    0.014025    0.000000
   231  O2    s     0.070667    0.283152    0.682632    0.000000
   232  O2    s     0.777160    0.076641    0.849712    0.000000
   233  O3    s     0.279970    0.196079    0.516114    0.000000
   234  O2    s     0.882661    0.691148    0.178440    0.000000
   235  O2    s     0.301765    0.641306    0.246793    0.000000
   236  O2    s     0.322366    0.658608    0.582088    0.000000
   237  O2    s     0.308468    0.657876    0.913370    0.000000
   238  O2    s     0.652321    0.329146    0.749240    0.000000
   239  O3    s     0.616387    0.303579    0.085865    0.000000
   240  O2    s     0.647052    0.313137    0.414849    0.000000
   241  O2    s     0.363781    0.332057    0.965242    0.000000
   242  O2    s     0.635168    0.019300    0.300920    0.000000
   243  O2    s     0.940873    0.609253    0.634674    0.000000
   244  O2    s     0.587828    0.638917    0.464753    0.000000
   245  O2    s     0.320748    0.949303    0.800207    0.000000
   246  O2    s     0.010001    0.365900    0.130038    0.000000
   247  O2    s     0.311799    0.358190    0.361741    0.000000
   248  O2    s     0.018974    0.650661    0.027385    0.000000
   249  O2    s     0.602678    0.950762    0.696849    0.000000
   250  O2    s     0.643333    0.611536    0.861887    0.000000
   251  O2    s     0.935778    0.331871    0.531223    0.000000
   252  O2    s     0.350685    0.020940    0.197447    0.000000
   253  O3    s     0.759008    0.286389    0.005334    0.000000
   254  O2    s     0.661153    0.448549    0.345037    0.000000
   255  O2    s     0.512774    0.208434    0.679393    0.000000
   256  O2    s     0.199134    0.677113    0.513689    0.000000
   257  O2    s     0.293851    0.521336    0.843574    0.000000
   258  O2    s     0.440338    0.765876    0.177826    0.000000
   259  O2    s     0.283748    0.758212    0.316969    0.000000
   260  O2    s     0.449806    0.679149    0.982708    0.000000
   261  O2    s     0.201452    0.521231    0.651517    0.000000
   262  O2    s     0.671206    0.209052    0.818533    0.000000
   263  O2    s     0.506773    0.294504    0.483064    0.000000
   264  O2    s     0.748663    0.453309    0.147915    0.000000
   265  O3    s     0.777422    0.545066    0.021330    0.000000
   266  O2    s     0.441214    0.239814    0.362392    0.000000
   267  O2    s     0.722519    0.197514    0.696451    0.000000
   268  O2    s     0.185819    0.457999    0.529440    0.000000
   269  O2    s     0.514784    0.730412    0.860823    0.000000
   270  O2    s     0.229019    0.774564    0.195368    0.000000
   271  O2    s     0.505054    0.772501    0.300128    0.000000
   272  O2    s     0.241392    0.456598    0.966663    0.000000
   273  O2    s     0.188998    0.728761    0.634303    0.000000
   274  O2    s     0.449646    0.195775    0.801621    0.000000
   275  O2    s     0.711423    0.512777    0.467329    0.000000
   276  O2    s     0.764615    0.247046    0.130867    0.000000
   277  O2    s     0.225020    0.323495    0.896041    0.000000
   278  O2    s     0.641220    0.893787    0.230384    0.000000
   279  O2    s     0.066428    0.746877    0.564917    0.000000
   280  O2    s     0.730602    0.647568    0.396705    0.000000
   281  O2    s     0.312733    0.077207    0.730971    0.000000
   282  O2    s     0.884664    0.231036    0.061195    0.000000
   283  O2    s     0.302173    0.222684    0.431995    0.000000
   284  O2    s     0.878566    0.649672    0.095308    0.000000
   285  O2    s     0.739604    0.078860    0.766682    0.000000
   286  O2    s     0.651069    0.746975    0.931157    0.000000
   287  O2    s     0.070079    0.322275    0.599905    0.000000
   288  O2    s     0.215584    0.892087    0.266289    0.000000
   289  O2    s     0.566643    0.550917    0.985116    0.000000
   290  O2    s     0.416961    0.004133    0.320028    0.000000
   291  O2    s     0.954056    0.403838    0.652483    0.000000
   292  O2    s     0.385092    0.423570    0.483924    0.000000
   293  O2    s     0.540042    0.963161    0.819088    0.000000
   294  O2    s     0.993254    0.565348    0.146434    0.000000
   295  O2    s     0.530883    0.565180    0.343869    0.000000
   296  O2    s     0.999015    0.431683    0.008675    0.000000
   297  O2    s     0.395835    0.962091    0.677857    0.000000
   298  O2    s     0.425293    0.405450    0.844180    0.000000
   299  O2    s     0.948225    0.547828    0.512294    0.000000
   300  O2    s     0.559051    0.011641    0.178580    0.000000
   301  O2    s     0.551350    0.136951    0.250410    0.000000
   302  O2    s     0.818781    0.411793    0.582827    0.000000
   303  O2    s     0.565896    0.416882    0.914691    0.000000
   304  O2    s     0.402536    0.832384    0.748264    0.000000
   305  O2    s     0.126812    0.561496    0.079129    0.000000
   306  O2    s     0.388210    0.556755    0.413320    0.000000
   307  F     s     0.424300    0.886906    0.247468    0.000000
   308  F     s     0.071982    0.536492    0.581536    0.000000
   309  F     s     0.431898    0.540963    0.913016    0.000000
   310  F     s     0.528412    0.082760    0.747970    0.000000
   311  F     s     0.833394    0.425450    0.067912    0.000000
   312  F     s     0.516681    0.432349    0.413909    0.000000
--------------------------------------------------------------------------------

  Final Cartesian lattice vectors (Angstroms) :

       11.944772    0.005170   -0.004290
       -6.046358   10.415778    0.018330
       -0.188503   -0.113283   29.484575


  Final cell parameters and derivatives :

--------------------------------------------------------------------------------
       a           11.944774 Angstrom     dE/de1(xx)     0.000999 eV/strain
       b           12.043555 Angstrom     dE/de2(yy)     0.000598 eV/strain
       c           29.485395 Angstrom     dE/de3(zz)     0.001354 eV/strain
       alpha       89.919282 Degrees      dE/de4(yz)    -0.000366 eV/strain
       beta        90.386971 Degrees      dE/de5(xz)    -0.000193 eV/strain
       gamma      120.110356 Degrees      dE/de6(xy)     0.000206 eV/strain
--------------------------------------------------------------------------------

  Primitive cell volume =          3669.231726 Angs**3

  Density of cell =      1.743714 g/cm**3

  Non-primitive cell volume =          3669.231726 Angs**3


  Final internal derivatives :

--------------------------------------------------------------------------------
   No.  Atomic          a             b             c           Radius
        Label          (eV)          (eV)          (eV)        (eV/Angs)
--------------------------------------------------------------------------------
      1 Ge    c       0.000000      0.000000      0.000000      0.000000
      2 Si    c      -0.000040      0.000070     -0.000003      0.000000
      3 Si    c       0.000114      0.000040     -0.000145      0.000000
      4 Si    c       0.000088     -0.000232     -0.000139      0.000000
      5 Si    c      -0.000252      0.000203     -0.000157      0.000000
      6 Si    c      -0.000094     -0.000377     -0.000535      0.000000
      7 Si    c       0.000004      0.000001     -0.000298      0.000000
      8 Si    c      -0.000174     -0.000044      0.000689      0.000000
      9 Si    c       0.000187      0.000053     -0.000111      0.000000
     10 Si    c      -0.000030     -0.000121     -0.000102      0.000000
     11 Si    c      -0.000055      0.000126     -0.000379      0.000000
     12 Si    c       0.000589     -0.000674      0.008389      0.000000
     13 Si    c      -0.000565      0.000155     -0.001542      0.000000
     14 Si    c      -0.000464     -0.000113     -0.000054      0.000000
     15 Si    c      -0.000203     -0.000067      0.000171      0.000000
     16 Si    c       0.000259     -0.000136     -0.000283      0.000000
     17 Si    c      -0.000071      0.000061      0.000006      0.000000
     18 Si    c      -0.000494     -0.000088      0.000145      0.000000
     19 Si    c       0.000124     -0.000106     -0.000150      0.000000
     20 Si    c      -0.000642     -0.000370     -0.000710      0.000000
     21 Si    c       0.000186      0.000359      0.000396      0.000000
     22 Si    c       0.000125     -0.000207     -0.000777      0.000000
     23 Si    c      -0.000040      0.000077      0.000170      0.000000
     24 Si    c      -0.000668     -0.000676      0.001075      0.000000
     25 Si    c       0.000123     -0.000244     -0.000498      0.000000
     26 Si    c       0.000165     -0.000291     -0.000250      0.000000
     27 Si    c       0.000097     -0.000094      0.000627      0.000000
     28 Si    c       0.000051     -0.000240      0.000217      0.000000
     29 Si    c      -0.000085      0.000002      0.000570      0.000000
     30 Si    c       0.000030      0.000259     -0.000934      0.000000
     31 Si    c       0.000186     -0.000351      0.000636      0.000000
     32 Si    c       0.000310     -0.000144      0.000228      0.000000
     33 Si    c      -0.000218      0.000049     -0.000368      0.000000
     34 Si    c       0.000097     -0.000228     -0.000426      0.000000
     35 Si    c       0.000129      0.000136      0.000191      0.000000
     36 Si    c      -0.000407      0.000201      0.000121      0.000000
     37 Si    c       0.000025     -0.000228     -0.000023      0.000000
     38 Si    c      -0.000140     -0.000313     -0.000155      0.000000
     39 Si    c       0.000119     -0.000154     -0.000011      0.000000
     40 Si    c       0.000336     -0.000025      0.000036      0.000000
     41 Si    c      -0.000046     -0.000186      0.000486      0.000000
     42 Si    c       0.000262      0.000089      0.000716      0.000000
     43 Si    c       0.000131     -0.000424     -0.000198      0.000000
     44 Si    c       0.000362     -0.000515     -0.003238      0.000000
     45 Si    c       0.000230      0.000072     -0.000021      0.000000
     46 Si    c       0.000226     -0.000161     -0.000055      0.000000
     47 Si    c       0.000246      0.000235      0.000169      0.000000
     48 Si    c      -0.000357     -0.000245     -0.000141      0.000000
     49 Si    c       0.000313     -0.000475      0.000256      0.000000
     50 Si    c      -0.000359     -0.000471      0.000153      0.000000
     51 Si    c       0.000120     -0.000250     -0.000037      0.000000
     52 Ge    c       0.000031     -0.001191      0.000421      0.000000
     53 Si    c      -0.000149     -0.000394      0.000214      0.000000
     54 Si    c      -0.000003     -0.000286      0.001262      0.000000
     55 Si    c      -0.000314     -0.000602      0.000495      0.000000
     56 Si    c       0.000443     -0.000020     -0.001152      0.000000
     57 Si    c       0.000132      0.000008     -0.000303      0.000000
     58 Si    c       0.000109     -0.000213     -0.000677      0.000000
     59 Ge    c      -0.000248     -0.000907     -0.000265      0.000000
     60 Si    c      -0.000148      0.000046      0.000066      0.000000
     61 O2    c       0.000482     -0.000417     -0.000208      0.000000
     62 O2    c       0.000543     -0.000068      0.000429      0.000000
     63 O2    c      -0.000202      0.000116      0.000636      0.000000
     64 O1    c       0.000205     -0.000182      0.000497      0.000000
     65 O2    c       0.000217     -0.000053      0.000196      0.000000
     66 O2    c       0.000431      0.000169      0.000016      0.000000
     67 O2    c       0.000323      0.000283      0.000069      0.000000
     68 O2    c      -0.000110     -0.000132     -0.000019      0.000000
     69 O2    c       0.000033      0.000493      0.000425      0.000000
     70 O2    c      -0.000066      0.000147      0.000377      0.000000
     71 O2    c      -0.000467     -0.000216      0.001571      0.000000
     72 O2    c      -0.000011      0.000067     -0.000063      0.000000
     73 O3    c      -0.000038     -0.002069      0.002657      0.000000
     74 O2    c       0.000074     -0.000123     -0.000253      0.000000
     75 O2    c       0.000032      0.000211     -0.000021      0.000000
     76 O2    c       0.000082      0.000072      0.000432      0.000000
     77 O2    c       0.000185     -0.000139     -0.000251      0.000000
     78 O2    c      -0.000014      0.000424     -0.000278      0.000000
     79 O2    c       0.000840     -0.000263     -0.000005      0.000000
     80 O2    c       0.000464      0.000165     -0.000631      0.000000
     81 O2    c       0.000074     -0.000081     -0.000608      0.000000
     82 O3    c       0.000521     -0.000225     -0.000123      0.000000
     83 O2    c       0.000295      0.000108     -0.000323      0.000000
     84 O2    c       0.000206      0.000076      0.000670      0.000000
     85 O2    c       0.000166      0.000049     -0.000327      0.000000
     86 O2    c       0.001857     -0.001114     -0.001635      0.000000
     87 O2    c      -0.000242     -0.000016      0.000063      0.000000
     88 O2    c       0.000154     -0.000102      0.000135      0.000000
     89 O3    c       0.000204      0.000265      0.000055      0.000000
     90 O2    c       0.000665     -0.000078     -0.000195      0.000000
     91 O2    c       0.000170      0.000242      0.001377      0.000000
     92 O3    c       0.000455      0.000189      0.000050      0.000000
     93 O2    c       0.000194     -0.000398     -0.001514      0.000000
     94 O2    c       0.000229     -0.000134      0.000851      0.000000
     95 O2    c       0.000410      0.000200      0.004404      0.000000
     96 O3    c       0.000633      0.000109     -0.000193      0.000000
     97 O2    c      -0.000925      0.000838     -0.000187      0.000000
     98 O2    c       0.000113      0.000134     -0.000113      0.000000
     99 O2    c       0.000027     -0.000079     -0.000207      0.000000
    100 O3    c      -0.000027      0.000189      0.000339      0.000000
    101 O2    c       0.000082      0.000091     -0.000270      0.000000
    102 O2    c       0.000366      0.000044      0.000547      0.000000
    103 O2    c       0.000334      0.000328     -0.000449      0.000000
    104 O2    c      -0.001313     -0.000016     -0.000331      0.000000
    105 O2    c      -0.000014     -0.000314     -0.000561      0.000000
    106 O2    c      -0.000071      0.000041     -0.000185      0.000000
    107 O3    c       0.000402     -0.000241     -0.000363      0.000000
    108 O2    c       0.000180      0.000144      0.000297      0.000000
    109 O2    c       0.000182      0.000342     -0.000096      0.000000
    110 O2    c      -0.000060      0.000019      0.000637      0.000000
    111 O2    c       0.000261      0.000018      0.000151      0.000000
    112 O2    c      -0.000039     -0.000208     -0.000020      0.000000
    113 O3    c      -0.002174     -0.000573     -0.000456      0.000000
    114 O2    c      -0.000002     -0.000008      0.000136      0.000000
    115 O2    c      -0.000362     -0.000283      0.000337      0.000000
    116 O2    c       0.000421      0.000477      0.000525      0.000000
    117 O2    c       0.000103     -0.000115     -0.000304      0.000000
    118 O2    c       0.000491     -0.000240     -0.000103      0.000000
    119 O2    c       0.000126      0.000046      0.000042      0.000000
    120 O2    c       0.000269      0.000673      0.000647      0.000000
    121 O2    c       0.000283      0.000276      0.000394      0.000000
    122 O2    c       0.000838      0.000520     -0.000917      0.000000
    123 O2    c      -0.000117     -0.000043      0.000077      0.000000
    124 O2    c       0.000246     -0.000136     -0.000199      0.000000
    125 O2    c       0.000059     -0.000008     -0.000004      0.000000
    126 O2    c       0.000332     -0.000105      0.000392      0.000000
    127 O3    c       0.001011     -0.000260      0.000093      0.000000
    128 O2    c      -0.000050      0.000240      0.000045      0.000000
    129 O2    c       0.000027     -0.000228      0.000360      0.000000
    130 O2    c       0.000099      0.000084      0.000182      0.000000
    131 O2    c       0.000086      0.000204      0.000240      0.000000
    132 O2    c       0.000266      0.000089      0.000343      0.000000
    133 O2    c       0.000315      0.000520     -0.000390      0.000000
    134 O2    c       0.000258      0.000077      0.000083      0.000000
    135 O2    c      -0.000051     -0.000076     -0.000335      0.000000
    136 O2    c      -0.000039     -0.000020     -0.000171      0.000000
    137 O2    c       0.000336     -0.000054     -0.000333      0.000000
    138 O2    c       0.000144      0.000518      0.000463      0.000000
    139 O3    c      -0.000944     -0.001561     -0.000865      0.000000
    140 O2    c       0.000475      0.000138      0.000263      0.000000
    141 O2    c      -0.000022     -0.000443      0.000195      0.000000
    142 O2    c       0.000035     -0.000104      0.000250      0.000000
    143 O2    c       0.000176     -0.000071      0.000139      0.000000
    144 O2    c       0.000409      0.000557      0.000660      0.000000
    145 O2    c       0.000430     -0.000064      0.000213      0.000000
    146 O2    c      -0.000016      0.000349     -0.000024      0.000000
    147 O2    c       0.000051     -0.000162     -0.000077      0.000000
    148 O2    c       0.000255     -0.000087     -0.000231      0.000000
    149 O2    c      -0.000018      0.000174     -0.000027      0.000000
    150 O2    c       0.000456     -0.000074      0.000613      0.000000
    151 O2    c       0.000031     -0.000051      0.000086      0.000000
    152 O2    c       0.000630     -0.000104     -0.000143      0.000000
    153 O2    c       0.000022     -0.000027      0.000334      0.000000
    154 O2    c       0.000140     -0.000100      0.001250      0.000000
    155 O2    c       0.000226     -0.000049      0.000532      0.000000
    156 O2    c      -0.000041      0.000125     -0.001686      0.000000
    157 O2    c       0.000400      0.000118     -0.000099      0.000000
    158 O2    c       0.000094      0.000815      0.004004      0.000000
    159 O2    c      -0.000117     -0.000016      0.000006      0.000000
    160 O2    c       0.000294     -0.000158      0.000412      0.000000
    161 O2    c       0.000011     -0.000088      0.000095      0.000000
    162 O2    c       0.000571      0.000064     -0.000506      0.000000
    163 O2    c       0.000289      0.000009      0.000487      0.000000
    164 O2    c       0.000236      0.000183     -0.000284      0.000000
    165 O2    c      -0.000006     -0.000107     -0.000325      0.000000
    166 O2    c       0.000061      0.000207     -0.000352      0.000000
    167 O2    c       0.000038      0.000092      0.000089      0.000000
    168 O2    c       0.000832     -0.000117      0.000419      0.000000
    169 O2    c       0.000451     -0.000084      0.000340      0.000000
    170 O2    c       0.000154      0.000071     -0.000400      0.000000
    171 O2    c       0.000047     -0.000109      0.000195      0.000000
    172 O2    c       0.000414     -0.000243     -0.000383      0.000000
    173 O2    c       0.000011     -0.000041      0.000138      0.000000
    174 O2    c       0.000305      0.000259     -0.000337      0.000000
    175 O2    c       0.000115      0.000413      0.000104      0.000000
    176 O2    c       0.000114      0.000004     -0.000020      0.000000
    177 O2    c       0.000575     -0.000354     -0.002240      0.000000
    178 O2    c      -0.000048     -0.000038      0.000508      0.000000
    179 O2    c       0.000520      0.000389      0.000567      0.000000
    180 O2    c       0.000237     -0.000051     -0.000003      0.000000
    181 F     c      -0.000292      0.000082     -0.000105      0.000000
    182 F     c       0.000024     -0.000064      0.000201      0.000000
    183 F     c      -0.000115      0.000161      0.000047      0.000000
    184 F     c      -0.000078      0.000106     -0.000049      0.000000
    185 F     c      -0.000342      0.000223     -0.001648      0.000000
    186 F     c       0.000009     -0.000069     -0.000050      0.000000
    187 O2    s       0.000071      0.000734     -0.000939      0.000000
    188 O2    s       0.000705      0.000400      0.001971      0.000000
    189 O2    s      -0.000340      0.000165      0.000938      0.000000
    190 O1    s       0.000123      0.000834      0.003137      0.000000
    191 O2    s       0.000038      0.000295     -0.000383      0.000000
    192 O2    s       0.000084      0.000402      0.000817      0.000000
    193 O2    s       0.000400      0.000277      0.000261      0.000000
    194 O2    s      -0.000234     -0.000378     -0.000263      0.000000
    195 O2    s       0.000485     -0.000111     -0.000359      0.000000
    196 O2    s      -0.000057      0.000125     -0.000223      0.000000
    197 O2    s       0.000554      0.000515      0.001540      0.000000
    198 O2    s       0.000237     -0.000023     -0.000158      0.000000
    199 O3    s       0.001148      0.000898      0.001268      0.000000
    200 O2    s       0.000217     -0.000244     -0.000337      0.000000
    201 O2    s       0.000276      0.000306      0.000530      0.000000
    202 O2    s       0.000029      0.000049      0.000655      0.000000
    203 O2    s       0.000931      0.000395      0.001364      0.000000
    204 O2    s       0.000127      0.000262     -0.000676      0.000000
    205 O2    s       0.000639      0.000305     -0.000066      0.000000
    206 O2    s       0.000443     -0.000066     -0.000278      0.000000
    207 O2    s       0.000154     -0.000074     -0.000713      0.000000
    208 O3    s       0.000566      0.000136     -0.001299      0.000000
    209 O2    s       0.000236     -0.000082     -0.000635      0.000000
    210 O2    s       0.000149      0.000493      0.000436      0.000000
    211 O2    s       0.000338      0.001048      0.000339      0.000000
    212 O2    s       0.001585     -0.000402     -0.003384      0.000000
    213 O2    s      -0.000378     -0.000168      0.000425      0.000000
    214 O2    s       0.000107      0.000458     -0.000026      0.000000
    215 O3    s       0.000189      0.000061     -0.000463      0.000000
    216 O2    s       0.001067      0.000161      0.000969      0.000000
    217 O2    s       0.000283      0.000377      0.000413      0.000000
    218 O3    s       0.000321      0.000088      0.001329      0.000000
    219 O2    s      -0.000172     -0.000086     -0.000232      0.000000
    220 O2    s       0.000085     -0.000024      0.000964      0.000000
    221 O2    s      -0.000331      0.001318      0.002738      0.000000
    222 O3    s       0.000560      0.000667     -0.000774      0.000000
    223 O2    s      -0.000565      0.000790      0.000562      0.000000
    224 O2    s       0.000363      0.000949     -0.000914      0.000000
    225 O2    s      -0.000054     -0.000175      0.000040      0.000000
    226 O3    s      -0.000056      0.000292     -0.001171      0.000000
    227 O2    s       0.000097      0.000462      0.000163      0.000000
    228 O2    s       0.000285      0.000257      0.000405      0.000000
    229 O2    s       0.000515     -0.000129     -0.000484      0.000000
    230 O2    s      -0.001602      0.000701     -0.001166      0.000000
    231 O2    s      -0.000044     -0.000332     -0.000177      0.000000
    232 O2    s       0.000184     -0.000140     -0.000446      0.000000
    233 O3    s       0.000687      0.000185     -0.001213      0.000000
    234 O2    s       0.000545      0.000111      0.000898      0.000000
    235 O2    s       0.000293      0.000627      0.000270      0.000000
    236 O2    s      -0.000069     -0.000105      0.000671      0.000000
    237 O2    s       0.001072     -0.000661     -0.000465      0.000000
    238 O2    s       0.000129     -0.000217     -0.000431      0.000000
    239 O3    s       0.001705      0.000747     -0.000773      0.000000
    240 O2    s       0.000269      0.000002      0.000246      0.000000
    241 O2    s      -0.000758      0.000592     -0.000657      0.000000
    242 O2    s       0.000217      0.000176      0.000493      0.000000
    243 O2    s       0.000183     -0.000405     -0.000324      0.000000
    244 O2    s       0.000560      0.000001     -0.000477      0.000000
    245 O2    s       0.000034      0.000128     -0.000119      0.000000
    246 O2    s       0.001059      0.000376      0.001130      0.000000
    247 O2    s       0.000452      0.000499      0.000773      0.000000
    248 O2    s       0.000513      0.000084     -0.002173      0.000000
    249 O2    s      -0.000191     -0.000314      0.000421      0.000000
    250 O2    s      -0.000046      0.000096      0.000095      0.000000
    251 O2    s       0.000048      0.000263      0.000156      0.000000
    252 O2    s       0.001278      0.000266      0.000926      0.000000
    253 O3    s       0.000741      0.000094      0.000125      0.000000
    254 O2    s       0.000188      0.000471     -0.000030      0.000000
    255 O2    s       0.000046     -0.000206      0.000410      0.000000
    256 O2    s      -0.000138     -0.000060      0.000391      0.000000
    257 O2    s       0.000451      0.000045      0.000836      0.000000
    258 O2    s       0.000681      0.000425      0.000684      0.000000
    259 O2    s       0.000376      0.000231     -0.000758      0.000000
    260 O2    s       0.000766     -0.000443     -0.000533      0.000000
    261 O2    s      -0.000321     -0.000242     -0.000492      0.000000
    262 O2    s       0.000139     -0.000084     -0.000547      0.000000
    263 O2    s       0.000307     -0.000075     -0.000192      0.000000
    264 O2    s       0.000398      0.000611      0.000719      0.000000
    265 O3    s       0.000194     -0.000552      0.000665      0.000000
    266 O2    s       0.000491      0.000257      0.000274      0.000000
    267 O2    s       0.000101     -0.000279      0.000361      0.000000
    268 O2    s       0.000084      0.000192      0.000684      0.000000
    269 O2    s       0.000576     -0.000151      0.000867      0.000000
    270 O2    s       0.000540      0.000320      0.001645      0.000000
    271 O2    s       0.000675      0.000433      0.000015      0.000000
    272 O2    s       0.000557      0.000267     -0.000755      0.000000
    273 O2    s      -0.000147     -0.000209     -0.000315      0.000000
    274 O2    s       0.000180     -0.000092     -0.000462      0.000000
    275 O2    s       0.000127      0.000337     -0.000170      0.000000
    276 O2    s       0.000241     -0.000504      0.001916      0.000000
    277 O2    s       0.000104      0.000254      0.000618      0.000000
    278 O2    s       0.000457      0.000100     -0.000051      0.000000
    279 O2    s       0.000374     -0.000351     -0.000050      0.000000
    280 O2    s       0.000017      0.000485      0.000772      0.000000
    281 O2    s       0.000220     -0.000105     -0.000007      0.000000
    282 O2    s       0.000447     -0.000214     -0.000707      0.000000
    283 O2    s       0.000278      0.000482      0.000073      0.000000
    284 O2    s       0.000251      0.000579      0.002404      0.000000
    285 O2    s      -0.000020     -0.000191      0.000206      0.000000
    286 O2    s      -0.000146      0.000164      0.000094      0.000000
    287 O2    s      -0.000039      0.000122     -0.000054      0.000000
    288 O2    s       0.001076     -0.000205     -0.000081      0.000000
    289 O2    s      -0.000108     -0.000026     -0.000379      0.000000
    290 O2    s       0.000856      0.000261     -0.000718      0.000000
    291 O2    s      -0.000039     -0.000057     -0.000557      0.000000
    292 O2    s       0.000142      0.000376     -0.000623      0.000000
    293 O2    s       0.000355     -0.000199     -0.000016      0.000000
    294 O2    s       0.000684     -0.000381      0.000692      0.000000
    295 O2    s       0.000623      0.000146      0.000628      0.000000
    296 O2    s       0.001068     -0.000137     -0.000568      0.000000
    297 O2    s       0.000040     -0.000188      0.000472      0.000000
    298 O2    s       0.000246      0.000208      0.000128      0.000000
    299 O2    s       0.000570     -0.000097      0.000456      0.000000
    300 O2    s       0.000321      0.000178      0.000226      0.000000
    301 O2    s       0.000385      0.000103     -0.000040      0.000000
    302 O2    s       0.000360     -0.000222      0.000083      0.000000
    303 O2    s      -0.000028      0.000429     -0.001325      0.000000
    304 O2    s       0.000127     -0.000191      0.000716      0.000000
    305 O2    s       0.000815     -0.000349      0.000937      0.000000
    306 O2    s       0.000630     -0.000080      0.000352      0.000000
    307 F     s      -0.000080      0.000249      0.000049      0.000000
    308 F     s       0.000033     -0.000093      0.000166      0.000000
    309 F     s      -0.000131      0.000251      0.000193      0.000000
    310 F     s      -0.000037      0.000023     -0.000114      0.000000
    311 F     s      -0.001493      0.000303     -0.002306      0.000000
    312 F     s      -0.000108      0.000128     -0.000157      0.000000
--------------------------------------------------------------------------------
  Maximum abs         0.002174      0.002069      0.008389      0.000000
--------------------------------------------------------------------------------


  Time to end of optimisation =     203.6918 seconds


  Peak dynamic memory used =      19.13 MB 


  Timing analysis for GULP :

--------------------------------------------------------------------------------
  Task / Subroutine                                          Time (Seconds)
--------------------------------------------------------------------------------
  Calculation of reciprocal space energy and derivatives          4.9348
  Calculation of real space energy and derivatives              177.8130
  Calculation of three-body energy and derivatives               18.4165
  Calculation of matrix inversion                                 2.2421
  Global summation overhead                                       0.0005
--------------------------------------------------------------------------------
  Total CPU time                                                203.6919
--------------------------------------------------------------------------------


  Dump file written as out.res                                                 
  CIF file written as out.cif                                                 


  Job Finished at 16:48.05 12th November   2016                               

