********************************************************************************
*                       GENERAL UTILITY LATTICE PROGRAM                        *
*                                 Julian Gale                                  *
*                      Nanochemistry Research Institute                        *
*                           Department of Chemistry                            *
*                    Curtin University, Western Australia                      *
********************************************************************************
* Version = 4.2.0 * Last modified =  20th January 2014                         *
********************************************************************************
*  optimise     - perform optimisation run                                     *
*  conp         - constant pressure calculation                                *
*  qok          - running with non charge neutral cell is OK                   *
********************************************************************************

  Job Started  at 17:08.36  1st December   2016                               

  Number of CPUs =     1


  Total number of configurations input =   1

********************************************************************************
*  Input for Configuration =   1                                               *
********************************************************************************

  Formula = Ge3Si57O120F6                                               

  Number of irreducible atoms/shells =     312


  Total number atoms/shells =     312

  Dimensionality = 3               :  Bulk   


  Charge on solid   =  -6.000000 =>neutralising background added


  Cartesian lattice vectors (Angstroms) :

       11.996624    0.000000    0.000000
       -6.054397   10.359171    0.000000
        0.017249    0.012412   29.395591

  Cell parameters (Angstroms/Degrees):

  a =      11.9966    alpha =  89.9961
  b =      11.9987    beta  =  89.9664
  c =      29.3956    gamma = 120.3041

  Initial cell volume =        3653.139462 Angs**3

  Temperature of configuration =  0.000     K 

  Pressure of configuration =         0.000 GPa 

  Fractional coordinates of asymmetric unit :

--------------------------------------------------------------------------------
   No.  Atomic       x           y          z         Charge      Occupancy
        Label      (Frac)      (Frac)     (Frac)        (e)         (Frac)  
--------------------------------------------------------------------------------
      1 Ge    c    0.699600    0.375700    0.033890     4.00000    1.000000    
      2 Si    c    0.618633 *  0.318152 *  0.368284 *   4.00000    1.000000    
      3 Si    c    0.676792 *  0.296817 *  0.699823 *   4.00000    1.000000    
      4 Si    c    0.299783 *  0.630741 *  0.533474 *   4.00000    1.000000    
      5 Si    c    0.380961 *  0.677720 *  0.865249 *   4.00000    1.000000    
      6 Si    c    0.323535 *  0.701956 *  0.200015 *   4.00000    1.000000    
      7 Si    c    0.377508 *  0.699002 *  0.300868 *   4.00000    1.000000    
      8 Si    c    0.328724 *  0.626862 *  0.966102 *   4.00000    1.000000    
      9 Si    c    0.297097 *  0.680075 *  0.634528 *   4.00000    1.000000    
     10 Si    c    0.622279 *  0.296810 *  0.800720 *   4.00000    1.000000    
     11 Si    c    0.681259 *  0.375590 *  0.470671 *   4.00000    1.000000    
     12 Si    c    0.697205 *  0.316718 *  0.135100 *   4.00000    1.000000    
     13 Si    c    0.525759 *  0.416304 *  0.967613 *   4.00000    1.000000    
     14 Si    c    0.582425 *  0.108093 *  0.303847 *   4.00000    1.000000    
     15 Si    c    0.887717 *  0.469271 *  0.634429 *   4.00000    1.000000    
     16 Si    c    0.467950 *  0.589258 *  0.470508 *   4.00000    1.000000    
     17 Si    c    0.417689 *  0.888473 *  0.801063 *   4.00000    1.000000    
     18 Si    c    0.115779 *  0.530254 *  0.132830 *   4.00000    1.000000    
     19 Si    c    0.411227 *  0.526055 *  0.367378 *   4.00000    1.000000    
     20 Si    c    0.116902 *  0.587719 *  0.029215 *   4.00000    1.000000    
     21 Si    c    0.470362 *  0.889500 *  0.699436 *   4.00000    1.000000    
     22 Si    c    0.581448 *  0.468044 *  0.865511 *   4.00000    1.000000    
     23 Si    c    0.897050 *  0.420679 *  0.533208 *   4.00000    1.000000    
     24 Si    c    0.531274 *  0.109856 *  0.202330 *   4.00000    1.000000    
     25 Si    c    0.301151 *  0.399048 *  0.850667 *   4.00000    1.000000    
     26 Si    c    0.603436 *  0.903324 *  0.185913 *   4.00000    1.000000    
     27 Si    c    0.097025 *  0.703214 *  0.518520 *   4.00000    1.000000    
     28 Si    c    0.696198 *  0.598556 *  0.352512 *   4.00000    1.000000    
     29 Si    c    0.397435 *  0.096464 *  0.684650 *   4.00000    1.000000    
     30 Ge    c    0.899342 *  0.303281 *  0.017048 *   4.00000    1.000000    
     31 Ge    c    0.410825 *  0.316266 *  0.477328 *   4.00000    1.000000    
     32 Si    c    0.902917 *  0.600450 *  0.147205 *   4.00000    1.000000    
     33 Si    c    0.699411 *  0.096412 *  0.815699 *   4.00000    1.000000    
     34 Si    c    0.605032 *  0.699542 *  0.980903 *   4.00000    1.000000    
     35 Si    c    0.098006 *  0.399778 *  0.648343 *   4.00000    1.000000    
     36 Si    c    0.300647 *  0.899160 *  0.316988 *   4.00000    1.000000    
     37 Si    c    0.248727 *  0.344237 *  0.951568 *   4.00000    1.000000    
     38 Si    c    0.659538 *  0.908374 *  0.286907 *   4.00000    1.000000    
     39 Si    c    0.087001 *  0.749976 *  0.619563 *   4.00000    1.000000    
     40 Si    c    0.748822 *  0.660534 *  0.454543 *   4.00000    1.000000    
     41 Si    c    0.340281 *  0.088570 *  0.785752 *   4.00000    1.000000    
     42 Si    c    0.911364 *  0.246733 *  0.118439 *   4.00000    1.000000    
     43 Si    c    0.330955 *  0.243005 *  0.381091 *   4.00000    1.000000    
     44 Si    c    0.910734 *  0.662614 *  0.044714 *   4.00000    1.000000    
     45 Si    c    0.749821 *  0.089381 *  0.714617 *   4.00000    1.000000    
     46 Si    c    0.660906 *  0.747702 *  0.879799 *   4.00000    1.000000    
     47 Si    c    0.098064 *  0.345007 *  0.547258 *   4.00000    1.000000    
     48 Si    c    0.251114 *  0.909439 *  0.216070 *   4.00000    1.000000    
     49 Si    c    0.969585 *  0.121559 *  0.965656 *   4.00000    1.000000    
     50 Si    c    0.875275 *  0.844513 *  0.300307 *   4.00000    1.000000    
     51 Si    c    0.150466 *  0.030204 *  0.632878 *   4.00000    1.000000    
     52 Si    c    0.029653 *  0.882511 *  0.467556 *   4.00000    1.000000    
     53 Si    c    0.122948 *  0.150564 *  0.799516 *   4.00000    1.000000    
     54 Si    c    0.850341 *  0.970182 *  0.134465 *   4.00000    1.000000    
     55 Si    c    0.119087 *  0.966063 *  0.365389 *   4.00000    1.000000    
     56 Si    c    0.853122 *  0.882330 *  0.032361 *   4.00000    1.000000    
     57 Si    c    0.029537 *  0.151026 *  0.698505 *   4.00000    1.000000    
     58 Si    c    0.879671 *  0.026781 *  0.864891 *   4.00000    1.000000    
     59 Si    c    0.161334 *  0.127727 *  0.531353 *   4.00000    1.000000    
     60 Si    c    0.971523 *  0.847594 *  0.199200 *   4.00000    1.000000    
     61 O2    c    0.933007 *  0.003678 *  0.000129 *   0.87073    1.000000    
     62 O2    c    0.997849 *  0.920854 *  0.332278 *   0.87073    1.000000    
     63 O2    c    0.069787 *  0.072415 *  0.664893 *   0.87073    1.000000    
     64 O2    c    0.071215 *  0.004741 *  0.499173 *   0.87073    1.000000    
     65 O2    c    0.999223 *  0.069673 *  0.831145 *   0.87073    1.000000    
     66 O2    c    0.931074 *  0.926757 *  0.166038 *   0.87073    1.000000    
     67 O2    c    0.338707 *  0.575746 *  0.333540 *   0.87073    1.000000    
     68 O2    c    0.420340 *  0.763581 *  0.667164 *   0.87073    1.000000    
     69 O2    c    0.247404 *  0.669362 *  0.999312 *   0.87073    1.000000    
     70 O2    c    0.658998 *  0.419378 *  0.833552 *   0.87073    1.000000    
     71 O2    c    0.583004 *  0.238266 *  0.171748 *   0.87073    1.000000    
     72 O2    c    0.775458 *  0.342692 *  0.499143 *   0.87073    1.000000    
     73 O3    c    0.563903 *  0.337961 *  0.001150 *   1.33043    1.000000    
     74 O2    c    0.761889 *  0.419563 *  0.666785 *   0.87073    1.000000    
     75 O2    c    0.658565 *  0.234057 *  0.336191 *   0.87073    1.000000    
     76 O2    c    0.423911 *  0.675110 *  0.500096 *   0.87073    1.000000    
     77 O2    c    0.239853 *  0.580989 *  0.165940 *   0.87073    1.000000    
     78 O2    c    0.341250 *  0.761935 *  0.833091 *   0.87073    1.000000    
     79 O2    c    0.123003 *  0.219720 *  0.972528 *   0.87073    1.000000    
     80 O2    c    0.785928 *  0.908508 *  0.306669 *   0.87073    1.000000    
     81 O2    c    0.086405 *  0.875730 *  0.639456 *   0.87073    1.000000    
     82 O2    c    0.874907 *  0.788260 *  0.473206 *   0.87073    1.000000    
     83 O2    c    0.214173 *  0.088483 *  0.805848 *   0.87073    1.000000    
     84 O2    c    0.912285 *  0.123765 *  0.141741 *   0.87073    1.000000    
     85 O2    c    0.211022 *  0.118804 *  0.356163 *   0.87073    1.000000    
     86 O2    c    0.922175 *  0.797099 *  0.028490 *   0.87073    1.000000    
     87 O2    c    0.874990 *  0.088120 *  0.694293 *   0.87073    1.000000    
     88 O2    c    0.787369 *  0.872704 *  0.858883 *   0.87073    1.000000    
     89 O2    c    0.101122 *  0.222440 *  0.526344 *   0.87073    1.000000    
     90 O2    c    0.126245 *  0.911613 *  0.195860 *   0.87073    1.000000    
     91 O2    c    0.924822 *  0.855504 *  0.249281 *   0.87073    1.000000    
     92 O2    c    0.139180 *  0.069262 *  0.582128 *   0.87073    1.000000    
     93 O2    c    0.936575 *  0.062507 *  0.915195 *   0.87073    1.000000    
     94 O2    c    0.072472 *  0.137224 *  0.748529 *   0.87073    1.000000    
     95 O2    c    0.860966 *  0.932687 *  0.083461 *   0.87073    1.000000    
     96 O2    c    0.064367 *  0.930307 *  0.415862 *   0.87073    1.000000    
     97 O3    c    0.895792 *  0.195782 *  0.975706 *   1.33043    1.000000    
     98 O2    c    0.790745 *  0.692784 *  0.313036 *   0.87073    1.000000    
     99 O2    c    0.301683 *  0.098871 *  0.646182 *   0.87073    1.000000    
    100 O2    c    0.098485 *  0.800438 *  0.479687 *   0.87073    1.000000    
    101 O2    c    0.203968 *  0.302172 *  0.811946 *   0.87073    1.000000    
    102 O2    c    0.698790 *  0.899904 *  0.147545 *   0.87073    1.000000    
    103 O2    c    0.200951 *  0.895136 *  0.355141 *   0.87073    1.000000    
    104 O2    c    0.702166 *  0.796731 *  0.019694 *   0.87073    1.000000    
    105 O2    c    0.098620 *  0.302995 *  0.686813 *   0.87073    1.000000    
    106 O2    c    0.797335 *  0.096862 *  0.854097 *   0.87073    1.000000    
    107 O3    c    0.307747 *  0.203252 *  0.519431 *   1.33043    1.000000    
    108 O2    c    0.904480 *  0.696661 *  0.186130 *   0.87073    1.000000    
    109 O2    c    0.321189 *  0.642492 *  0.250202 *   0.87073    1.000000    
    110 O2    c    0.355675 *  0.684451 *  0.584086 *   0.87073    1.000000    
    111 O2    c    0.325661 *  0.681295 *  0.915661 *   0.87073    1.000000    
    112 O2    c    0.679008 *  0.354628 *  0.750302 *   0.87073    1.000000    
    113 O3    c    0.630756 *  0.310244 *  0.087520 *   1.33043    1.000000    
    114 O2    c    0.673940 *  0.321693 *  0.418627 *   0.87073    1.000000    
    115 O2    c    0.369032 *  0.332085 *  0.969371 *   0.87073    1.000000    
    116 O2    c    0.669425 *  0.039303 *  0.306618 *   0.87073    1.000000    
    117 O2    c    0.955164 *  0.625625 *  0.637707 *   0.87073    1.000000    
    118 O2    c    0.625654 *  0.670713 *  0.470914 *   0.87073    1.000000    
    119 O2    c    0.329816 *  0.956272 *  0.804305 *   0.87073    1.000000    
    120 O2    c    0.043741 *  0.374444 *  0.134865 *   0.87073    1.000000    
    121 O2    c    0.325392 *  0.370074 *  0.364284 *   0.87073    1.000000    
    122 O2    c    0.043891 *  0.670670 *  0.028024 *   0.87073    1.000000    
    123 O2    c    0.626521 *  0.957164 *  0.696244 *   0.87073    1.000000    
    124 O2    c    0.669117 *  0.624409 *  0.861830 *   0.87073    1.000000    
    125 O2    c    0.964428 *  0.333190 *  0.529489 *   0.87073    1.000000    
    126 O2    c    0.375095 *  0.041648 *  0.198241 *   0.87073    1.000000    
    127 O1    c    0.753526 *  0.288304 *  0.003867 *   1.73396    1.000000    
    128 O2    c    0.692156 *  0.462939 *  0.347022 *   0.87073    1.000000    
    129 O2    c    0.533302 *  0.229770 *  0.677561 *   0.87073    1.000000    
    130 O2    c    0.231763 *  0.705478 *  0.511246 *   0.87073    1.000000    
    131 O2    c    0.305053 *  0.534539 *  0.842584 *   0.87073    1.000000    
    132 O2    c    0.467323 *  0.770707 *  0.178120 *   0.87073    1.000000    
    133 O2    c    0.302270 *  0.765966 *  0.323536 *   0.87073    1.000000    
    134 O2    c    0.472128 *  0.701626 *  0.988528 *   0.87073    1.000000    
    135 O2    c    0.229642 *  0.536097 *  0.656321 *   0.87073    1.000000    
    136 O2    c    0.698277 *  0.229821 *  0.823150 *   0.87073    1.000000    
    137 O3    c    0.544175 *  0.300617 *  0.494365 *   1.33043    1.000000    
    138 O2    c    0.771515 *  0.464757 *  0.153985 *   0.87073    1.000000    
    139 O3    c    0.783837 *  0.545500 *  0.024623 *   1.33043    1.000000    
    140 O2    c    0.463698 *  0.250858 *  0.363575 *   0.87073    1.000000    
    141 O2    c    0.750922 *  0.215461 *  0.694996 *   0.87073    1.000000    
    142 O2    c    0.220705 *  0.474996 *  0.527809 *   0.87073    1.000000    
    143 O2    c    0.536993 *  0.750977 *  0.860193 *   0.87073    1.000000    
    144 O2    c    0.248543 *  0.782671 *  0.196033 *   0.87073    1.000000    
    145 O2    c    0.533856 *  0.779939 *  0.305640 *   0.87073    1.000000    
    146 O2    c    0.250672 *  0.470814 *  0.971610 *   0.87073    1.000000    
    147 O2    c    0.213384 *  0.751656 *  0.639204 *   0.87073    1.000000    
    148 O2    c    0.466101 *  0.214681 *  0.805451 *   0.87073    1.000000    
    149 O2    c    0.744539 *  0.532700 *  0.473159 *   0.87073    1.000000    
    150 O2    c    0.787155 *  0.251160 *  0.137468 *   0.87073    1.000000    
    151 O2    c    0.227755 *  0.326919 *  0.897101 *   0.87073    1.000000    
    152 O2    c    0.677612 *  0.908222 *  0.232506 *   0.87073    1.000000    
    153 O2    c    0.089402 *  0.770613 *  0.565108 *   0.87073    1.000000    
    154 O2    c    0.761293 *  0.668417 *  0.399692 *   0.87073    1.000000    
    155 O2    c    0.323132 *  0.090877 *  0.731324 *   0.87073    1.000000    
    156 O3    c    0.909377 *  0.222445 *  0.065446 *   1.33043    1.000000    
    157 O3    c    0.303561 *  0.214103 *  0.433555 *   1.33043    1.000000    
    158 O2    c    0.906003 *  0.668048 *  0.099925 *   0.87073    1.000000    
    159 O2    c    0.769123 *  0.091911 *  0.769089 *   0.87073    1.000000    
    160 O2    c    0.680071 *  0.768735 *  0.934276 *   0.87073    1.000000    
    161 O2    c    0.098548 *  0.328084 *  0.601818 *   0.87073    1.000000    
    162 O2    c    0.231711 *  0.905596 *  0.270452 *   0.87073    1.000000    
    163 O2    c    0.587083 *  0.559451 *  0.990322 *   0.87073    1.000000    
    164 O2    c    0.440643 *  0.023918 *  0.326725 *   0.87073    1.000000    
    165 O2    c    0.971600 *  0.411672 *  0.656936 *   0.87073    1.000000    
    166 O3    c    0.407914 *  0.454520 *  0.496275 *   1.33043    1.000000    
    167 O2    c    0.558900 *  0.971829 *  0.824495 *   0.87073    1.000000    
    168 O2    c    0.025282 *  0.581410 *  0.153643 *   0.87073    1.000000    
    169 O2    c    0.554069 *  0.577668 *  0.346673 *   0.87073    1.000000    
    170 O3    c    0.036831 *  0.450669 *  0.005059 *   1.33043    1.000000    
    171 O2    c    0.412373 *  0.971909 *  0.675889 *   0.87073    1.000000    
    172 O2    c    0.439693 *  0.410572 *  0.842768 *   0.87073    1.000000    
    173 O2    c    0.973825 *  0.562125 *  0.509227 *   0.87073    1.000000    
    174 O2    c    0.589856 *  0.028959 *  0.177810 *   0.87073    1.000000    
    175 O2    c    0.583894 *  0.162397 *  0.253222 *   0.87073    1.000000    
    176 O2    c    0.836441 *  0.416718 *  0.583198 *   0.87073    1.000000    
    177 O2    c    0.581084 *  0.417229 *  0.916724 *   0.87073    1.000000    
    178 O2    c    0.416740 *  0.835215 *  0.750169 *   0.87073    1.000000    
    179 O2    c    0.160205 *  0.579849 *  0.081394 *   0.87073    1.000000    
    180 O2    c    0.414972 *  0.579805 *  0.418171 *   0.87073    1.000000    
    181 F     c    0.452652 *  0.902602 *  0.251489 *   0.56000    1.000000    
    182 F     c    0.094569 *  0.550219 *  0.582789 *   0.56000    1.000000    
    183 F     c    0.451729 *  0.551143 *  0.916095 *   0.56000    1.000000    
    184 F     c    0.548194 *  0.095329 *  0.750262 *   0.56000    1.000000    
    185 F     c    0.877500 *  0.426782 *  0.070312 *   0.56000    1.000000    
    186 F     c    0.517018 *  0.423768 *  0.428318 *   0.56000    1.000000    
    187 O2    s    0.927731 *  0.002412 *  0.000123 *  -2.87073    1.000000    
    188 O2    s    0.997167 *  0.917005 *  0.332276 *  -2.87073    1.000000    
    189 O2    s    0.074197 *  0.076571 *  0.665128 *  -2.87073    1.000000    
    190 O2    s    0.075755 *  0.003390 *  0.498862 *  -2.87073    1.000000    
    191 O2    s    0.999765 *  0.073996 *  0.831362 *  -2.87073    1.000000    
    192 O2    s    0.926783 *  0.922596 *  0.166317 *  -2.87073    1.000000    
    193 O2    s    0.350211 *  0.583292 *  0.333665 *  -2.87073    1.000000    
    194 O2    s    0.412642 *  0.767881 *  0.667078 *  -2.87073    1.000000    
    195 O2    s    0.242076 *  0.656807 *  0.999092 *  -2.87073    1.000000    
    196 O2    s    0.647284 *  0.411780 *  0.833451 *  -2.87073    1.000000    
    197 O2    s    0.589387 *  0.232790 *  0.171173 *  -2.87073    1.000000    
    198 O2    s    0.777825 *  0.354294 *  0.499557 *  -2.87073    1.000000    
    199 O3    s    0.570260 *  0.349001 *  0.000163 *  -3.33043    1.000000    
    200 O2    s    0.766168 *  0.412110 *  0.666842 *  -2.87073    1.000000    
    201 O2    s    0.646552 *  0.229769 *  0.336188 *  -2.87073    1.000000    
    202 O2    s    0.416097 *  0.662062 *  0.500411 *  -2.87073    1.000000    
    203 O2    s    0.235376 *  0.587945 *  0.165951 *  -2.87073    1.000000    
    204 O2    s    0.353267 *  0.766340 *  0.833108 *  -2.87073    1.000000    
    205 O2    s    0.120335 *  0.222664 *  0.969636 *  -2.87073    1.000000    
    206 O2    s    0.782360 *  0.901643 *  0.303971 *  -2.87073    1.000000    
    207 O2    s    0.093139 *  0.878766 *  0.636734 *  -2.87073    1.000000    
    208 O2    s    0.877407 *  0.784305 *  0.470636 *  -2.87073    1.000000    
    209 O2    s    0.217549 *  0.095068 *  0.803127 *  -2.87073    1.000000    
    210 O2    s    0.905679 *  0.119948 *  0.138693 *  -2.87073    1.000000    
    211 O2    s    0.213332 *  0.115122 *  0.359567 *  -2.87073    1.000000    
    212 O2    s    0.913615 *  0.792192 *  0.030579 *  -2.87073    1.000000    
    213 O2    s    0.878412 *  0.094925 *  0.696820 *  -2.87073    1.000000    
    214 O2    s    0.784041 *  0.876071 *  0.861660 *  -2.87073    1.000000    
    215 O2    s    0.106817 *  0.226068 *  0.529056 *  -2.87073    1.000000    
    216 O2    s    0.122639 *  0.904560 *  0.198278 *  -2.87073    1.000000    
    217 O2    s    0.924476 *  0.853342 *  0.249405 *  -2.87073    1.000000    
    218 O2    s    0.142821 *  0.071007 *  0.582542 *  -2.87073    1.000000    
    219 O2    s    0.933760 *  0.064918 *  0.915022 *  -2.87073    1.000000    
    220 O2    s    0.073329 *  0.140312 *  0.748640 *  -2.87073    1.000000    
    221 O2    s    0.858886 *  0.931474 *  0.083745 *  -2.87073    1.000000    
    222 O2    s    0.066773 *  0.929095 *  0.415771 *  -2.87073    1.000000    
    223 O3    s    0.904148 *  0.195608 *  0.977643 *  -3.33043    1.000000    
    224 O2    s    0.789627 *  0.698727 *  0.315846 *  -2.87073    1.000000    
    225 O2    s    0.295680 *  0.091426 *  0.648750 *  -2.87073    1.000000    
    226 O2    s    0.091011 *  0.799284 *  0.482345 *  -2.87073    1.000000    
    227 O2    s    0.205318 *  0.296002 *  0.814588 *  -2.87073    1.000000    
    228 O2    s    0.704801 *  0.907618 *  0.150155 *  -2.87073    1.000000    
    229 O2    s    0.202704 *  0.902907 *  0.352265 *  -2.87073    1.000000    
    230 O2    s    0.708439 *  0.796029 *  0.017120 *  -2.87073    1.000000    
    231 O2    s    0.091243 *  0.296840 *  0.684101 *  -2.87073    1.000000    
    232 O2    s    0.795993 *  0.089536 *  0.851335 *  -2.87073    1.000000    
    233 O3    s    0.298126 *  0.202315 *  0.517964 *  -3.33043    1.000000    
    234 O2    s    0.911428 *  0.702615 *  0.183453 *  -2.87073    1.000000    
    235 O2    s    0.327078 *  0.654189 *  0.250212 *  -2.87073    1.000000    
    236 O2    s    0.343896 *  0.678441 *  0.583995 *  -2.87073    1.000000    
    237 O2    s    0.331593 *  0.675308 *  0.915740 *  -2.87073    1.000000    
    238 O2    s    0.673020 *  0.342878 *  0.750304 *  -2.87073    1.000000    
    239 O3    s    0.642552 *  0.315627 *  0.088492 *  -3.33043    1.000000    
    240 O2    s    0.668686 *  0.326544 *  0.418278 *  -2.87073    1.000000    
    241 O2    s    0.372100 *  0.342114 *  0.967227 *  -2.87073    1.000000    
    242 O2    s    0.659433 *  0.032650 *  0.304264 *  -2.87073    1.000000    
    243 O2    s    0.962087 *  0.622678 *  0.635461 *  -2.87073    1.000000    
    244 O2    s    0.622890 *  0.661444 *  0.469119 *  -2.87073    1.000000    
    245 O2    s    0.339924 *  0.963135 *  0.802028 *  -2.87073    1.000000    
    246 O2    s    0.037822 *  0.377806 *  0.132977 *  -2.87073    1.000000    
    247 O2    s    0.334881 *  0.373652 *  0.366296 *  -2.87073    1.000000    
    248 O2    s    0.037739 *  0.661266 *  0.029872 *  -2.87073    1.000000    
    249 O2    s    0.623337 *  0.964046 *  0.698509 *  -2.87073    1.000000    
    250 O2    s    0.659247 *  0.621320 *  0.864108 *  -2.87073    1.000000    
    251 O2    s    0.971302 *  0.343645 *  0.531750 *  -2.87073    1.000000    
    252 O2    s    0.378016 *  0.034652 *  0.200553 *  -2.87073    1.000000    
    253 O1    s    0.760829 *  0.295920 *  0.007134 *  -3.73396    1.000000    
    254 O2    s    0.685045 *  0.462617 *  0.349797 *  -2.87073    1.000000    
    255 O2    s    0.533828 *  0.222698 *  0.680631 *  -2.87073    1.000000    
    256 O2    s    0.224510 *  0.697517 *  0.514354 *  -2.87073    1.000000    
    257 O2    s    0.312441 *  0.534981 *  0.845788 *  -2.87073    1.000000    
    258 O2    s    0.466605 *  0.777435 *  0.181252 *  -2.87073    1.000000    
    259 O2    s    0.309895 *  0.773044 *  0.320456 *  -2.87073    1.000000    
    260 O2    s    0.471233 *  0.693737 *  0.985396 *  -2.87073    1.000000    
    261 O2    s    0.222687 *  0.536565 *  0.653193 *  -2.87073    1.000000    
    262 O2    s    0.690664 *  0.222751 *  0.820059 *  -2.87073    1.000000    
    263 O3    s    0.549027 *  0.309624 *  0.490617 *  -3.33043    1.000000    
    264 O2    s    0.778311 *  0.464609 *  0.151333 *  -2.87073    1.000000    
    265 O3    s    0.791722 *  0.546064 *  0.027421 *  -3.33043    1.000000    
    266 O2    s    0.466654 *  0.257316 *  0.365857 *  -2.87073    1.000000    
    267 O2    s    0.742985 *  0.210190 *  0.697601 *  -2.87073    1.000000    
    268 O2    s    0.215710 *  0.477434 *  0.530458 *  -2.87073    1.000000    
    269 O2    s    0.534069 *  0.742861 *  0.862817 *  -2.87073    1.000000    
    270 O2    s    0.256658 *  0.787861 *  0.198564 *  -2.87073    1.000000    
    271 O2    s    0.531167 *  0.785427 *  0.303147 *  -2.87073    1.000000    
    272 O2    s    0.258681 *  0.473631 *  0.968944 *  -2.87073    1.000000    
    273 O2    s    0.208386 *  0.743883 *  0.636617 *  -2.87073    1.000000    
    274 O2    s    0.468770 *  0.209482 *  0.802847 *  -2.87073    1.000000    
    275 O2    s    0.738601 *  0.531274 *  0.470872 *  -2.87073    1.000000    
    276 O2    s    0.791138 *  0.257547 *  0.135191 *  -2.87073    1.000000    
    277 O2    s    0.237654 *  0.336335 *  0.897936 *  -2.87073    1.000000    
    278 O2    s    0.667876 *  0.907715 *  0.233422 *  -2.87073    1.000000    
    279 O2    s    0.089946 *  0.761310 *  0.565905 *  -2.87073    1.000000    
    280 O2    s    0.752912 *  0.659995 *  0.400283 *  -2.87073    1.000000    
    281 O2    s    0.332764 *  0.091223 *  0.732203 *  -2.87073    1.000000    
    282 O3    s    0.908810 *  0.230996 *  0.067435 *  -3.33043    1.000000    
    283 O3    s    0.313651 *  0.224039 *  0.430914 *  -3.33043    1.000000    
    284 O2    s    0.906114 *  0.659978 *  0.099551 *  -2.87073    1.000000    
    285 O2    s    0.759800 *  0.092119 *  0.768195 *  -2.87073    1.000000    
    286 O2    s    0.670219 *  0.759308 *  0.933453 *  -2.87073    1.000000    
    287 O2    s    0.098461 *  0.337446 *  0.600963 *  -2.87073    1.000000    
    288 O2    s    0.240958 *  0.905322 *  0.269479 *  -2.87073    1.000000    
    289 O2    s    0.582670 *  0.560322 *  0.986985 *  -2.87073    1.000000    
    290 O2    s    0.440492 *  0.019203 *  0.323295 *  -2.87073    1.000000    
    291 O2    s    0.976600 *  0.416602 *  0.653646 *  -2.87073    1.000000    
    292 O3    s    0.414530 *  0.458198 *  0.492225 *  -3.33043    1.000000    
    293 O2    s    0.559360 *  0.976777 *  0.821107 *  -2.87073    1.000000    
    294 O2    s    0.021513 *  0.577919 *  0.150722 *  -2.87073    1.000000    
    295 O2    s    0.554728 *  0.574416 *  0.349495 *  -2.87073    1.000000    
    296 O3    s    0.033915 *  0.453046 *  0.008484 *  -3.33043    1.000000    
    297 O2    s    0.416984 *  0.976903 *  0.679282 *  -2.87073    1.000000    
    298 O2    s    0.439621 *  0.415504 *  0.845996 *  -2.87073    1.000000    
    299 O2    s    0.979367 *  0.562823 *  0.512699 *  -2.87073    1.000000    
    300 O2    s    0.585098 *  0.023654 *  0.181204 *  -2.87073    1.000000    
    301 O2    s    0.578187 *  0.151096 *  0.253237 *  -2.87073    1.000000    
    302 O2    s    0.847958 *  0.422567 *  0.583327 *  -2.87073    1.000000    
    303 O2    s    0.575593 *  0.422460 *  0.916521 *  -2.87073    1.000000    
    304 O2    s    0.422455 *  0.846469 *  0.750176 *  -2.87073    1.000000    
    305 O2    s    0.151125 *  0.575292 *  0.081735 *  -2.87073    1.000000    
    306 O2    s    0.419686 *  0.574966 *  0.417863 *  -2.87073    1.000000    
    307 F     s    0.452527 *  0.902332 *  0.251478 *  -1.56000    1.000000    
    308 F     s    0.094537 *  0.550293 *  0.582663 *  -1.56000    1.000000    
    309 F     s    0.451435 *  0.551594 *  0.916116 *  -1.56000    1.000000    
    310 F     s    0.548363 *  0.095625 *  0.750265 *  -1.56000    1.000000    
    311 F     s    0.873154 *  0.422973 *  0.068457 *  -1.56000    1.000000    
    312 F     s    0.510563 *  0.417212 *  0.431112 *  -1.56000    1.000000    
--------------------------------------------------------------------------------



********************************************************************************
*  General input information                                                   *
********************************************************************************

  Species output for all configurations : 

--------------------------------------------------------------------------------
  Species    Type    Atomic    Atomic    Charge       Radii (Angs)     Library
                     Number     Mass       (e)     Cova   Ionic  VDW   Symbol
--------------------------------------------------------------------------------
    Si       Core       14      28.09   4.000000   1.200  0.000  2.100          
    O1       Core        8      16.00   1.733957   0.730  0.000  1.360          
    O1       Shell       8       0.00  -3.733957   0.730  0.000  1.360          
    O2       Core        8      16.00   0.870733   0.730  0.000  1.360          
    O2       Shell       8       0.00  -2.870733   0.730  0.000  1.360          
    O3       Core        8      16.00   1.330431   0.730  0.000  1.360          
    O3       Shell       8       0.00  -3.330431   0.730  0.000  1.360          
    F        Core        9      19.00   0.560000   0.710  0.000  1.300          
    F        Shell       9       0.00  -1.560000   0.710  0.000  1.300          
    Ge       Core       32      72.61   4.000000   1.170  0.000  1.750          
--------------------------------------------------------------------------------


  Lattice summation method               =    Ewald          (3-D)
                                         =    Parry          (2-D)
                                         =    Saunders et al (1-D)
  Accuracy factor for lattice sums       =   12.000


  Time limit = Infinity

  Maximum range for interatomic potentials =        16.000000 Angstroms

  Taper potentials to zero over   1.0000 Angstroms using polynomial

  General interatomic potentials :

--------------------------------------------------------------------------------
Atom  Types   Potential         A         B         C         D     Cutoffs(Ang)
  1     2                                                            Min    Max 
--------------------------------------------------------------------------------
Si   c O1   s Buckingham    0.132E+04 0.318      10.1      0.00     0.000 16.000
Si   c O2   s Buckingham    0.132E+04 0.318      10.1      0.00     0.000 16.000
Si   c O3   s Buckingham    0.132E+04 0.318      10.1      0.00     0.000 16.000
Ge   c O1   s Buckingham    0.150E+04 0.326      16.8      0.00     0.000 16.000
Ge   c O2   s Buckingham    0.150E+04 0.326      16.8      0.00     0.000 16.000
Ge   c O3   s Buckingham    0.150E+04 0.326      16.8      0.00     0.000 16.000
O1   s O1   s Buckingham    0.228E+05 0.149      10.9      0.00     0.000 16.000
O1   s O2   s Buckingham    0.228E+05 0.149      10.9      0.00     0.000 16.000
O1   s O3   s Buckingham    0.228E+05 0.149      10.9      0.00     0.000 16.000
O2   s O2   s Buckingham    0.228E+05 0.149      10.9      0.00     0.000 16.000
O2   s O3   s Buckingham    0.228E+05 0.149      10.9      0.00     0.000 16.000
O3   s O3   s Buckingham    0.228E+05 0.149      10.9      0.00     0.000 16.000
Si   c F    s Buckingham     977.     0.282      0.00      0.00     0.000 16.000
Ge   c F    s Buckingham     681.     0.320      0.00      0.00     0.000 16.000
F    s F    s Buckingham     540.     0.262      0.00      0.00     0.000 16.000
O1   s F    s Buckingham    0.168E+04 0.268      0.00      0.00     0.000 16.000
O2   s F    s Buckingham    0.168E+04 0.268      0.00      0.00     0.000 16.000
O3   s F    s Buckingham    0.168E+04 0.268      0.00      0.00     0.000 16.000
O2   c O2   s Spring (c-s)   76.0      0.00      0.00      0.00     0.000  0.800
O3   c O3   s Spring (c-s)   128.      0.00      0.00      0.00     0.000  0.800
O1   c O1   s Spring (c-s)   180.      0.00      0.00      0.00     0.000  0.800
F    c F    s Spring (c-s)   33.5      0.00      0.00      0.00     0.000  0.800
--------------------------------------------------------------------------------

  General Three-body potentials :

  Harmonic form:

--------------------------------------------------------------------------------
Atom    Atom    Atom           Force Constants            Theta     Cutoffs  
  1       2       3     (eVrad**-2/eVrad**-3/eVrad**-4)   (deg)  1-2  1-3  2-3
--------------------------------------------------------------------------------
Si    c O1    s O1    s  1.261        0.0000    0.0000   109.470 0.00 0.00 0.00
                                                                 1.90 1.90 3.50
Si    c O1    s O2    s  1.261        0.0000    0.0000   109.470 0.00 0.00 0.00
                                                                 1.90 1.90 3.50
Si    c O2    s O2    s  1.261        0.0000    0.0000   109.470 0.00 0.00 0.00
                                                                 1.90 1.90 3.50
--------------------------------------------------------------------------------

********************************************************************************
*  Output for configuration   1                                                *
********************************************************************************


  Components of energy : 

--------------------------------------------------------------------------------
  Interatomic potentials     =        2064.06243483 eV
  Three-body potentials      =           0.47615227 eV
  Monopole - monopole (real) =       -6611.79973995 eV
  Monopole - monopole (recip)=       -3172.73427037 eV
  Monopole - monopole (total)=       -9784.53401032 eV
  Neutralising energy        =          -6.46219205 eV
--------------------------------------------------------------------------------
  Total lattice energy       =       -7726.45761527 eV
--------------------------------------------------------------------------------
  Total lattice energy       =         -745485.0502 kJ/(mole unit cells)
--------------------------------------------------------------------------------


  Number of variables =      939

  Maximum number of calculations  =          1000
  Maximum Hessian update interval =            10
  Maximum step size               =   1.000000000
  Maximum parameter tolerance     =   0.000010000
  Maximum function  tolerance     =   0.000010000
  Maximum gradient  tolerance     =   0.001000000
  Maximum gradient  component     =   0.010000000

  Symmetry not applied to optimisation

  Cell parameters to be optimised using strains

  Newton-Raphson optimiser to be used

  BFGS hessian update to be used

  Dumpfile to be written after every cycle

  Start of bulk optimisation :

  Cycle:      0 Energy:     -7726.457615  Gnorm:      0.009340  CPU:    1.052
  ** Hessian calculated **
  Cycle:      1 Energy:     -7726.496855  Gnorm:      0.010983  CPU:    2.673
  ** Hessian calculated **
  Cycle:      2 Energy:     -7726.497786  Gnorm:      0.005230  CPU:    4.954
  Cycle:      3 Energy:     -7726.498003  Gnorm:      0.003405  CPU:    6.382
  Cycle:      4 Energy:     -7726.498115  Gnorm:      0.002633  CPU:    7.809
  Cycle:      5 Energy:     -7726.498196  Gnorm:      0.002542  CPU:    9.370
  Cycle:      6 Energy:     -7726.498286  Gnorm:      0.002555  CPU:   10.797
  Cycle:      7 Energy:     -7726.498352  Gnorm:      0.002021  CPU:   12.224
  Cycle:      8 Energy:     -7726.498397  Gnorm:      0.001874  CPU:   13.651
  Cycle:      9 Energy:     -7726.498439  Gnorm:      0.001892  CPU:   15.079
  Cycle:     10 Energy:     -7726.498482  Gnorm:      0.001745  CPU:   16.506
  Cycle:     11 Energy:     -7726.498515  Gnorm:      0.001486  CPU:   17.933
  ** Hessian calculated **
  Cycle:     12 Energy:     -7726.498529  Gnorm:      0.000914  CPU:   20.213
  Cycle:     13 Energy:     -7726.498544  Gnorm:      0.001229  CPU:   21.641
  Cycle:     14 Energy:     -7726.498556  Gnorm:      0.000911  CPU:   23.068
  Cycle:     15 Energy:     -7726.498567  Gnorm:      0.001050  CPU:   24.495
  Cycle:     16 Energy:     -7726.498579  Gnorm:      0.000969  CPU:   25.922
  Cycle:     17 Energy:     -7726.498591  Gnorm:      0.000936  CPU:   27.350
  Cycle:     18 Energy:     -7726.498601  Gnorm:      0.000884  CPU:   28.777
  Cycle:     19 Energy:     -7726.498611  Gnorm:      0.000887  CPU:   30.204
  Cycle:     20 Energy:     -7726.498623  Gnorm:      0.001068  CPU:   31.632
  Cycle:     21 Energy:     -7726.498639  Gnorm:      0.001020  CPU:   33.059
  ** Hessian calculated **
  Cycle:     22 Energy:     -7726.498648  Gnorm:      0.000642  CPU:   35.338
  Cycle:     23 Energy:     -7726.498652  Gnorm:      0.000563  CPU:   36.766
  Cycle:     24 Energy:     -7726.498656  Gnorm:      0.000503  CPU:   38.362
  Cycle:     25 Energy:     -7726.498660  Gnorm:      0.000519  CPU:   39.789
  Cycle:     26 Energy:     -7726.498663  Gnorm:      0.000497  CPU:   41.216
  Cycle:     27 Energy:     -7726.498667  Gnorm:      0.000534  CPU:   42.644
  Cycle:     28 Energy:     -7726.498670  Gnorm:      0.000491  CPU:   44.071
  Cycle:     29 Energy:     -7726.498674  Gnorm:      0.000571  CPU:   45.499
  Cycle:     30 Energy:     -7726.498677  Gnorm:      0.000481  CPU:   46.926
  Cycle:     31 Energy:     -7726.498681  Gnorm:      0.000643  CPU:   48.353
  ** Hessian calculated **
  Cycle:     32 Energy:     -7726.498687  Gnorm:      0.000633  CPU:   50.803
  Cycle:     33 Energy:     -7726.498696  Gnorm:      0.000618  CPU:   52.231
  Cycle:     34 Energy:     -7726.498708  Gnorm:      0.000596  CPU:   53.658
  Cycle:     35 Energy:     -7726.498769  Gnorm:      0.000472  CPU:   56.463
  Cycle:     36 Energy:     -7726.498827  Gnorm:      0.000309  CPU:   58.579
  Cycle:     37 Energy:     -7726.498855  Gnorm:      0.000178  CPU:   60.006
  Cycle:     38 Energy:     -7726.498868  Gnorm:      0.000042  CPU:   61.433


  **** Optimisation achieved ****


  Final energy =   -7726.49886912 eV
  Final Gnorm  =       0.00000333

  Components of energy : 

--------------------------------------------------------------------------------
  Interatomic potentials     =        2064.56531376 eV
  Three-body potentials      =           0.49055987 eV
  Monopole - monopole (real) =       -6611.11955712 eV
  Monopole - monopole (recip)=       -3173.97047589 eV
  Monopole - monopole (total)=       -9785.09003301 eV
  Neutralising energy        =          -6.46470975 eV
--------------------------------------------------------------------------------
  Total lattice energy       =       -7726.49886912 eV
--------------------------------------------------------------------------------
  Total lattice energy       =         -745489.0305 kJ/(mole unit cells)
--------------------------------------------------------------------------------

  Final fractional coordinates of atoms :

--------------------------------------------------------------------------------
   No.  Atomic        x           y          z          Radius
        Label       (Frac)      (Frac)     (Frac)       (Angs) 
--------------------------------------------------------------------------------
     1  Ge    c     0.699600    0.375700    0.033890    0.000000
     2  Si    c     0.616296    0.309587    0.370422    0.000000
     3  Si    c     0.683324    0.303906    0.701218    0.000000
     4  Si    c     0.305920    0.635498    0.535115    0.000000
     5  Si    c     0.387248    0.685888    0.867200    0.000000
     6  Si    c     0.321955    0.694106    0.202014    0.000000
     7  Si    c     0.373605    0.689815    0.302910    0.000000
     8  Si    c     0.334781    0.633117    0.968118    0.000000
     9  Si    c     0.305475    0.687008    0.636009    0.000000
    10  Si    c     0.628685    0.304175    0.802057    0.000000
    11  Si    c     0.682928    0.371280    0.472631    0.000000
    12  Si    c     0.696292    0.310776    0.136239    0.000000
    13  Si    c     0.527987    0.421092    0.968520    0.000000
    14  Si    c     0.578102    0.099077    0.305445    0.000000
    15  Si    c     0.895651    0.475293    0.636088    0.000000
    16  Si    c     0.468659    0.585306    0.472479    0.000000
    17  Si    c     0.424818    0.896699    0.802703    0.000000
    18  Si    c     0.115276    0.524202    0.134719    0.000000
    19  Si    c     0.408856    0.518024    0.369466    0.000000
    20  Si    c     0.121295    0.587185    0.031251    0.000000
    21  Si    c     0.477936    0.897150    0.700876    0.000000
    22  Si    c     0.586499    0.474953    0.866701    0.000000
    23  Si    c     0.902986    0.424130    0.534559    0.000000
    24  Si    c     0.529082    0.102260    0.203485    0.000000
    25  Si    c     0.306408    0.406666    0.852360    0.000000
    26  Si    c     0.601451    0.894919    0.187621    0.000000
    27  Si    c     0.103410    0.707302    0.520420    0.000000
    28  Si    c     0.693716    0.590222    0.354275    0.000000
    29  Si    c     0.404410    0.104064    0.685937    0.000000
    30  Ge    c     0.902699    0.306951    0.021355    0.000000
    31  Ge    c     0.412782    0.312287    0.478960    0.000000
    32  Si    c     0.902042    0.594242    0.149288    0.000000
    33  Si    c     0.706550    0.104407    0.817357    0.000000
    34  Si    c     0.610267    0.704532    0.982580    0.000000
    35  Si    c     0.106732    0.406606    0.649937    0.000000
    36  Si    c     0.296300    0.889927    0.318796    0.000000
    37  Si    c     0.251246    0.349227    0.953291    0.000000
    38  Si    c     0.655311    0.898902    0.288841    0.000000
    39  Si    c     0.095066    0.756069    0.621442    0.000000
    40  Si    c     0.749606    0.656265    0.456015    0.000000
    41  Si    c     0.346895    0.096610    0.787246    0.000000
    42  Si    c     0.910917    0.240558    0.120695    0.000000
    43  Si    c     0.328548    0.234679    0.383221    0.000000
    44  Si    c     0.915084    0.662735    0.046960    0.000000
    45  Si    c     0.757107    0.097141    0.716099    0.000000
    46  Si    c     0.666829    0.754838    0.881481    0.000000
    47  Si    c     0.105371    0.349550    0.548780    0.000000
    48  Si    c     0.249033    0.901281    0.217690    0.000000
    49  Si    c     0.972409    0.125577    0.968658    0.000000
    50  Si    c     0.871745    0.836167    0.302264    0.000000
    51  Si    c     0.156453    0.035506    0.634837    0.000000
    52  Si    c     0.029343    0.881453    0.469684    0.000000
    53  Si    c     0.128942    0.157924    0.801589    0.000000
    54  Si    c     0.850196    0.964907    0.136872    0.000000
    55  Si    c     0.115766    0.958902    0.367025    0.000000
    56  Si    c     0.858640    0.884160    0.034209    0.000000
    57  Si    c     0.036497    0.157852    0.700432    0.000000
    58  Si    c     0.885588    0.034113    0.867165    0.000000
    59  Si    c     0.162727    0.127481    0.532862    0.000000
    60  Si    c     0.970021    0.840758    0.201298    0.000000
    61  O2    c     0.940317    0.005708    0.002077    0.000000
    62  O2    c     0.993767    0.912931    0.334372    0.000000
    63  O2    c     0.076725    0.078016    0.667317    0.000000
    64  O2    c     0.068585    0.003943    0.501258    0.000000
    65  O2    c     0.006474    0.077336    0.833875    0.000000
    66  O2    c     0.930433    0.920633    0.168204    0.000000
    67  O2    c     0.335352    0.566761    0.335706    0.000000
    68  O2    c     0.428554    0.771151    0.668607    0.000000
    69  O2    c     0.252421    0.673288    0.001930    0.000000
    70  O2    c     0.664742    0.426968    0.834765    0.000000
    71  O2    c     0.580346    0.230091    0.172322    0.000000
    72  O2    c     0.781023    0.343461    0.500926    0.000000
    73  O3    c     0.564467    0.340680    0.002000    0.000000
    74  O2    c     0.769468    0.426548    0.668184    0.000000
    75  O2    c     0.654720    0.224653    0.337968    0.000000
    76  O2    c     0.428811    0.675809    0.501364    0.000000
    77  O2    c     0.238374    0.573193    0.168028    0.000000
    78  O2    c     0.348164    0.770500    0.834995    0.000000
    79  O2    c     0.126075    0.225273    0.974527    0.000000
    80  O2    c     0.781371    0.899008    0.308775    0.000000
    81  O2    c     0.093994    0.881308    0.641761    0.000000
    82  O2    c     0.875070    0.783930    0.475058    0.000000
    83  O2    c     0.220859    0.096455    0.807499    0.000000
    84  O2    c     0.910227    0.117942    0.145098    0.000000
    85  O2    c     0.209369    0.111428    0.357640    0.000000
    86  O2    c     0.925878    0.796745    0.030663    0.000000
    87  O2    c     0.882392    0.096145    0.695698    0.000000
    88  O2    c     0.793141    0.880061    0.860603    0.000000
    89  O2    c     0.107378    0.226396    0.527729    0.000000
    90  O2    c     0.124409    0.903834    0.197574    0.000000
    91  O2    c     0.922966    0.848931    0.251339    0.000000
    92  O2    c     0.140925    0.071534    0.584068    0.000000
    93  O2    c     0.939676    0.068249    0.917775    0.000000
    94  O2    c     0.077102    0.143556    0.750770    0.000000
    95  O2    c     0.865320    0.932146    0.085619    0.000000
    96  O2    c     0.062032    0.927521    0.417749    0.000000
    97  O3    c     0.896923    0.196666    0.979873    0.000000
    98  O2    c     0.787619    0.683860    0.314424    0.000000
    99  O2    c     0.308226    0.105551    0.647436    0.000000
   100  O2    c     0.102506    0.803581    0.481702    0.000000
   101  O2    c     0.209729    0.309980    0.813534    0.000000
   102  O2    c     0.698056    0.892442    0.149376    0.000000
   103  O2    c     0.196002    0.886033    0.356855    0.000000
   104  O2    c     0.707925    0.800184    0.021441    0.000000
   105  O2    c     0.107182    0.309932    0.688539    0.000000
   106  O2    c     0.804028    0.104753    0.855804    0.000000
   107  O3    c     0.309009    0.198779    0.520808    0.000000
   108  O2    c     0.902311    0.689523    0.188381    0.000000
   109  O2    c     0.318229    0.633355    0.252154    0.000000
   110  O2    c     0.364117    0.691076    0.585424    0.000000
   111  O2    c     0.332108    0.688988    0.917821    0.000000
   112  O2    c     0.685601    0.362511    0.751618    0.000000
   113  O3    c     0.635314    0.310016    0.088118    0.000000
   114  O2    c     0.673167    0.314529    0.420690    0.000000
   115  O2    c     0.371792    0.336654    0.970524    0.000000
   116  O2    c     0.664769    0.029996    0.308257    0.000000
   117  O2    c     0.963453    0.631561    0.639532    0.000000
   118  O2    c     0.626228    0.666101    0.472129    0.000000
   119  O2    c     0.336783    0.964342    0.805763    0.000000
   120  O2    c     0.042800    0.368418    0.137266    0.000000
   121  O2    c     0.323402    0.362058    0.366438    0.000000
   122  O2    c     0.048246    0.670511    0.030985    0.000000
   123  O2    c     0.633987    0.964877    0.697778    0.000000
   124  O2    c     0.674419    0.631357    0.863165    0.000000
   125  O2    c     0.971771    0.337950    0.531337    0.000000
   126  O2    c     0.372970    0.033464    0.199665    0.000000
   127  O1    c     0.756437    0.290013    0.005394    0.000000
   128  O2    c     0.689371    0.454298    0.348975    0.000000
   129  O2    c     0.540228    0.237453    0.678751    0.000000
   130  O2    c     0.238774    0.710917    0.512607    0.000000
   131  O2    c     0.311120    0.542697    0.844520    0.000000
   132  O2    c     0.465572    0.762313    0.179823    0.000000
   133  O2    c     0.297641    0.756484    0.325488    0.000000
   134  O2    c     0.478035    0.707710    0.990536    0.000000
   135  O2    c     0.238244    0.542965    0.657929    0.000000
   136  O2    c     0.705092    0.237870    0.824667    0.000000
   137  O3    c     0.546339    0.296736    0.496598    0.000000
   138  O2    c     0.770939    0.458209    0.155717    0.000000
   139  O3    c     0.789857    0.544440    0.026337    0.000000
   140  O2    c     0.461494    0.241984    0.366076    0.000000
   141  O2    c     0.758028    0.223018    0.696303    0.000000
   142  O2    c     0.227439    0.479630    0.529207    0.000000
   143  O2    c     0.543096    0.758736    0.862183    0.000000
   144  O2    c     0.246499    0.774464    0.197650    0.000000
   145  O2    c     0.529770    0.770703    0.307794    0.000000
   146  O2    c     0.256224    0.477110    0.973454    0.000000
   147  O2    c     0.222003    0.758885    0.640940    0.000000
   148  O2    c     0.472595    0.222497    0.806985    0.000000
   149  O2    c     0.745356    0.528325    0.474526    0.000000
   150  O2    c     0.785343    0.244669    0.138775    0.000000
   151  O2    c     0.232015    0.333978    0.898677    0.000000
   152  O2    c     0.674222    0.898746    0.234405    0.000000
   153  O2    c     0.096503    0.776053    0.566895    0.000000
   154  O2    c     0.760786    0.662207    0.401028    0.000000
   155  O2    c     0.330248    0.098954    0.732727    0.000000
   156  O3    c     0.910900    0.216771    0.067753    0.000000
   157  O3    c     0.302780    0.207782    0.435812    0.000000
   158  O2    c     0.904997    0.662578    0.102102    0.000000
   159  O2    c     0.776240    0.099864    0.770634    0.000000
   160  O2    c     0.685940    0.774485    0.936052    0.000000
   161  O2    c     0.107197    0.334367    0.603445    0.000000
   162  O2    c     0.228423    0.896908    0.272108    0.000000
   163  O2    c     0.591396    0.563673    0.991928    0.000000
   164  O2    c     0.436254    0.014753    0.328314    0.000000
   165  O2    c     0.980153    0.418291    0.658403    0.000000
   166  O3    c     0.410112    0.450911    0.498405    0.000000
   167  O2    c     0.565822    0.980068    0.826063    0.000000
   168  O2    c     0.024649    0.575823    0.155340    0.000000
   169  O2    c     0.551612    0.569212    0.348677    0.000000
   170  O3    c     0.042529    0.451200    0.006383    0.000000
   171  O2    c     0.420181    0.979794    0.677365    0.000000
   172  O2    c     0.444758    0.417986    0.844240    0.000000
   173  O2    c     0.980526    0.565938    0.510929    0.000000
   174  O2    c     0.587740    0.020638    0.179517    0.000000
   175  O2    c     0.580119    0.153614    0.254672    0.000000
   176  O2    c     0.844832    0.422571    0.584830    0.000000
   177  O2    c     0.585192    0.422858    0.917874    0.000000
   178  O2    c     0.424381    0.843440    0.751767    0.000000
   179  O2    c     0.162343    0.575137    0.083473    0.000000
   180  O2    c     0.413302    0.572310    0.420270    0.000000
   181  F     c     0.448410    0.892083    0.253216    0.000000
   182  F     c     0.105788    0.558858    0.584339    0.000000
   183  F     c     0.457937    0.558119    0.918072    0.000000
   184  F     c     0.555961    0.104535    0.751692    0.000000
   185  F     c     0.887347    0.421279    0.071840    0.000000
   186  F     c     0.516703    0.416809    0.430092    0.000000
   187  O2    s     0.934313    0.004367    0.002249    0.000000
   188  O2    s     0.993307    0.909172    0.334312    0.000000
   189  O2    s     0.081047    0.082284    0.667443    0.000000
   190  O2    s     0.073720    0.002633    0.500897    0.000000
   191  O2    s     0.006778    0.081603    0.833951    0.000000
   192  O2    s     0.926062    0.916455    0.168503    0.000000
   193  O2    s     0.346903    0.574418    0.335806    0.000000
   194  O2    s     0.420836    0.775399    0.668534    0.000000
   195  O2    s     0.247209    0.660579    0.001579    0.000000
   196  O2    s     0.652978    0.419295    0.834691    0.000000
   197  O2    s     0.586908    0.224986    0.171866    0.000000
   198  O2    s     0.782997    0.354745    0.501320    0.000000
   199  O3    s     0.571335    0.351668    0.001095    0.000000
   200  O2    s     0.773721    0.419009    0.668251    0.000000
   201  O2    s     0.642842    0.220516    0.337981    0.000000
   202  O2    s     0.420704    0.662683    0.501778    0.000000
   203  O2    s     0.234026    0.580412    0.168022    0.000000
   204  O2    s     0.360126    0.774790    0.835000    0.000000
   205  O2    s     0.123657    0.228255    0.971689    0.000000
   206  O2    s     0.777972    0.892283    0.306045    0.000000
   207  O2    s     0.100626    0.884390    0.638955    0.000000
   208  O2    s     0.877611    0.780360    0.472487    0.000000
   209  O2    s     0.224175    0.102972    0.804804    0.000000
   210  O2    s     0.903979    0.114125    0.141844    0.000000
   211  O2    s     0.211423    0.107673    0.361120    0.000000
   212  O2    s     0.917651    0.791883    0.032738    0.000000
   213  O2    s     0.885746    0.102789    0.698289    0.000000
   214  O2    s     0.789768    0.883297    0.863434    0.000000
   215  O2    s     0.112675    0.229657    0.530465    0.000000
   216  O2    s     0.120787    0.896840    0.200021    0.000000
   217  O2    s     0.922496    0.846546    0.251447    0.000000
   218  O2    s     0.145012    0.073356    0.584438    0.000000
   219  O2    s     0.937054    0.070544    0.917501    0.000000
   220  O2    s     0.078374    0.146814    0.750825    0.000000
   221  O2    s     0.862834    0.930623    0.085886    0.000000
   222  O2    s     0.064571    0.926001    0.417662    0.000000
   223  O3    s     0.905840    0.196479    0.981529    0.000000
   224  O2    s     0.786557    0.689938    0.317321    0.000000
   225  O2    s     0.302261    0.098108    0.650068    0.000000
   226  O2    s     0.094785    0.802059    0.484374    0.000000
   227  O2    s     0.211073    0.303783    0.816241    0.000000
   228  O2    s     0.703968    0.900243    0.152017    0.000000
   229  O2    s     0.197969    0.893980    0.353998    0.000000
   230  O2    s     0.714093    0.799414    0.018845    0.000000
   231  O2    s     0.099654    0.303763    0.685835    0.000000
   232  O2    s     0.802597    0.097401    0.853076    0.000000
   233  O3    s     0.299510    0.198398    0.519354    0.000000
   234  O2    s     0.909459    0.695533    0.185651    0.000000
   235  O2    s     0.324192    0.645204    0.252199    0.000000
   236  O2    s     0.352136    0.684926    0.585377    0.000000
   237  O2    s     0.337972    0.682927    0.917862    0.000000
   238  O2    s     0.679575    0.350599    0.751626    0.000000
   239  O3    s     0.646210    0.314812    0.089126    0.000000
   240  O2    s     0.668038    0.319448    0.420324    0.000000
   241  O2    s     0.375040    0.346850    0.968423    0.000000
   242  O2    s     0.654841    0.023350    0.305921    0.000000
   243  O2    s     0.970338    0.628598    0.637263    0.000000
   244  O2    s     0.623620    0.656928    0.470420    0.000000
   245  O2    s     0.346885    0.971203    0.803506    0.000000
   246  O2    s     0.037004    0.371820    0.135306    0.000000
   247  O2    s     0.332862    0.365672    0.368442    0.000000
   248  O2    s     0.041808    0.661187    0.032692    0.000000
   249  O2    s     0.630787    0.971750    0.700028    0.000000
   250  O2    s     0.664573    0.628279    0.865468    0.000000
   251  O2    s     0.978450    0.348282    0.533513    0.000000
   252  O2    s     0.375951    0.026600    0.201963    0.000000
   253  O1    s     0.762815    0.297909    0.008829    0.000000
   254  O2    s     0.682362    0.454051    0.351748    0.000000
   255  O2    s     0.540694    0.230318    0.681842    0.000000
   256  O2    s     0.231404    0.702775    0.515785    0.000000
   257  O2    s     0.318443    0.543066    0.847705    0.000000
   258  O2    s     0.464959    0.769170    0.182976    0.000000
   259  O2    s     0.305354    0.763643    0.322411    0.000000
   260  O2    s     0.477105    0.699738    0.987374    0.000000
   261  O2    s     0.231270    0.543403    0.654793    0.000000
   262  O2    s     0.697471    0.230737    0.821572    0.000000
   263  O3    s     0.551421    0.305688    0.492799    0.000000
   264  O2    s     0.777679    0.458160    0.153053    0.000000
   265  O3    s     0.796717    0.544541    0.029085    0.000000
   266  O2    s     0.464535    0.248572    0.368277    0.000000
   267  O2    s     0.750055    0.217691    0.698936    0.000000
   268  O2    s     0.222345    0.481914    0.531894    0.000000
   269  O2    s     0.540125    0.750576    0.864772    0.000000
   270  O2    s     0.254636    0.779801    0.200226    0.000000
   271  O2    s     0.527125    0.776211    0.305264    0.000000
   272  O2    s     0.264028    0.479781    0.970776    0.000000
   273  O2    s     0.216916    0.750954    0.638341    0.000000
   274  O2    s     0.475223    0.217247    0.804356    0.000000
   275  O2    s     0.739499    0.526903    0.472302    0.000000
   276  O2    s     0.789305    0.251241    0.136598    0.000000
   277  O2    s     0.241839    0.343229    0.899548    0.000000
   278  O2    s     0.664549    0.898362    0.235293    0.000000
   279  O2    s     0.097070    0.766687    0.567719    0.000000
   280  O2    s     0.752394    0.653832    0.401694    0.000000
   281  O2    s     0.339788    0.099241    0.733601    0.000000
   282  O3    s     0.910312    0.225746    0.070051    0.000000
   283  O3    s     0.312697    0.217500    0.432985    0.000000
   284  O2    s     0.905715    0.655073    0.101645    0.000000
   285  O2    s     0.766933    0.100054    0.769748    0.000000
   286  O2    s     0.676005    0.765097    0.935220    0.000000
   287  O2    s     0.106958    0.343574    0.602567    0.000000
   288  O2    s     0.237708    0.896648    0.271159    0.000000
   289  O2    s     0.586896    0.564545    0.988549    0.000000
   290  O2    s     0.436127    0.010065    0.324906    0.000000
   291  O2    s     0.985069    0.423184    0.655142    0.000000
   292  O3    s     0.416565    0.454719    0.494320    0.000000
   293  O2    s     0.566285    0.984954    0.822687    0.000000
   294  O2    s     0.020734    0.572263    0.152489    0.000000
   295  O2    s     0.552323    0.566051    0.351480    0.000000
   296  O3    s     0.039697    0.454157    0.010085    0.000000
   297  O2    s     0.424675    0.984722    0.680737    0.000000
   298  O2    s     0.444743    0.422901    0.847471    0.000000
   299  O2    s     0.985790    0.566404    0.514396    0.000000
   300  O2    s     0.582968    0.015481    0.182865    0.000000
   301  O2    s     0.574560    0.142517    0.254638    0.000000
   302  O2    s     0.856062    0.428174    0.584902    0.000000
   303  O2    s     0.579572    0.428114    0.917707    0.000000
   304  O2    s     0.430018    0.854608    0.751768    0.000000
   305  O2    s     0.153254    0.570859    0.083821    0.000000
   306  O2    s     0.418156    0.567752    0.419909    0.000000
   307  F     s     0.448169    0.891608    0.253203    0.000000
   308  F     s     0.106188    0.559267    0.584206    0.000000
   309  F     s     0.457783    0.558608    0.918141    0.000000
   310  F     s     0.556219    0.105006    0.751691    0.000000
   311  F     s     0.884840    0.416488    0.069587    0.000000
   312  F     s     0.509919    0.409875    0.433114    0.000000
--------------------------------------------------------------------------------

  Final Cartesian lattice vectors (Angstroms) :

       12.002633    0.008647    0.014077
       -6.049963   10.349768   -0.004796
        0.051759    0.018969   29.360922


  Final cell parameters and derivatives :

--------------------------------------------------------------------------------
       a           12.002644 Angstrom     dE/de1(xx)     0.000085 eV/strain
       b           11.988318 Angstrom     dE/de2(yy)     0.000140 eV/strain
       c           29.360974 Angstrom     dE/de3(zz)     0.000195 eV/strain
       alpha       90.041935 Degrees      dE/de4(yz)    -0.000009 eV/strain
       beta        89.831771 Degrees      dE/de5(xz)     0.000050 eV/strain
       gamma      120.267171 Degrees      dE/de6(xy)     0.000041 eV/strain
--------------------------------------------------------------------------------

  Primitive cell volume =          3648.872959 Angs**3

  Density of cell =      1.753443 g/cm**3

  Non-primitive cell volume =          3648.872959 Angs**3


  Final internal derivatives :

--------------------------------------------------------------------------------
   No.  Atomic          a             b             c           Radius
        Label          (eV)          (eV)          (eV)        (eV/Angs)
--------------------------------------------------------------------------------
      1 Ge    c       0.000000      0.000000      0.000000      0.000000
      2 Si    c      -0.000008      0.000013      0.000002      0.000000
      3 Si    c       0.000018     -0.000022      0.000008      0.000000
      4 Si    c      -0.000021      0.000002      0.000037      0.000000
      5 Si    c       0.000004     -0.000004     -0.000045      0.000000
      6 Si    c      -0.000008      0.000006      0.000017      0.000000
      7 Si    c      -0.000008      0.000031     -0.000039      0.000000
      8 Si    c       0.000003     -0.000008      0.000043      0.000000
      9 Si    c      -0.000019     -0.000007     -0.000014      0.000000
     10 Si    c       0.000011     -0.000024     -0.000016      0.000000
     11 Si    c      -0.000013      0.000005      0.000013      0.000000
     12 Si    c       0.000260     -0.000074      0.000044      0.000000
     13 Si    c       0.000009     -0.000085     -0.000087      0.000000
     14 Si    c       0.000002     -0.000029     -0.000030      0.000000
     15 Si    c       0.000035     -0.000014     -0.000024      0.000000
     16 Si    c       0.000024     -0.000032     -0.000018      0.000000
     17 Si    c       0.000020     -0.000016     -0.000036      0.000000
     18 Si    c      -0.000157      0.000081     -0.000088      0.000000
     19 Si    c       0.000034     -0.000014      0.000038      0.000000
     20 Si    c      -0.000169      0.000045      0.000328      0.000000
     21 Si    c       0.000011     -0.000008     -0.000010      0.000000
     22 Si    c      -0.000003     -0.000006     -0.000047      0.000000
     23 Si    c       0.000021      0.000002      0.000044      0.000000
     24 Si    c       0.000013     -0.000009      0.000051      0.000000
     25 Si    c      -0.000008      0.000029     -0.000006      0.000000
     26 Si    c      -0.000010      0.000017      0.000027      0.000000
     27 Si    c      -0.000011      0.000012      0.000022      0.000000
     28 Si    c      -0.000024      0.000002      0.000013      0.000000
     29 Si    c       0.000012     -0.000021     -0.000006      0.000000
     30 Ge    c      -0.000340      0.000480      0.000712      0.000000
     31 Ge    c       0.000011      0.000004     -0.000008      0.000000
     32 Si    c       0.000107     -0.000157     -0.000066      0.000000
     33 Si    c       0.000021     -0.000009     -0.000006      0.000000
     34 Si    c      -0.000047      0.000075     -0.000021      0.000000
     35 Si    c      -0.000025      0.000025     -0.000007      0.000000
     36 Si    c       0.000012     -0.000000     -0.000020      0.000000
     37 Si    c      -0.000002     -0.000015     -0.000135      0.000000
     38 Si    c      -0.000007      0.000004     -0.000001      0.000000
     39 Si    c       0.000016     -0.000032     -0.000018      0.000000
     40 Si    c      -0.000025     -0.000009     -0.000025      0.000000
     41 Si    c       0.000024     -0.000018      0.000015      0.000000
     42 Si    c      -0.000194      0.000243      0.000314      0.000000
     43 Si    c       0.000018      0.000021      0.000004      0.000000
     44 Si    c       0.000206      0.000018     -0.000081      0.000000
     45 Si    c       0.000018     -0.000008      0.000005      0.000000
     46 Si    c      -0.000007      0.000017     -0.000019      0.000000
     47 Si    c       0.000009      0.000013      0.000017      0.000000
     48 Si    c       0.000011     -0.000010      0.000011      0.000000
     49 Si    c      -0.000037      0.000001     -0.000204      0.000000
     50 Si    c       0.000007      0.000020     -0.000020      0.000000
     51 Si    c       0.000005     -0.000014      0.000009      0.000000
     52 Si    c      -0.000003      0.000024      0.000011      0.000000
     53 Si    c      -0.000054      0.000040      0.000033      0.000000
     54 Si    c       0.000016     -0.000004      0.000043      0.000000
     55 Si    c      -0.000016     -0.000005     -0.000035      0.000000
     56 Si    c       0.000043     -0.000056     -0.000056      0.000000
     57 Si    c      -0.000036      0.000029      0.000051      0.000000
     58 Si    c      -0.000013      0.000031     -0.000033      0.000000
     59 Si    c      -0.000034     -0.000028     -0.000022      0.000000
     60 Si    c      -0.000015     -0.000011      0.000011      0.000000
     61 O2    c       0.000041     -0.000052     -0.000003      0.000000
     62 O2    c      -0.000007      0.000006      0.000035      0.000000
     63 O2    c       0.000001     -0.000011     -0.000056      0.000000
     64 O2    c       0.000004     -0.000006      0.000037      0.000000
     65 O2    c      -0.000033      0.000022      0.000059      0.000000
     66 O2    c       0.000006     -0.000003     -0.000015      0.000000
     67 O2    c       0.000003      0.000004     -0.000015      0.000000
     68 O2    c      -0.000002     -0.000009      0.000025      0.000000
     69 O2    c       0.000050     -0.000056     -0.000013      0.000000
     70 O2    c       0.000008     -0.000007     -0.000007      0.000000
     71 O2    c      -0.000056      0.000053      0.000036      0.000000
     72 O2    c       0.000020      0.000002      0.000003      0.000000
     73 O3    c       0.000006      0.000001     -0.000149      0.000000
     74 O2    c       0.000013     -0.000011      0.000003      0.000000
     75 O2    c       0.000014     -0.000002     -0.000044      0.000000
     76 O2    c       0.000003      0.000016      0.000022      0.000000
     77 O2    c      -0.000003      0.000000      0.000014      0.000000
     78 O2    c       0.000006     -0.000018      0.000020      0.000000
     79 O2    c       0.000004      0.000018     -0.000064      0.000000
     80 O2    c       0.000006     -0.000001      0.000000      0.000000
     81 O2    c      -0.000010      0.000012     -0.000020      0.000000
     82 O2    c      -0.000001     -0.000003      0.000008      0.000000
     83 O2    c       0.000019     -0.000014      0.000034      0.000000
     84 O2    c       0.000008     -0.000056      0.000007      0.000000
     85 O2    c       0.000004      0.000010      0.000015      0.000000
     86 O2    c       0.000011     -0.000060      0.000026      0.000000
     87 O2    c      -0.000013      0.000018      0.000014      0.000000
     88 O2    c       0.000005     -0.000008     -0.000000      0.000000
     89 O2    c       0.000007      0.000012      0.000015      0.000000
     90 O2    c       0.000001      0.000008     -0.000020      0.000000
     91 O2    c      -0.000008      0.000016      0.000014      0.000000
     92 O2    c       0.000008      0.000002     -0.000023      0.000000
     93 O2    c      -0.000030      0.000010      0.000047      0.000000
     94 O2    c      -0.000040      0.000037      0.000012      0.000000
     95 O2    c       0.000023     -0.000004      0.000047      0.000000
     96 O2    c       0.000009      0.000005     -0.000024      0.000000
     97 O3    c      -0.000019     -0.000082      0.000045      0.000000
     98 O2    c      -0.000008      0.000008     -0.000010      0.000000
     99 O2    c      -0.000003     -0.000003     -0.000035      0.000000
    100 O2    c      -0.000003      0.000002      0.000056      0.000000
    101 O2    c      -0.000028      0.000033     -0.000011      0.000000
    102 O2    c      -0.000008     -0.000001      0.000005      0.000000
    103 O2    c       0.000001     -0.000004      0.000008      0.000000
    104 O2    c      -0.000004      0.000019     -0.000034      0.000000
    105 O2    c      -0.000014      0.000015      0.000040      0.000000
    106 O2    c      -0.000015      0.000016     -0.000017      0.000000
    107 O3    c       0.000003     -0.000004     -0.000052      0.000000
    108 O2    c      -0.000019     -0.000007      0.000061      0.000000
    109 O2    c      -0.000009      0.000015      0.000003      0.000000
    110 O2    c       0.000016     -0.000003      0.000040      0.000000
    111 O2    c       0.000005      0.000004     -0.000024      0.000000
    112 O2    c       0.000015     -0.000014     -0.000010      0.000000
    113 O3    c      -0.000066     -0.000050      0.000120      0.000000
    114 O2    c      -0.000002      0.000013      0.000010      0.000000
    115 O2    c       0.000003     -0.000003     -0.000010      0.000000
    116 O2    c      -0.000010      0.000027     -0.000011      0.000000
    117 O2    c       0.000009     -0.000006      0.000022      0.000000
    118 O2    c       0.000007     -0.000012     -0.000009      0.000000
    119 O2    c      -0.000010      0.000009     -0.000002      0.000000
    120 O2    c      -0.000023      0.000020     -0.000038      0.000000
    121 O2    c       0.000008     -0.000010     -0.000007      0.000000
    122 O2    c       0.000033     -0.000016      0.000038      0.000000
    123 O2    c       0.000010     -0.000008      0.000007      0.000000
    124 O2    c       0.000003     -0.000006     -0.000024      0.000000
    125 O2    c      -0.000001     -0.000004      0.000015      0.000000
    126 O2    c      -0.000005      0.000012     -0.000008      0.000000
    127 O1    c      -0.000017     -0.000125     -0.000908      0.000000
    128 O2    c      -0.000006      0.000019     -0.000025      0.000000
    129 O2    c       0.000009     -0.000013     -0.000018      0.000000
    130 O2    c      -0.000006      0.000017     -0.000038      0.000000
    131 O2    c      -0.000015     -0.000001     -0.000006      0.000000
    132 O2    c      -0.000007      0.000001      0.000011      0.000000
    133 O2    c       0.000001      0.000016      0.000014      0.000000
    134 O2    c       0.000008     -0.000025      0.000024      0.000000
    135 O2    c      -0.000010      0.000008      0.000031      0.000000
    136 O2    c      -0.000003      0.000004      0.000007      0.000000
    137 O3    c       0.000004      0.000006     -0.000012      0.000000
    138 O2    c       0.000022      0.000045     -0.000000      0.000000
    139 O3    c      -0.000135      0.000438     -0.000283      0.000000
    140 O2    c      -0.000016      0.000022     -0.000019      0.000000
    141 O2    c      -0.000005     -0.000005     -0.000014      0.000000
    142 O2    c       0.000001     -0.000015      0.000028      0.000000
    143 O2    c      -0.000002      0.000005     -0.000051      0.000000
    144 O2    c      -0.000006     -0.000003     -0.000016      0.000000
    145 O2    c      -0.000011      0.000007     -0.000002      0.000000
    146 O2    c      -0.000008      0.000056     -0.000015      0.000000
    147 O2    c       0.000011      0.000005      0.000048      0.000000
    148 O2    c       0.000013     -0.000015     -0.000005      0.000000
    149 O2    c      -0.000009      0.000007     -0.000005      0.000000
    150 O2    c      -0.000039      0.000040     -0.000146      0.000000
    151 O2    c      -0.000023      0.000031     -0.000017      0.000000
    152 O2    c      -0.000003      0.000010     -0.000026      0.000000
    153 O2    c       0.000006     -0.000002     -0.000006      0.000000
    154 O2    c      -0.000008      0.000013     -0.000010      0.000000
    155 O2    c       0.000017     -0.000021     -0.000010      0.000000
    156 O3    c       0.000225     -0.000471      0.000740      0.000000
    157 O3    c      -0.000013     -0.000005     -0.000033      0.000000
    158 O2    c       0.000033      0.000019      0.000434      0.000000
    159 O2    c       0.000013     -0.000013     -0.000002      0.000000
    160 O2    c      -0.000004      0.000005     -0.000000      0.000000
    161 O2    c      -0.000020      0.000011      0.000010      0.000000
    162 O2    c       0.000005     -0.000010      0.000007      0.000000
    163 O2    c      -0.000003      0.000037      0.000078      0.000000
    164 O2    c       0.000012     -0.000008     -0.000000      0.000000
    165 O2    c      -0.000005     -0.000007      0.000048      0.000000
    166 O3    c       0.000010     -0.000012      0.000002      0.000000
    167 O2    c       0.000010     -0.000019      0.000004      0.000000
    168 O2    c       0.000057     -0.000009     -0.000024      0.000000
    169 O2    c       0.000007     -0.000012     -0.000028      0.000000
    170 O3    c       0.000106      0.000154     -0.000446      0.000000
    171 O2    c      -0.000006      0.000004     -0.000016      0.000000
    172 O2    c      -0.000000      0.000019     -0.000027      0.000000
    173 O2    c      -0.000005      0.000017      0.000003      0.000000
    174 O2    c       0.000022     -0.000021     -0.000035      0.000000
    175 O2    c       0.000001      0.000001     -0.000042      0.000000
    176 O2    c      -0.000005      0.000002     -0.000006      0.000000
    177 O2    c       0.000033     -0.000021     -0.000116      0.000000
    178 O2    c       0.000009     -0.000016      0.000031      0.000000
    179 O2    c       0.000012      0.000025      0.000159      0.000000
    180 O2    c       0.000018     -0.000011      0.000018      0.000000
    181 F     c       0.000015     -0.000003      0.000011      0.000000
    182 F     c      -0.000001      0.000005      0.000030      0.000000
    183 F     c       0.000009     -0.000009      0.000012      0.000000
    184 F     c      -0.000001      0.000000     -0.000006      0.000000
    185 F     c      -0.000145     -0.000222     -0.001264      0.000000
    186 F     c       0.000004      0.000013     -0.000024      0.000000
    187 O2    s      -0.000063      0.000082      0.000050      0.000000
    188 O2    s       0.000011      0.000007     -0.000022      0.000000
    189 O2    s       0.000020     -0.000007      0.000032      0.000000
    190 O2    s       0.000009      0.000006     -0.000002      0.000000
    191 O2    s       0.000056     -0.000049     -0.000005      0.000000
    192 O2    s       0.000014      0.000017      0.000047      0.000000
    193 O2    s       0.000009     -0.000007      0.000044      0.000000
    194 O2    s       0.000000      0.000003      0.000001      0.000000
    195 O2    s       0.000012      0.000050     -0.000158      0.000000
    196 O2    s      -0.000014      0.000013      0.000014      0.000000
    197 O2    s      -0.000030     -0.000060      0.000022      0.000000
    198 O2    s      -0.000017     -0.000010      0.000009      0.000000
    199 O3    s      -0.000033      0.000020      0.000207      0.000000
    200 O2    s      -0.000039      0.000019      0.000018      0.000000
    201 O2    s      -0.000018      0.000015      0.000027      0.000000
    202 O2    s       0.000000     -0.000005     -0.000004      0.000000
    203 O2    s       0.000078     -0.000024      0.000058      0.000000
    204 O2    s      -0.000024      0.000021      0.000020      0.000000
    205 O2    s       0.000017     -0.000011      0.000206      0.000000
    206 O2    s      -0.000011      0.000015     -0.000009      0.000000
    207 O2    s      -0.000006      0.000024      0.000045      0.000000
    208 O2    s       0.000009     -0.000005      0.000022      0.000000
    209 O2    s      -0.000008      0.000009     -0.000030      0.000000
    210 O2    s       0.000072     -0.000001     -0.000012      0.000000
    211 O2    s      -0.000011     -0.000001     -0.000052      0.000000
    212 O2    s      -0.000043      0.000033     -0.000034      0.000000
    213 O2    s       0.000004     -0.000032     -0.000043      0.000000
    214 O2    s       0.000009     -0.000005     -0.000007      0.000000
    215 O2    s       0.000011      0.000002     -0.000006      0.000000
    216 O2    s      -0.000012      0.000010     -0.000025      0.000000
    217 O2    s       0.000006      0.000018     -0.000013      0.000000
    218 O2    s       0.000012     -0.000004     -0.000013      0.000000
    219 O2    s       0.000022     -0.000010     -0.000083      0.000000
    220 O2    s       0.000063     -0.000071     -0.000049      0.000000
    221 O2    s      -0.000057      0.000019     -0.000118      0.000000
    222 O2    s       0.000006      0.000001     -0.000012      0.000000
    223 O3    s       0.000025      0.000011      0.000064      0.000000
    224 O2    s       0.000023     -0.000022     -0.000010      0.000000
    225 O2    s      -0.000016      0.000009      0.000003      0.000000
    226 O2    s       0.000002      0.000010      0.000012      0.000000
    227 O2    s       0.000051     -0.000045     -0.000018      0.000000
    228 O2    s      -0.000007      0.000027     -0.000027      0.000000
    229 O2    s       0.000009      0.000003      0.000006      0.000000
    230 O2    s       0.000010     -0.000038      0.000023      0.000000
    231 O2    s       0.000023     -0.000022     -0.000007      0.000000
    232 O2    s      -0.000019      0.000006      0.000033      0.000000
    233 O3    s      -0.000020     -0.000007     -0.000019      0.000000
    234 O2    s      -0.000004      0.000057      0.000044      0.000000
    235 O2    s       0.000026     -0.000013      0.000015      0.000000
    236 O2    s       0.000027     -0.000011      0.000007      0.000000
    237 O2    s      -0.000011     -0.000006      0.000017      0.000000
    238 O2    s      -0.000028      0.000026      0.000004      0.000000
    239 O3    s       0.000067      0.000162     -0.000447      0.000000
    240 O2    s       0.000007     -0.000042     -0.000036      0.000000
    241 O2    s      -0.000005      0.000007      0.000060      0.000000
    242 O2    s       0.000008     -0.000005      0.000022      0.000000
    243 O2    s      -0.000029      0.000023      0.000040      0.000000
    244 O2    s       0.000011      0.000012      0.000020      0.000000
    245 O2    s      -0.000004     -0.000003      0.000029      0.000000
    246 O2    s       0.000103     -0.000089     -0.000007      0.000000
    247 O2    s      -0.000026      0.000019     -0.000056      0.000000
    248 O2    s       0.000013      0.000119     -0.000342      0.000000
    249 O2    s      -0.000010     -0.000004     -0.000024      0.000000
    250 O2    s       0.000012     -0.000006      0.000026      0.000000
    251 O2    s       0.000010     -0.000010     -0.000049      0.000000
    252 O2    s       0.000016      0.000021     -0.000071      0.000000
    253 O1    s      -0.000056      0.000047      0.000375      0.000000
    254 O2    s       0.000026     -0.000015     -0.000029      0.000000
    255 O2    s      -0.000030      0.000027     -0.000016      0.000000
    256 O2    s       0.000002      0.000005      0.000009      0.000000
    257 O2    s       0.000017      0.000008      0.000048      0.000000
    258 O2    s       0.000016      0.000000     -0.000050      0.000000
    259 O2    s      -0.000009      0.000000      0.000018      0.000000
    260 O2    s      -0.000001     -0.000009     -0.000033      0.000000
    261 O2    s       0.000021     -0.000005      0.000041      0.000000
    262 O2    s      -0.000005     -0.000006      0.000013      0.000000
    263 O3    s       0.000003     -0.000031     -0.000042      0.000000
    264 O2    s      -0.000087      0.000065      0.000005      0.000000
    265 O3    s       0.000000     -0.000462      0.000380      0.000000
    266 O2    s       0.000011     -0.000032     -0.000067      0.000000
    267 O2    s      -0.000003      0.000005     -0.000005      0.000000
    268 O2    s       0.000009     -0.000009      0.000006      0.000000
    269 O2    s      -0.000008     -0.000003      0.000048      0.000000
    270 O2    s       0.000018      0.000019     -0.000010      0.000000
    271 O2    s       0.000026     -0.000010      0.000023      0.000000
    272 O2    s      -0.000016     -0.000030      0.000083      0.000000
    273 O2    s      -0.000012      0.000006      0.000050      0.000000
    274 O2    s      -0.000025      0.000028      0.000026      0.000000
    275 O2    s       0.000000     -0.000008     -0.000023      0.000000
    276 O2    s       0.000044     -0.000117      0.000352      0.000000
    277 O2    s       0.000044     -0.000050     -0.000024      0.000000
    278 O2    s       0.000023     -0.000015     -0.000012      0.000000
    279 O2    s      -0.000028      0.000023      0.000031      0.000000
    280 O2    s       0.000028     -0.000015     -0.000006      0.000000
    281 O2    s      -0.000032      0.000033     -0.000002      0.000000
    282 O3    s      -0.000131      0.000494     -0.000952      0.000000
    283 O3    s      -0.000002     -0.000005     -0.000020      0.000000
    284 O2    s      -0.000114      0.000119     -0.000154      0.000000
    285 O2    s      -0.000025      0.000012     -0.000010      0.000000
    286 O2    s       0.000005     -0.000022      0.000006      0.000000
    287 O2    s       0.000045     -0.000040      0.000009      0.000000
    288 O2    s      -0.000028      0.000024     -0.000016      0.000000
    289 O2    s       0.000012     -0.000030     -0.000036      0.000000
    290 O2    s      -0.000010      0.000033      0.000008      0.000000
    291 O2    s      -0.000010      0.000004      0.000050      0.000000
    292 O3    s      -0.000009      0.000012     -0.000026      0.000000
    293 O2    s      -0.000015      0.000026      0.000046      0.000000
    294 O2    s       0.000023      0.000019      0.000299      0.000000
    295 O2    s      -0.000010      0.000029     -0.000034      0.000000
    296 O3    s       0.000018     -0.000357      0.000328      0.000000
    297 O2    s      -0.000005      0.000004      0.000008      0.000000
    298 O2    s       0.000010     -0.000028      0.000019      0.000000
    299 O2    s      -0.000004     -0.000001     -0.000024      0.000000
    300 O2    s      -0.000027      0.000002     -0.000034      0.000000
    301 O2    s      -0.000019      0.000028     -0.000020      0.000000
    302 O2    s      -0.000039      0.000015     -0.000021      0.000000
    303 O2    s      -0.000041      0.000035      0.000094      0.000000
    304 O2    s      -0.000020      0.000014     -0.000013      0.000000
    305 O2    s       0.000081     -0.000058     -0.000048      0.000000
    306 O2    s      -0.000039      0.000047     -0.000014      0.000000
    307 F     s      -0.000011      0.000003     -0.000018      0.000000
    308 F     s       0.000002     -0.000002      0.000005      0.000000
    309 F     s      -0.000005      0.000022     -0.000021      0.000000
    310 F     s      -0.000003     -0.000003     -0.000003      0.000000
    311 F     s       0.000386     -0.000004      0.000865      0.000000
    312 F     s       0.000002     -0.000011      0.000029      0.000000
--------------------------------------------------------------------------------
  Maximum abs         0.000386      0.000494      0.001264      0.000000
--------------------------------------------------------------------------------


  Time to end of optimisation =      62.8621 seconds


  Peak dynamic memory used =      19.13 MB 


  Timing analysis for GULP :

--------------------------------------------------------------------------------
  Task / Subroutine                                          Time (Seconds)
--------------------------------------------------------------------------------
  Calculation of reciprocal space energy and derivatives          1.9973
  Calculation of real space energy and derivatives               52.3729
  Calculation of three-body energy and derivatives                7.1415
  Calculation of matrix inversion                                 0.9715
--------------------------------------------------------------------------------
  Total CPU time                                                 62.8621
--------------------------------------------------------------------------------


  Dump file written as out.res                                                 
  CIF file written as out.cif                                                 


  Job Finished at 17:09.39  1st December   2016                               

