********************************************************************************
*                       GENERAL UTILITY LATTICE PROGRAM                        *
*                                 Julian Gale                                  *
*                      Nanochemistry Research Institute                        *
*                           Department of Chemistry                            *
*                    Curtin University, Western Australia                      *
********************************************************************************
* Version = 4.2.0 * Last modified =  20th January 2014                         *
********************************************************************************
*  optimise     - perform optimisation run                                     *
*  conp         - constant pressure calculation                                *
*  qok          - running with non charge neutral cell is OK                   *
********************************************************************************

  Job Started  at 10:01.50  1st December   2016                               

  Number of CPUs =     1


  Total number of configurations input =   1

********************************************************************************
*  Input for Configuration =   1                                               *
********************************************************************************

  Formula = Ge3Si57O120F6                                               

  Number of irreducible atoms/shells =     312


  Total number atoms/shells =     312

  Dimensionality = 3               :  Bulk   


  Charge on solid   =  -6.000000 =>neutralising background added


  Cartesian lattice vectors (Angstroms) :

       11.984279    0.000000    0.000000
       -6.009948   10.366882    0.000000
        0.170901   -0.234247   29.460347

  Cell parameters (Angstroms/Degrees):

  a =      11.9843    alpha =  90.5608
  b =      11.9830    beta  =  89.6676
  c =      29.4618    gamma = 120.1020

  Initial cell volume =        3660.141907 Angs**3

  Temperature of configuration =  0.000     K 

  Pressure of configuration =         0.000 GPa 

  Fractional coordinates of asymmetric unit :

--------------------------------------------------------------------------------
   No.  Atomic       x           y          z         Charge      Occupancy
        Label      (Frac)      (Frac)     (Frac)        (e)         (Frac)  
--------------------------------------------------------------------------------
      1 Ge    c    0.699600    0.375700    0.033890     4.00000    1.000000    
      2 Si    c    0.622063 *  0.322069 *  0.367349 *   4.00000    1.000000    
      3 Si    c    0.676431 *  0.296243 *  0.698782 *   4.00000    1.000000    
      4 Si    c    0.297977 *  0.620291 *  0.533361 *   4.00000    1.000000    
      5 Si    c    0.377735 *  0.677371 *  0.865890 *   4.00000    1.000000    
      6 Si    c    0.332723 *  0.693806 *  0.201210 *   4.00000    1.000000    
      7 Si    c    0.380482 *  0.696792 *  0.302349 *   4.00000    1.000000    
      8 Si    c    0.323559 *  0.619509 *  0.966445 *   4.00000    1.000000    
      9 Si    c    0.296170 *  0.675273 *  0.634078 *   4.00000    1.000000    
     10 Si    c    0.621158 *  0.296923 *  0.799330 *   4.00000    1.000000    
     11 Si    c    0.677176 *  0.378561 *  0.467907 *   4.00000    1.000000    
     12 Si    c    0.690000 *  0.310781 *  0.136585 *   4.00000    1.000000    
     13 Si    c    0.530048 *  0.415349 *  0.965125 *   4.00000    1.000000    
     14 Si    c    0.582765 *  0.107898 *  0.303215 *   4.00000    1.000000    
     15 Si    c    0.887055 *  0.469178 *  0.634209 *   4.00000    1.000000    
     16 Si    c    0.471248 *  0.581847 *  0.468625 *   4.00000    1.000000    
     17 Si    c    0.416287 *  0.887442 *  0.801090 *   4.00000    1.000000    
     18 Si    c    0.123245 *  0.530089 *  0.136377 *   4.00000    1.000000    
     19 Si    c    0.418603 *  0.526831 *  0.367087 *   4.00000    1.000000    
     20 Si    c    0.117604 *  0.588702 *  0.033627 *   4.00000    1.000000    
     21 Si    c    0.468586 *  0.885743 *  0.699265 *   4.00000    1.000000    
     22 Si    c    0.582208 *  0.470517 *  0.863500 *   4.00000    1.000000    
     23 Si    c    0.887469 *  0.416011 *  0.532441 *   4.00000    1.000000    
     24 Si    c    0.530728 *  0.098574 *  0.202121 *   4.00000    1.000000    
     25 Si    c    0.301507 *  0.399438 *  0.849690 *   4.00000    1.000000    
     26 Si    c    0.610578 *  0.896893 *  0.188020 *   4.00000    1.000000    
     27 Si    c    0.096977 *  0.696889 *  0.518605 *   4.00000    1.000000    
     28 Si    c    0.699864 *  0.600079 *  0.352085 *   4.00000    1.000000    
     29 Si    c    0.397502 *  0.094632 *  0.684626 *   4.00000    1.000000    
     30 Si    c    0.906989 *  0.300940 *  0.017191 *   4.00000    1.000000    
     31 Si    c    0.399225 *  0.301733 *  0.482726 *   4.00000    1.000000    
     32 Ge    c    0.901343 *  0.582145 *  0.142725 *   4.00000    1.000000    
     33 Si    c    0.697393 *  0.096747 *  0.814514 *   4.00000    1.000000    
     34 Si    c    0.602087 *  0.695986 *  0.980302 *   4.00000    1.000000    
     35 Si    c    0.095004 *  0.397440 *  0.648564 *   4.00000    1.000000    
     36 Si    c    0.300626 *  0.896725 *  0.315709 *   4.00000    1.000000    
     37 Si    c    0.252062 *  0.339957 *  0.949965 *   4.00000    1.000000    
     38 Si    c    0.661660 *  0.907250 *  0.289230 *   4.00000    1.000000    
     39 Si    c    0.088366 *  0.747603 *  0.619407 *   4.00000    1.000000    
     40 Si    c    0.749635 *  0.658991 *  0.453029 *   4.00000    1.000000    
     41 Si    c    0.339712 *  0.088728 *  0.785448 *   4.00000    1.000000    
     42 Si    c    0.912755 *  0.249243 *  0.119143 *   4.00000    1.000000    
     43 Si    c    0.340682 *  0.248458 *  0.382140 *   4.00000    1.000000    
     44 Si    c    0.914393 *  0.669743 *  0.047365 *   4.00000    1.000000    
     45 Si    c    0.747813 *  0.087465 *  0.713823 *   4.00000    1.000000    
     46 Si    c    0.659231 *  0.749155 *  0.879655 *   4.00000    1.000000    
     47 Si    c    0.088525 *  0.338957 *  0.547743 *   4.00000    1.000000    
     48 Si    c    0.251716 *  0.897260 *  0.214510 *   4.00000    1.000000    
     49 Si    c    0.974644 *  0.121906 *  0.965011 *   4.00000    1.000000    
     50 Si    c    0.879465 *  0.848223 *  0.301973 *   4.00000    1.000000    
     51 Si    c    0.150362 *  0.027714 *  0.633784 *   4.00000    1.000000    
     52 Si    c    0.029978 *  0.876552 *  0.468070 *   4.00000    1.000000    
     53 Si    c    0.121287 *  0.150619 *  0.799353 *   4.00000    1.000000    
     54 Si    c    0.855056 *  0.969909 *  0.133378 *   4.00000    1.000000    
     55 Si    c    0.122835 *  0.967865 *  0.367047 *   4.00000    1.000000    
     56 Si    c    0.849585 *  0.880856 *  0.030722 *   4.00000    1.000000    
     57 Si    c    0.027719 *  0.149920 *  0.698677 *   4.00000    1.000000    
     58 Si    c    0.877266 *  0.028859 *  0.864268 *   4.00000    1.000000    
     59 Si    c    0.151259 *  0.121264 *  0.533114 *   4.00000    1.000000    
     60 Ge    c    0.967492 *  0.835778 *  0.198114 *   4.00000    1.000000    
     61 O2    c    0.927691 *  0.002779 *  0.998366 *   0.87073    1.000000    
     62 O2    c    0.001038 *  0.926143 *  0.335111 *   0.87073    1.000000    
     63 O2    c    0.069971 *  0.070241 *  0.666003 *   0.87073    1.000000    
     64 O2    c    0.071401 *  0.998834 *  0.500648 *   0.87073    1.000000    
     65 O2    c    0.998974 *  0.070694 *  0.831701 *   0.87073    1.000000    
     66 O3    c    0.943828 *  0.937234 *  0.162473 *   1.33043    1.000000    
     67 O2    c    0.341008 *  0.574319 *  0.335008 *   0.87073    1.000000    
     68 O2    c    0.419247 *  0.759604 *  0.666931 *   0.87073    1.000000    
     69 O2    c    0.241125 *  0.659340 *  0.000233 *   0.87073    1.000000    
     70 O2    c    0.659899 *  0.422264 *  0.831264 *   0.87073    1.000000    
     71 O2    c    0.570377 *  0.218044 *  0.168356 *   0.87073    1.000000    
     72 O2    c    0.761712 *  0.339867 *  0.500196 *   0.87073    1.000000    
     73 O3    c    0.573399 *  0.336282 *  0.996553 *   1.33043    1.000000    
     74 O2    c    0.760668 *  0.419230 *  0.666387 *   0.87073    1.000000    
     75 O2    c    0.659226 *  0.234884 *  0.335213 *   0.87073    1.000000    
     76 O2    c    0.421860 *  0.658836 *  0.501036 *   0.87073    1.000000    
     77 O2    c    0.251620 *  0.571930 *  0.166704 *   0.87073    1.000000    
     78 O2    c    0.339974 *  0.762914 *  0.833854 *   0.87073    1.000000    
     79 O2    c    0.128826 *  0.210433 *  0.969785 *   0.87073    1.000000    
     80 O2    c    0.786211 *  0.908319 *  0.310746 *   0.87073    1.000000    
     81 O2    c    0.087173 *  0.873795 *  0.639383 *   0.87073    1.000000    
     82 O2    c    0.875773 *  0.785769 *  0.473214 *   0.87073    1.000000    
     83 O2    c    0.212891 *  0.088632 *  0.805274 *   0.87073    1.000000    
     84 O2    c    0.911360 *  0.123919 *  0.138554 *   0.87073    1.000000    
     85 O2    c    0.214809 *  0.122018 *  0.361870 *   0.87073    1.000000    
     86 O2    c    0.917248 *  0.794517 *  0.024244 *   0.87073    1.000000    
     87 O2    c    0.873429 *  0.086194 *  0.693607 *   0.87073    1.000000    
     88 O2    c    0.785072 *  0.874626 *  0.859114 *   0.87073    1.000000    
     89 O2    c    0.087954 *  0.211911 *  0.527846 *   0.87073    1.000000    
     90 O3    c    0.133019 *  0.899173 *  0.192204 *   1.33043    1.000000    
     91 O3    c    0.931079 *  0.868862 *  0.251803 *   1.33043    1.000000    
     92 O2    c    0.138252 *  0.067964 *  0.583455 *   0.87073    1.000000    
     93 O2    c    0.930587 *  0.067668 *  0.914842 *   0.87073    1.000000    
     94 O2    c    0.068136 *  0.136232 *  0.748935 *   0.87073    1.000000    
     95 O2    c    0.857856 *  0.933554 *  0.081049 *   0.87073    1.000000    
     96 O2    c    0.071851 *  0.929228 *  0.417817 *   0.87073    1.000000    
     97 O2    c    0.912854 *  0.210817 *  0.977444 *   0.87073    1.000000    
     98 O2    c    0.797683 *  0.695298 *  0.313497 *   0.87073    1.000000    
     99 O2    c    0.301668 *  0.096627 *  0.646329 *   0.87073    1.000000    
    100 O2    c    0.099059 *  0.794678 *  0.480433 *   0.87073    1.000000    
    101 O2    c    0.203066 *  0.302798 *  0.811198 *   0.87073    1.000000    
    102 O2    c    0.705919 *  0.893925 *  0.149458 *   0.87073    1.000000    
    103 O2    c    0.203154 *  0.896955 *  0.354152 *   0.87073    1.000000    
    104 O2    c    0.698053 *  0.795185 *  0.018625 *   0.87073    1.000000    
    105 O2    c    0.096458 *  0.301353 *  0.686888 *   0.87073    1.000000    
    106 O2    c    0.795747 *  0.098831 *  0.852834 *   0.87073    1.000000    
    107 O2    c    0.302840 *  0.204092 *  0.521213 *   0.87073    1.000000    
    108 O1    c    0.889891 *  0.679721 *  0.186557 *   1.73396    1.000000    
    109 O2    c    0.327797 *  0.637300 *  0.251729 *   0.87073    1.000000    
    110 O2    c    0.354575 *  0.676777 *  0.583842 *   0.87073    1.000000    
    111 O2    c    0.321755 *  0.677217 *  0.916625 *   0.87073    1.000000    
    112 O2    c    0.678135 *  0.354065 *  0.749243 *   0.87073    1.000000    
    113 O3    c    0.635230 *  0.312152 *  0.086203 *   1.33043    1.000000    
    114 O2    c    0.678468 *  0.321861 *  0.417556 *   0.87073    1.000000    
    115 O2    c    0.373561 *  0.330311 *  0.968130 *   0.87073    1.000000    
    116 O2    c    0.669984 *  0.039432 *  0.307270 *   0.87073    1.000000    
    117 O2    c    0.955680 *  0.625453 *  0.637739 *   0.87073    1.000000    
    118 O2    c    0.627526 *  0.669502 *  0.471669 *   0.87073    1.000000    
    119 O2    c    0.329487 *  0.956896 *  0.804166 *   0.87073    1.000000    
    120 O2    c    0.044662 *  0.372870 *  0.136851 *   0.87073    1.000000    
    121 O2    c    0.330765 *  0.370549 *  0.364046 *   0.87073    1.000000    
    122 O2    c    0.049530 *  0.676084 *  0.032274 *   0.87073    1.000000    
    123 O2    c    0.624781 *  0.954253 *  0.696104 *   0.87073    1.000000    
    124 O2    c    0.668684 *  0.626756 *  0.860788 *   0.87073    1.000000    
    125 O2    c    0.956388 *  0.328762 *  0.529323 *   0.87073    1.000000    
    126 O2    c    0.376264 *  0.030112 *  0.198301 *   0.87073    1.000000    
    127 O3    c    0.772179 *  0.294080 *  0.011399 *   1.33043    1.000000    
    128 O2    c    0.697890 *  0.464719 *  0.344871 *   0.87073    1.000000    
    129 O2    c    0.532489 *  0.227551 *  0.677053 *   0.87073    1.000000    
    130 O2    c    0.230348 *  0.695517 *  0.511251 *   0.87073    1.000000    
    131 O2    c    0.302580 *  0.534066 *  0.843085 *   0.87073    1.000000    
    132 O2    c    0.477181 *  0.762225 *  0.180070 *   0.87073    1.000000    
    133 O2    c    0.303691 *  0.764660 *  0.323744 *   0.87073    1.000000    
    134 O2    c    0.466768 *  0.693115 *  0.988754 *   0.87073    1.000000    
    135 O2    c    0.228343 *  0.532256 *  0.656339 *   0.87073    1.000000    
    136 O2    c    0.696549 *  0.230403 *  0.822359 *   0.87073    1.000000    
    137 O2    c    0.533827 *  0.303363 *  0.490358 *   0.87073    1.000000    
    138 O3    c    0.752484 *  0.449177 *  0.159699 *   1.33043    1.000000    
    139 O3    c    0.790720 *  0.542247 *  0.027755 *   1.33043    1.000000    
    140 O2    c    0.466173 *  0.247785 *  0.362516 *   0.87073    1.000000    
    141 O2    c    0.749102 *  0.213051 *  0.693957 *   0.87073    1.000000    
    142 O2    c    0.215101 *  0.464163 *  0.528396 *   0.87073    1.000000    
    143 O2    c    0.533575 *  0.750460 *  0.861111 *   0.87073    1.000000    
    144 O2    c    0.257081 *  0.772840 *  0.195718 *   0.87073    1.000000    
    145 O2    c    0.535848 *  0.780352 *  0.308081 *   0.87073    1.000000    
    146 O2    c    0.246268 *  0.462897 *  0.970495 *   0.87073    1.000000    
    147 O2    c    0.214733 *  0.749849 *  0.639269 *   0.87073    1.000000    
    148 O2    c    0.465043 *  0.215820 *  0.804943 *   0.87073    1.000000    
    149 O2    c    0.751256 *  0.534684 *  0.472837 *   0.87073    1.000000    
    150 O2    c    0.786829 *  0.251518 *  0.136266 *   0.87073    1.000000    
    151 O2    c    0.230887 *  0.323407 *  0.895708 *   0.87073    1.000000    
    152 O2    c    0.683301 *  0.903165 *  0.234942 *   0.87073    1.000000    
    153 O2    c    0.091724 *  0.766983 *  0.565158 *   0.87073    1.000000    
    154 O2    c    0.769234 *  0.674993 *  0.398718 *   0.87073    1.000000    
    155 O2    c    0.322957 *  0.090195 *  0.731160 *   0.87073    1.000000    
    156 O2    c    0.915351 *  0.239521 *  0.064517 *   0.87073    1.000000    
    157 O2    c    0.323763 *  0.230220 *  0.436507 *   0.87073    1.000000    
    158 O3    c    0.909901 *  0.692794 *  0.100567 *   1.33043    1.000000    
    159 O2    c    0.767929 *  0.091636 *  0.768165 *   0.87073    1.000000    
    160 O2    c    0.676323 *  0.767071 *  0.934016 *   0.87073    1.000000    
    161 O2    c    0.090222 *  0.322254 *  0.602063 *   0.87073    1.000000    
    162 O2    c    0.228729 *  0.894308 *  0.269076 *   0.87073    1.000000    
    163 O2    c    0.589962 *  0.557322 *  0.988914 *   0.87073    1.000000    
    164 O2    c    0.439164 *  0.024015 *  0.324562 *   0.87073    1.000000    
    165 O2    c    0.969697 *  0.411493 *  0.657563 *   0.87073    1.000000    
    166 O2    c    0.413090 *  0.441110 *  0.491853 *   0.87073    1.000000    
    167 O2    c    0.558105 *  0.971436 *  0.823843 *   0.87073    1.000000    
    168 O3    c    0.044429 *  0.588127 *  0.160467 *   1.33043    1.000000    
    169 O2    c    0.559598 *  0.584077 *  0.343711 *   0.87073    1.000000    
    170 O2    c    0.021735 *  0.447807 *  0.012267 *   0.87073    1.000000    
    171 O2    c    0.411783 *  0.969311 *  0.676163 *   0.87073    1.000000    
    172 O2    c    0.440940 *  0.413918 *  0.840621 *   0.87073    1.000000    
    173 O2    c    0.971975 *  0.557075 *  0.509662 *   0.87073    1.000000    
    174 O2    c    0.596484 *  0.021775 *  0.178950 *   0.87073    1.000000    
    175 O2    c    0.586232 *  0.159561 *  0.252096 *   0.87073    1.000000    
    176 O2    c    0.834179 *  0.415953 *  0.583356 *   0.87073    1.000000    
    177 O2    c    0.582859 *  0.417392 *  0.913974 *   0.87073    1.000000    
    178 O2    c    0.415519 *  0.833524 *  0.750168 *   0.87073    1.000000    
    179 O2    c    0.166280 *  0.582004 *  0.084273 *   0.87073    1.000000    
    180 O2    c    0.418387 *  0.581184 *  0.417881 *   0.87073    1.000000    
    181 F     c    0.458045 *  0.898995 *  0.251616 *   0.56000    1.000000    
    182 F     c    0.095444 *  0.547233 *  0.584169 *   0.56000    1.000000    
    183 F     c    0.449808 *  0.546625 *  0.916061 *   0.56000    1.000000    
    184 F     c    0.548088 *  0.095684 *  0.750435 *   0.56000    1.000000    
    185 F     c    0.897433 *  0.476142 *  0.092099 *   0.56000    1.000000    
    186 F     c    0.548460 *  0.450605 *  0.418075 *   0.56000    1.000000    
    187 O2    s    0.924364 *  0.002876 *  0.998146 *  -2.87073    1.000000    
    188 O2    s    0.001620 *  0.922351 *  0.335138 *  -2.87073    1.000000    
    189 O2    s    0.074225 *  0.074461 *  0.666077 *  -2.87073    1.000000    
    190 O2    s    0.075752 *  0.998922 *  0.500659 *  -2.87073    1.000000    
    191 O2    s    0.998917 *  0.074887 *  0.831757 *  -2.87073    1.000000    
    192 O3    s    0.935816 *  0.932919 *  0.162036 *  -3.33043    1.000000    
    193 O2    s    0.353053 *  0.582075 *  0.334924 *  -2.87073    1.000000    
    194 O2    s    0.411742 *  0.764049 *  0.666914 *  -2.87073    1.000000    
    195 O2    s    0.236580 *  0.647915 *  0.000288 *  -2.87073    1.000000    
    196 O2    s    0.647847 *  0.414404 *  0.831329 *  -2.87073    1.000000    
    197 O2    s    0.579241 *  0.215526 *  0.168426 *  -2.87073    1.000000    
    198 O2    s    0.766083 *  0.351713 *  0.500218 *  -2.87073    1.000000    
    199 O3    s    0.578907 *  0.347253 *  0.996325 *  -3.33043    1.000000    
    200 O2    s    0.764900 *  0.411606 *  0.666449 *  -2.87073    1.000000    
    201 O2    s    0.647464 *  0.230748 *  0.335229 *  -2.87073    1.000000    
    202 O2    s    0.414119 *  0.646959 *  0.501063 *  -2.87073    1.000000    
    203 O2    s    0.246688 *  0.579693 *  0.167052 *  -2.87073    1.000000    
    204 O2    s    0.351618 *  0.766817 *  0.833818 *  -2.87073    1.000000    
    205 O2    s    0.124878 *  0.214211 *  0.967267 *  -2.87073    1.000000    
    206 O2    s    0.782817 *  0.902005 *  0.307631 *  -2.87073    1.000000    
    207 O2    s    0.094014 *  0.877146 *  0.636758 *  -2.87073    1.000000    
    208 O2    s    0.879162 *  0.782337 *  0.470609 *  -2.87073    1.000000    
    209 O2    s    0.216245 *  0.095207 *  0.802639 *  -2.87073    1.000000    
    210 O2    s    0.905672 *  0.121735 *  0.135910 *  -2.87073    1.000000    
    211 O2    s    0.218188 *  0.118875 *  0.364500 *  -2.87073    1.000000    
    212 O2    s    0.909789 *  0.791258 *  0.027184 *  -2.87073    1.000000    
    213 O2    s    0.876783 *  0.093076 *  0.696211 *  -2.87073    1.000000    
    214 O2    s    0.781839 *  0.878023 *  0.861757 *  -2.87073    1.000000    
    215 O2    s    0.094713 *  0.215466 *  0.530435 *  -2.87073    1.000000    
    216 O3    s    0.132624 *  0.894010 *  0.194994 *  -3.33043    1.000000    
    217 O3    s    0.928361 *  0.863896 *  0.252966 *  -3.33043    1.000000    
    218 O2    s    0.141105 *  0.069399 *  0.583512 *  -2.87073    1.000000    
    219 O2    s    0.929612 *  0.069491 *  0.914870 *  -2.87073    1.000000    
    220 O2    s    0.069633 *  0.139420 *  0.749011 *  -2.87073    1.000000    
    221 O2    s    0.856641 *  0.931553 *  0.081034 *  -2.87073    1.000000    
    222 O2    s    0.072831 *  0.927570 *  0.417824 *  -2.87073    1.000000    
    223 O2    s    0.918829 *  0.210998 *  0.980381 *  -2.87073    1.000000    
    224 O2    s    0.796025 *  0.701127 *  0.316254 *  -2.87073    1.000000    
    225 O2    s    0.295490 *  0.089110 *  0.648939 *  -2.87073    1.000000    
    226 O2    s    0.091522 *  0.793271 *  0.483058 *  -2.87073    1.000000    
    227 O2    s    0.204506 *  0.296607 *  0.813890 *  -2.87073    1.000000    
    228 O2    s    0.711675 *  0.902167 *  0.151787 *  -2.87073    1.000000    
    229 O2    s    0.204641 *  0.904450 *  0.351576 *  -2.87073    1.000000    
    230 O2    s    0.704116 *  0.793962 *  0.015934 *  -2.87073    1.000000    
    231 O2    s    0.088989 *  0.295012 *  0.684246 *  -2.87073    1.000000    
    232 O2    s    0.794445 *  0.091187 *  0.850175 *  -2.87073    1.000000    
    233 O2    s    0.296506 *  0.205217 *  0.518563 *  -2.87073    1.000000    
    234 O1    s    0.897647 *  0.687821 *  0.184900 *  -3.73396    1.000000    
    235 O2    s    0.333613 *  0.649064 *  0.251664 *  -2.87073    1.000000    
    236 O2    s    0.342800 *  0.670849 *  0.583846 *  -2.87073    1.000000    
    237 O2    s    0.327585 *  0.671394 *  0.916549 *  -2.87073    1.000000    
    238 O2    s    0.672085 *  0.342226 *  0.749228 *  -2.87073    1.000000    
    239 O3    s    0.645437 *  0.317256 *  0.086504 *  -3.33043    1.000000    
    240 O2    s    0.672567 *  0.327720 *  0.417596 *  -2.87073    1.000000    
    241 O2    s    0.376525 *  0.340130 *  0.965852 *  -2.87073    1.000000    
    242 O2    s    0.660099 *  0.032594 *  0.304941 *  -2.87073    1.000000    
    243 O2    s    0.962459 *  0.622125 *  0.635458 *  -2.87073    1.000000    
    244 O2    s    0.624195 *  0.659391 *  0.469403 *  -2.87073    1.000000    
    245 O2    s    0.339443 *  0.963473 *  0.801904 *  -2.87073    1.000000    
    246 O2    s    0.038650 *  0.375689 *  0.134914 *  -2.87073    1.000000    
    247 O2    s    0.340848 *  0.373850 *  0.366264 *  -2.87073    1.000000    
    248 O2    s    0.043459 *  0.666322 *  0.033915 *  -2.87073    1.000000    
    249 O2    s    0.621628 *  0.961189 *  0.698304 *  -2.87073    1.000000    
    250 O2    s    0.658763 *  0.623524 *  0.863064 *  -2.87073    1.000000    
    251 O2    s    0.963107 *  0.338774 *  0.531572 *  -2.87073    1.000000    
    252 O2    s    0.379813 *  0.023381 *  0.200470 *  -2.87073    1.000000    
    253 O3    s    0.780286 *  0.301323 *  0.013813 *  -3.33043    1.000000    
    254 O2    s    0.690299 *  0.464164 *  0.347966 *  -2.87073    1.000000    
    255 O2    s    0.533100 *  0.220614 *  0.680124 *  -2.87073    1.000000    
    256 O2    s    0.223265 *  0.687919 *  0.514330 *  -2.87073    1.000000    
    257 O2    s    0.310191 *  0.534662 *  0.846155 *  -2.87073    1.000000    
    258 O2    s    0.476167 *  0.769231 *  0.183145 *  -2.87073    1.000000    
    259 O2    s    0.311297 *  0.771482 *  0.320659 *  -2.87073    1.000000    
    260 O2    s    0.466070 *  0.685782 *  0.985533 *  -2.87073    1.000000    
    261 O2    s    0.221246 *  0.532724 *  0.653202 *  -2.87073    1.000000    
    262 O2    s    0.688936 *  0.223163 *  0.819159 *  -2.87073    1.000000    
    263 O2    s    0.534404 *  0.310916 *  0.487218 *  -2.87073    1.000000    
    264 O3    s    0.756794 *  0.444419 *  0.155982 *  -3.33043    1.000000    
    265 O3    s    0.795785 *  0.541591 *  0.030184 *  -3.33043    1.000000    
    266 O2    s    0.468859 *  0.255728 *  0.365127 *  -2.87073    1.000000    
    267 O2    s    0.741269 *  0.208017 *  0.696583 *  -2.87073    1.000000    
    268 O2    s    0.209908 *  0.466852 *  0.530983 *  -2.87073    1.000000    
    269 O2    s    0.530859 *  0.742562 *  0.863602 *  -2.87073    1.000000    
    270 O2    s    0.264705 *  0.777720 *  0.198281 *  -2.87073    1.000000    
    271 O2    s    0.533080 *  0.785379 *  0.305457 *  -2.87073    1.000000    
    272 O2    s    0.254830 *  0.465973 *  0.967950 *  -2.87073    1.000000    
    273 O2    s    0.209442 *  0.741762 *  0.636618 *  -2.87073    1.000000    
    274 O2    s    0.467643 *  0.210376 *  0.802292 *  -2.87073    1.000000    
    275 O2    s    0.743261 *  0.531798 *  0.470214 *  -2.87073    1.000000    
    276 O2    s    0.791308 *  0.257375 *  0.134379 *  -2.87073    1.000000    
    277 O2    s    0.240524 *  0.333136 *  0.896659 *  -2.87073    1.000000    
    278 O2    s    0.673464 *  0.902895 *  0.235650 *  -2.87073    1.000000    
    279 O2    s    0.091909 *  0.757551 *  0.566051 *  -2.87073    1.000000    
    280 O2    s    0.759900 *  0.665454 *  0.399621 *  -2.87073    1.000000    
    281 O2    s    0.332559 *  0.090496 *  0.732058 *  -2.87073    1.000000    
    282 O2    s    0.914220 *  0.247136 *  0.065215 *  -2.87073    1.000000    
    283 O2    s    0.333469 *  0.239657 *  0.435609 *  -2.87073    1.000000    
    284 O3    s    0.909800 *  0.683069 *  0.098085 *  -3.33043    1.000000    
    285 O2    s    0.758396 *  0.091723 *  0.767298 *  -2.87073    1.000000    
    286 O2    s    0.666751 *  0.757741 *  0.933059 *  -2.87073    1.000000    
    287 O2    s    0.090537 *  0.331931 *  0.601216 *  -2.87073    1.000000    
    288 O2    s    0.238515 *  0.894792 *  0.268410 *  -2.87073    1.000000    
    289 O2    s    0.585024 *  0.557619 *  0.985600 *  -2.87073    1.000000    
    290 O2    s    0.439368 *  0.019003 *  0.321372 *  -2.87073    1.000000    
    291 O2    s    0.974747 *  0.416157 *  0.654163 *  -2.87073    1.000000    
    292 O2    s    0.417834 *  0.440777 *  0.488450 *  -2.87073    1.000000    
    293 O2    s    0.558267 *  0.976296 *  0.820469 *  -2.87073    1.000000    
    294 O3    s    0.041797 *  0.581498 *  0.156644 *  -3.33043    1.000000    
    295 O2    s    0.559927 *  0.579628 *  0.347053 *  -2.87073    1.000000    
    296 O2    s    0.019319 *  0.446788 *  0.015076 *  -2.87073    1.000000    
    297 O2    s    0.416351 *  0.974311 *  0.679496 *  -2.87073    1.000000    
    298 O2    s    0.440641 *  0.418447 *  0.843988 *  -2.87073    1.000000    
    299 O2    s    0.976792 *  0.557393 *  0.513014 *  -2.87073    1.000000    
    300 O2    s    0.591094 *  0.016121 *  0.182334 *  -2.87073    1.000000    
    301 O2    s    0.580154 *  0.147888 *  0.252219 *  -2.87073    1.000000    
    302 O2    s    0.845222 *  0.421513 *  0.583384 *  -2.87073    1.000000    
    303 O2    s    0.577354 *  0.422710 *  0.914022 *  -2.87073    1.000000    
    304 O2    s    0.421060 *  0.844497 *  0.750228 *  -2.87073    1.000000    
    305 O2    s    0.156977 *  0.577600 *  0.084103 *  -2.87073    1.000000    
    306 O2    s    0.423913 *  0.575617 *  0.417900 *  -2.87073    1.000000    
    307 F     s    0.458198 *  0.898923 *  0.251544 *  -1.56000    1.000000    
    308 F     s    0.095817 *  0.547458 *  0.584243 *  -1.56000    1.000000    
    309 F     s    0.449404 *  0.546721 *  0.916164 *  -1.56000    1.000000    
    310 F     s    0.548389 *  0.096172 *  0.750534 *  -1.56000    1.000000    
    311 F     s    0.896444 *  0.481880 *  0.094662 *  -1.56000    1.000000    
    312 F     s    0.548590 *  0.450380 *  0.418128 *  -1.56000    1.000000    
--------------------------------------------------------------------------------



********************************************************************************
*  General input information                                                   *
********************************************************************************

  Species output for all configurations : 

--------------------------------------------------------------------------------
  Species    Type    Atomic    Atomic    Charge       Radii (Angs)     Library
                     Number     Mass       (e)     Cova   Ionic  VDW   Symbol
--------------------------------------------------------------------------------
    Si       Core       14      28.09   4.000000   1.200  0.000  2.100          
    O1       Core        8      16.00   1.733957   0.730  0.000  1.360          
    O1       Shell       8       0.00  -3.733957   0.730  0.000  1.360          
    O2       Core        8      16.00   0.870733   0.730  0.000  1.360          
    O2       Shell       8       0.00  -2.870733   0.730  0.000  1.360          
    O3       Core        8      16.00   1.330431   0.730  0.000  1.360          
    O3       Shell       8       0.00  -3.330431   0.730  0.000  1.360          
    F        Core        9      19.00   0.560000   0.710  0.000  1.300          
    F        Shell       9       0.00  -1.560000   0.710  0.000  1.300          
    Ge       Core       32      72.61   4.000000   1.170  0.000  1.750          
--------------------------------------------------------------------------------


  Lattice summation method               =    Ewald          (3-D)
                                         =    Parry          (2-D)
                                         =    Saunders et al (1-D)
  Accuracy factor for lattice sums       =   12.000


  Time limit = Infinity

  Maximum range for interatomic potentials =        16.000000 Angstroms

  Taper potentials to zero over   1.0000 Angstroms using polynomial

  General interatomic potentials :

--------------------------------------------------------------------------------
Atom  Types   Potential         A         B         C         D     Cutoffs(Ang)
  1     2                                                            Min    Max 
--------------------------------------------------------------------------------
Si   c O1   s Buckingham    0.132E+04 0.318      10.1      0.00     0.000 16.000
Si   c O2   s Buckingham    0.132E+04 0.318      10.1      0.00     0.000 16.000
Si   c O3   s Buckingham    0.132E+04 0.318      10.1      0.00     0.000 16.000
Ge   c O1   s Buckingham    0.150E+04 0.326      16.8      0.00     0.000 16.000
Ge   c O2   s Buckingham    0.150E+04 0.326      16.8      0.00     0.000 16.000
Ge   c O3   s Buckingham    0.150E+04 0.326      16.8      0.00     0.000 16.000
O1   s O1   s Buckingham    0.228E+05 0.149      10.9      0.00     0.000 16.000
O1   s O2   s Buckingham    0.228E+05 0.149      10.9      0.00     0.000 16.000
O1   s O3   s Buckingham    0.228E+05 0.149      10.9      0.00     0.000 16.000
O2   s O2   s Buckingham    0.228E+05 0.149      10.9      0.00     0.000 16.000
O2   s O3   s Buckingham    0.228E+05 0.149      10.9      0.00     0.000 16.000
O3   s O3   s Buckingham    0.228E+05 0.149      10.9      0.00     0.000 16.000
Si   c F    s Buckingham     977.     0.282      0.00      0.00     0.000 16.000
Ge   c F    s Buckingham     681.     0.320      0.00      0.00     0.000 16.000
F    s F    s Buckingham     540.     0.262      0.00      0.00     0.000 16.000
O1   s F    s Buckingham    0.168E+04 0.268      0.00      0.00     0.000 16.000
O2   s F    s Buckingham    0.168E+04 0.268      0.00      0.00     0.000 16.000
O3   s F    s Buckingham    0.168E+04 0.268      0.00      0.00     0.000 16.000
O2   c O2   s Spring (c-s)   76.0      0.00      0.00      0.00     0.000  0.800
O3   c O3   s Spring (c-s)   128.      0.00      0.00      0.00     0.000  0.800
O1   c O1   s Spring (c-s)   180.      0.00      0.00      0.00     0.000  0.800
F    c F    s Spring (c-s)   33.5      0.00      0.00      0.00     0.000  0.800
--------------------------------------------------------------------------------

  General Three-body potentials :

  Harmonic form:

--------------------------------------------------------------------------------
Atom    Atom    Atom           Force Constants            Theta     Cutoffs  
  1       2       3     (eVrad**-2/eVrad**-3/eVrad**-4)   (deg)  1-2  1-3  2-3
--------------------------------------------------------------------------------
Si    c O1    s O1    s  1.261        0.0000    0.0000   109.470 0.00 0.00 0.00
                                                                 1.90 1.90 3.50
Si    c O1    s O2    s  1.261        0.0000    0.0000   109.470 0.00 0.00 0.00
                                                                 1.90 1.90 3.50
Si    c O2    s O2    s  1.261        0.0000    0.0000   109.470 0.00 0.00 0.00
                                                                 1.90 1.90 3.50
--------------------------------------------------------------------------------

********************************************************************************
*  Output for configuration   1                                                *
********************************************************************************


  Components of energy : 

--------------------------------------------------------------------------------
  Interatomic potentials     =        2061.19216678 eV
  Three-body potentials      =           0.46832621 eV
  Monopole - monopole (real) =       -6610.38623638 eV
  Monopole - monopole (recip)=       -3170.72308154 eV
  Monopole - monopole (total)=       -9781.10931792 eV
  Neutralising energy        =          -6.45806835 eV
--------------------------------------------------------------------------------
  Total lattice energy       =       -7725.90689328 eV
--------------------------------------------------------------------------------
  Total lattice energy       =         -745431.9139 kJ/(mole unit cells)
--------------------------------------------------------------------------------


  Number of variables =      939

  Maximum number of calculations  =          1000
  Maximum Hessian update interval =            10
  Maximum step size               =   1.000000000
  Maximum parameter tolerance     =   0.000010000
  Maximum function  tolerance     =   0.000010000
  Maximum gradient  tolerance     =   0.001000000
  Maximum gradient  component     =   0.010000000

  Symmetry not applied to optimisation

  Cell parameters to be optimised using strains

  Newton-Raphson optimiser to be used

  BFGS hessian update to be used

  Dumpfile to be written after every cycle

  Start of bulk optimisation :

  Cycle:      0 Energy:     -7725.906893  Gnorm:      0.005409  CPU:    1.258
  ** Hessian calculated **
  Cycle:      1 Energy:     -7725.959834  Gnorm:      0.004171  CPU:    3.564
  Cycle:      2 Energy:     -7725.960242  Gnorm:      0.000402  CPU:    4.941
  Cycle:      3 Energy:     -7725.960255  Gnorm:      0.000087  CPU:    6.318
  Cycle:      4 Energy:     -7725.960255  Gnorm:      0.000021  CPU:    7.861


  **** Optimisation achieved ****


  Final energy =   -7725.96025534 eV
  Final Gnorm  =       0.00000224

  Components of energy : 

--------------------------------------------------------------------------------
  Interatomic potentials     =        2061.25175803 eV
  Three-body potentials      =           0.47259068 eV
  Monopole - monopole (real) =       -6609.96101129 eV
  Monopole - monopole (recip)=       -3171.26441965 eV
  Monopole - monopole (total)=       -9781.22543094 eV
  Neutralising energy        =          -6.45917311 eV
--------------------------------------------------------------------------------
  Total lattice energy       =       -7725.96025534 eV
--------------------------------------------------------------------------------
  Total lattice energy       =         -745437.0625 kJ/(mole unit cells)
--------------------------------------------------------------------------------

  Final fractional coordinates of atoms :

--------------------------------------------------------------------------------
   No.  Atomic        x           y          z          Radius
        Label       (Frac)      (Frac)     (Frac)       (Angs) 
--------------------------------------------------------------------------------
     1  Ge    c     0.699600    0.375700    0.033890    0.000000
     2  Si    c     0.616996    0.304381    0.366335    0.000000
     3  Si    c     0.669461    0.278593    0.698023    0.000000
     4  Si    c     0.293221    0.601741    0.533543    0.000000
     5  Si    c     0.373986    0.666249    0.866389    0.000000
     6  Si    c     0.329062    0.676189    0.201207    0.000000
     7  Si    c     0.376065    0.679009    0.302228    0.000000
     8  Si    c     0.322335    0.610416    0.967182    0.000000
     9  Si    c     0.289404    0.657111    0.634326    0.000000
    10  Si    c     0.615816    0.284078    0.798677    0.000000
    11  Si    c     0.672663    0.359845    0.466908    0.000000
    12  Si    c     0.683232    0.298853    0.135894    0.000000
    13  Si    c     0.527089    0.406427    0.964321    0.000000
    14  Si    c     0.576754    0.090119    0.301900    0.000000
    15  Si    c     0.880116    0.450604    0.633257    0.000000
    16  Si    c     0.466912    0.563142    0.468747    0.000000
    17  Si    c     0.410950    0.874694    0.801529    0.000000
    18  Si    c     0.117709    0.515817    0.137148    0.000000
    19  Si    c     0.413715    0.508867    0.367059    0.000000
    20  Si    c     0.115962    0.578880    0.034512    0.000000
    21  Si    c     0.461602    0.868235    0.699656    0.000000
    22  Si    c     0.578352    0.459904    0.862588    0.000000
    23  Si    c     0.882576    0.397221    0.531474    0.000000
    24  Si    c     0.525071    0.081603    0.200428    0.000000
    25  Si    c     0.297251    0.388542    0.849378    0.000000
    26  Si    c     0.605489    0.879304    0.187533    0.000000
    27  Si    c     0.092161    0.677915    0.518194    0.000000
    28  Si    c     0.695124    0.582461    0.351450    0.000000
    29  Si    c     0.390619    0.076997    0.684615    0.000000
    30  Si    c     0.902687    0.292808    0.017207    0.000000
    31  Si    c     0.394886    0.282950    0.482428    0.000000
    32  Ge    c     0.896053    0.568797    0.143360    0.000000
    33  Si    c     0.691777    0.083890    0.814507    0.000000
    34  Si    c     0.601337    0.687203    0.980334    0.000000
    35  Si    c     0.088081    0.379275    0.648064    0.000000
    36  Si    c     0.294928    0.878326    0.314786    0.000000
    37  Si    c     0.249156    0.330707    0.949941    0.000000
    38  Si    c     0.656434    0.889619    0.288756    0.000000
    39  Si    c     0.081339    0.729057    0.618981    0.000000
    40  Si    c     0.745298    0.640337    0.452565    0.000000
    41  Si    c     0.334359    0.075515    0.785481    0.000000
    42  Si    c     0.905854    0.236165    0.118719    0.000000
    43  Si    c     0.335723    0.230477    0.381755    0.000000
    44  Si    c     0.916851    0.665864    0.048707    0.000000
    45  Si    c     0.740959    0.070161    0.713795    0.000000
    46  Si    c     0.655780    0.738353    0.879360    0.000000
    47  Si    c     0.083643    0.320418    0.547286    0.000000
    48  Si    c     0.246144    0.878390    0.213480    0.000000
    49  Si    c     0.970921    0.114085    0.964919    0.000000
    50  Si    c     0.874825    0.831600    0.301863    0.000000
    51  Si    c     0.143332    0.009218    0.633712    0.000000
    52  Si    c     0.025652    0.857812    0.467887    0.000000
    53  Si    c     0.116935    0.138956    0.799385    0.000000
    54  Si    c     0.852194    0.958403    0.133684    0.000000
    55  Si    c     0.117908    0.950057    0.366845    0.000000
    56  Si    c     0.849491    0.873583    0.030712    0.000000
    57  Si    c     0.021055    0.132502    0.698600    0.000000
    58  Si    c     0.872829    0.018277    0.864369    0.000000
    59  Si    c     0.146692    0.102833    0.532855    0.000000
    60  Ge    c     0.963108    0.822406    0.197768    0.000000
    61  O2    c     0.925190    0.995419    0.998353    0.000000
    62  O2    c     0.994756    0.908257    0.335714    0.000000
    63  O2    c     0.062945    0.051675    0.666176    0.000000
    64  O2    c     0.066748    0.979574    0.500763    0.000000
    65  O2    c     0.994869    0.060405    0.831918    0.000000
    66  O3    c     0.941986    0.927381    0.163039    0.000000
    67  O2    c     0.336463    0.557104    0.335181    0.000000
    68  O2    c     0.411489    0.741297    0.667611    0.000000
    69  O2    c     0.240458    0.649919    0.001498    0.000000
    70  O2    c     0.655006    0.410631    0.830067    0.000000
    71  O2    c     0.563070    0.201051    0.166765    0.000000
    72  O2    c     0.757586    0.321065    0.498947    0.000000
    73  O3    c     0.573442    0.330869    0.996051    0.000000
    74  O2    c     0.753070    0.400433    0.665157    0.000000
    75  O2    c     0.653437    0.217316    0.333725    0.000000
    76  O2    c     0.417737    0.640032    0.501461    0.000000
    77  O2    c     0.245762    0.553843    0.167046    0.000000
    78  O2    c     0.335014    0.751291    0.834696    0.000000
    79  O2    c     0.125083    0.202147    0.969693    0.000000
    80  O2    c     0.781092    0.891341    0.310424    0.000000
    81  O2    c     0.079566    0.855152    0.638871    0.000000
    82  O2    c     0.871402    0.766916    0.472792    0.000000
    83  O2    c     0.208454    0.076975    0.805578    0.000000
    84  O2    c     0.904027    0.111403    0.138887    0.000000
    85  O2    c     0.209812    0.104073    0.361569    0.000000
    86  O2    c     0.920916    0.790360    0.025012    0.000000
    87  O2    c     0.866576    0.067994    0.693849    0.000000
    88  O2    c     0.781453    0.864104    0.858945    0.000000
    89  O2    c     0.083812    0.193794    0.527256    0.000000
    90  O3    c     0.127628    0.880333    0.191041    0.000000
    91  O3    c     0.929667    0.855456    0.252037    0.000000
    92  O2    c     0.132694    0.050763    0.583440    0.000000
    93  O2    c     0.926200    0.058148    0.914918    0.000000
    94  O2    c     0.063351    0.122152    0.748938    0.000000
    95  O2    c     0.857636    0.925376    0.081169    0.000000
    96  O2    c     0.068619    0.911612    0.417820    0.000000
    97  O2    c     0.908439    0.202655    0.977175    0.000000
    98  O2    c     0.792559    0.678354    0.312851    0.000000
    99  O2    c     0.294388    0.077529    0.646267    0.000000
   100  O2    c     0.094666    0.775705    0.479985    0.000000
   101  O2    c     0.198691    0.291392    0.810968    0.000000
   102  O2    c     0.702699    0.878019    0.149256    0.000000
   103  O2    c     0.197517    0.878786    0.353292    0.000000
   104  O2    c     0.698321    0.785883    0.018532    0.000000
   105  O2    c     0.089086    0.283338    0.686429    0.000000
   106  O2    c     0.790602    0.087469    0.852888    0.000000
   107  O2    c     0.298387    0.185029    0.520902    0.000000
   108  O1    c     0.882114    0.666007    0.186671    0.000000
   109  O2    c     0.323934    0.618761    0.251589    0.000000
   110  O2    c     0.348694    0.658245    0.584177    0.000000
   111  O2    c     0.319383    0.667257    0.917339    0.000000
   112  O2    c     0.671828    0.338523    0.748233    0.000000
   113  O3    c     0.631890    0.307717    0.085759    0.000000
   114  O2    c     0.673854    0.303435    0.416403    0.000000
   115  O2    c     0.370730    0.320536    0.967781    0.000000
   116  O2    c     0.664023    0.021844    0.306283    0.000000
   117  O2    c     0.948437    0.606752    0.637027    0.000000
   118  O2    c     0.623187    0.650654    0.471533    0.000000
   119  O2    c     0.323934    0.944002    0.804505    0.000000
   120  O2    c     0.037618    0.358890    0.136661    0.000000
   121  O2    c     0.325713    0.352694    0.363915    0.000000
   122  O2    c     0.049338    0.667735    0.033134    0.000000
   123  O2    c     0.617834    0.936623    0.696370    0.000000
   124  O2    c     0.665189    0.616109    0.860069    0.000000
   125  O2    c     0.951659    0.310016    0.528633    0.000000
   126  O2    c     0.370498    0.011189    0.197150    0.000000
   127  O3    c     0.771062    0.291672    0.011530    0.000000
   128  O2    c     0.693024    0.447085    0.343953    0.000000
   129  O2    c     0.525435    0.209407    0.676452    0.000000
   130  O2    c     0.225980    0.677020    0.511219    0.000000
   131  O2    c     0.298244    0.523226    0.843363    0.000000
   132  O2    c     0.473050    0.743771    0.179443    0.000000
   133  O2    c     0.298584    0.746796    0.323298    0.000000
   134  O2    c     0.466040    0.684492    0.989055    0.000000
   135  O2    c     0.221023    0.513969    0.656367    0.000000
   136  O2    c     0.691322    0.217937    0.821822    0.000000
   137  O2    c     0.529572    0.284393    0.489666    0.000000
   138  O3    c     0.746544    0.435700    0.160247    0.000000
   139  O3    c     0.790459    0.540826    0.028588    0.000000
   140  O2    c     0.461064    0.229947    0.361741    0.000000
   141  O2    c     0.741967    0.195071    0.693470    0.000000
   142  O2    c     0.210587    0.445780    0.528299    0.000000
   143  O2    c     0.529758    0.739332    0.861074    0.000000
   144  O2    c     0.252477    0.754267    0.194992    0.000000
   145  O2    c     0.531384    0.762793    0.308036    0.000000
   146  O2    c     0.244931    0.453977    0.970971    0.000000
   147  O2    c     0.207419    0.731280    0.639118    0.000000
   148  O2    c     0.459858    0.203058    0.804546    0.000000
   149  O2    c     0.747020    0.515877    0.472091    0.000000
   150  O2    c     0.779709    0.239110    0.135144    0.000000
   151  O2    c     0.227629    0.313611    0.895665    0.000000
   152  O2    c     0.678313    0.885433    0.234428    0.000000
   153  O2    c     0.085458    0.747878    0.564675    0.000000
   154  O2    c     0.764496    0.656648    0.398202    0.000000
   155  O2    c     0.316657    0.074808    0.731149    0.000000
   156  O2    c     0.909495    0.227814    0.064010    0.000000
   157  O2    c     0.319226    0.212056    0.436168    0.000000
   158  O3    c     0.910854    0.685401    0.101945    0.000000
   159  O2    c     0.761401    0.076329    0.768173    0.000000
   160  O2    c     0.674164    0.757090    0.933713    0.000000
   161  O2    c     0.084396    0.303837    0.601668    0.000000
   162  O2    c     0.223020    0.875316    0.268103    0.000000
   163  O2    c     0.588131    0.548145    0.988518    0.000000
   164  O2    c     0.433194    0.006041    0.323222    0.000000
   165  O2    c     0.962291    0.392799    0.656849    0.000000
   166  O2    c     0.409212    0.422419    0.491852    0.000000
   167  O2    c     0.552606    0.959205    0.824284    0.000000
   168  O3    c     0.037725    0.572466    0.161540    0.000000
   169  O2    c     0.554510    0.565928    0.343475    0.000000
   170  O2    c     0.020106    0.438738    0.012866    0.000000
   171  O2    c     0.404490    0.951285    0.676455    0.000000
   172  O2    c     0.436937    0.403736    0.839949    0.000000
   173  O2    c     0.967759    0.538197    0.508820    0.000000
   174  O2    c     0.590462    0.003536    0.177952    0.000000
   175  O2    c     0.579771    0.140820    0.250657    0.000000
   176  O2    c     0.828336    0.397542    0.582280    0.000000
   177  O2    c     0.579306    0.407135    0.913086    0.000000
   178  O2    c     0.409554    0.818402    0.750864    0.000000
   179  O2    c     0.161914    0.570283    0.085337    0.000000
   180  O2    c     0.413758    0.562581    0.418058    0.000000
   181  F     c     0.451992    0.877590    0.250783    0.000000
   182  F     c     0.089484    0.528410    0.583789    0.000000
   183  F     c     0.447391    0.536494    0.915987    0.000000
   184  F     c     0.541412    0.080129    0.750324    0.000000
   185  F     c     0.892181    0.466717    0.092184    0.000000
   186  F     c     0.544111    0.431824    0.417643    0.000000
   187  O2    s     0.921885    0.995328    0.998152    0.000000
   188  O2    s     0.995697    0.904623    0.335574    0.000000
   189  O2    s     0.067216    0.056004    0.666192    0.000000
   190  O2    s     0.071147    0.979834    0.500701    0.000000
   191  O2    s     0.994776    0.064453    0.831935    0.000000
   192  O3    s     0.933745    0.922638    0.162513    0.000000
   193  O2    s     0.348481    0.564696    0.335057    0.000000
   194  O2    s     0.404200    0.745843    0.667519    0.000000
   195  O2    s     0.235772    0.638485    0.001453    0.000000
   196  O2    s     0.643051    0.402775    0.830215    0.000000
   197  O2    s     0.572049    0.199068    0.166937    0.000000
   198  O2    s     0.761858    0.332920    0.499033    0.000000
   199  O3    s     0.578588    0.342003    0.995804    0.000000
   200  O2    s     0.757453    0.392945    0.665299    0.000000
   201  O2    s     0.641704    0.213128    0.333803    0.000000
   202  O2    s     0.409925    0.628214    0.501434    0.000000
   203  O2    s     0.241025    0.561995    0.167381    0.000000
   204  O2    s     0.346778    0.755140    0.834584    0.000000
   205  O2    s     0.121283    0.205937    0.967164    0.000000
   206  O2    s     0.777733    0.884995    0.307308    0.000000
   207  O2    s     0.086514    0.858518    0.636304    0.000000
   208  O2    s     0.874799    0.763522    0.470209    0.000000
   209  O2    s     0.211733    0.083402    0.802878    0.000000
   210  O2    s     0.898817    0.109147    0.136155    0.000000
   211  O2    s     0.213202    0.100952    0.364202    0.000000
   212  O2    s     0.912992    0.786756    0.027937    0.000000
   213  O2    s     0.869941    0.075042    0.696390    0.000000
   214  O2    s     0.778138    0.867447    0.861608    0.000000
   215  O2    s     0.090450    0.197282    0.529896    0.000000
   216  O3    s     0.127313    0.875613    0.193905    0.000000
   217  O3    s     0.926348    0.850151    0.253118    0.000000
   218  O2    s     0.135480    0.051900    0.583463    0.000000
   219  O2    s     0.925282    0.060037    0.914919    0.000000
   220  O2    s     0.064683    0.125236    0.749011    0.000000
   221  O2    s     0.856101    0.923067    0.081167    0.000000
   222  O2    s     0.069277    0.909800    0.417786    0.000000
   223  O2    s     0.914496    0.202782    0.980103    0.000000
   224  O2    s     0.790987    0.684118    0.315657    0.000000
   225  O2    s     0.288247    0.070196    0.648895    0.000000
   226  O2    s     0.087100    0.774326    0.482642    0.000000
   227  O2    s     0.200156    0.285285    0.813671    0.000000
   228  O2    s     0.708274    0.886522    0.151602    0.000000
   229  O2    s     0.199082    0.886324    0.350766    0.000000
   230  O2    s     0.704231    0.784913    0.015853    0.000000
   231  O2    s     0.081697    0.277001    0.683810    0.000000
   232  O2    s     0.789321    0.079756    0.850221    0.000000
   233  O2    s     0.292062    0.186236    0.518268    0.000000
   234  O1    s     0.890292    0.674015    0.184961    0.000000
   235  O2    s     0.329715    0.630699    0.251530    0.000000
   236  O2    s     0.336986    0.652383    0.584155    0.000000
   237  O2    s     0.325195    0.661381    0.917250    0.000000
   238  O2    s     0.665804    0.326749    0.748301    0.000000
   239  O3    s     0.641942    0.312376    0.086219    0.000000
   240  O2    s     0.667925    0.309334    0.416479    0.000000
   241  O2    s     0.373699    0.330469    0.965493    0.000000
   242  O2    s     0.654183    0.014963    0.303971    0.000000
   243  O2    s     0.955289    0.603480    0.634750    0.000000
   244  O2    s     0.619844    0.640580    0.469262    0.000000
   245  O2    s     0.333941    0.950582    0.802212    0.000000
   246  O2    s     0.031738    0.361798    0.134783    0.000000
   247  O2    s     0.335808    0.355965    0.366116    0.000000
   248  O2    s     0.043196    0.658294    0.034839    0.000000
   249  O2    s     0.614687    0.943582    0.698544    0.000000
   250  O2    s     0.655267    0.612854    0.862359    0.000000
   251  O2    s     0.958353    0.320050    0.530883    0.000000
   252  O2    s     0.374178    0.004760    0.199266    0.000000
   253  O3    s     0.779383    0.298357    0.013890    0.000000
   254  O2    s     0.685444    0.446547    0.347064    0.000000
   255  O2    s     0.526075    0.202569    0.679575    0.000000
   256  O2    s     0.218817    0.669375    0.514282    0.000000
   257  O2    s     0.305901    0.523715    0.846390    0.000000
   258  O2    s     0.472009    0.750941    0.182581    0.000000
   259  O2    s     0.306192    0.753581    0.320200    0.000000
   260  O2    s     0.465277    0.677110    0.985852    0.000000
   261  O2    s     0.214063    0.514515    0.653196    0.000000
   262  O2    s     0.683647    0.210645    0.818662    0.000000
   263  O2    s     0.530081    0.291971    0.486544    0.000000
   264  O3    s     0.750657    0.431004    0.156445    0.000000
   265  O3    s     0.795209    0.539169    0.030991    0.000000
   266  O2    s     0.463754    0.237890    0.364373    0.000000
   267  O2    s     0.734196    0.190142    0.696121    0.000000
   268  O2    s     0.205332    0.448438    0.530878    0.000000
   269  O2    s     0.527125    0.731481    0.863590    0.000000
   270  O2    s     0.260029    0.759314    0.197589    0.000000
   271  O2    s     0.528529    0.767779    0.305363    0.000000
   272  O2    s     0.253381    0.457017    0.968380    0.000000
   273  O2    s     0.202247    0.723241    0.636479    0.000000
   274  O2    s     0.462476    0.197594    0.801915    0.000000
   275  O2    s     0.738997    0.513042    0.469477    0.000000
   276  O2    s     0.784290    0.244916    0.133369    0.000000
   277  O2    s     0.237216    0.323299    0.896571    0.000000
   278  O2    s     0.668455    0.885192    0.235146    0.000000
   279  O2    s     0.085718    0.738536    0.565594    0.000000
   280  O2    s     0.755210    0.647161    0.399095    0.000000
   281  O2    s     0.326295    0.075107    0.732055    0.000000
   282  O2    s     0.908421    0.235572    0.064817    0.000000
   283  O2    s     0.328908    0.221453    0.435274    0.000000
   284  O3    s     0.910566    0.675962    0.099211    0.000000
   285  O2    s     0.751931    0.076467    0.767293    0.000000
   286  O2    s     0.664575    0.747774    0.932812    0.000000
   287  O2    s     0.084697    0.313527    0.600794    0.000000
   288  O2    s     0.232829    0.875891    0.267440    0.000000
   289  O2    s     0.583242    0.548694    0.985216    0.000000
   290  O2    s     0.433453    0.001030    0.320073    0.000000
   291  O2    s     0.967444    0.397533    0.653447    0.000000
   292  O2    s     0.413851    0.422080    0.488433    0.000000
   293  O2    s     0.552811    0.963980    0.820858    0.000000
   294  O3    s     0.035319    0.566191    0.157671    0.000000
   295  O2    s     0.554909    0.561564    0.346797    0.000000
   296  O2    s     0.017594    0.437985    0.015650    0.000000
   297  O2    s     0.409143    0.956352    0.679773    0.000000
   298  O2    s     0.436641    0.408140    0.843333    0.000000
   299  O2    s     0.972445    0.538513    0.512212    0.000000
   300  O2    s     0.585185    0.998230    0.181319    0.000000
   301  O2    s     0.573839    0.129459    0.250759    0.000000
   302  O2    s     0.839366    0.403052    0.582339    0.000000
   303  O2    s     0.573821    0.412560    0.913126    0.000000
   304  O2    s     0.415066    0.829368    0.750834    0.000000
   305  O2    s     0.152760    0.565860    0.085082    0.000000
   306  O2    s     0.419281    0.557073    0.418047    0.000000
   307  F     s     0.452046    0.877127    0.250705    0.000000
   308  F     s     0.089839    0.528599    0.583864    0.000000
   309  F     s     0.447026    0.536549    0.916095    0.000000
   310  F     s     0.541648    0.080567    0.750415    0.000000
   311  F     s     0.891073    0.472630    0.094903    0.000000
   312  F     s     0.544271    0.431545    0.417697    0.000000
--------------------------------------------------------------------------------

  Final Cartesian lattice vectors (Angstroms) :

       11.979357    0.004035    0.011577
       -6.003989   10.372122   -0.009224
        0.199211   -0.244066   29.436983


  Final cell parameters and derivatives :

--------------------------------------------------------------------------------
       a           11.979363 Angstrom     dE/de1(xx)    -0.000142 eV/strain
       b           11.984527 Angstrom     dE/de2(yy)    -0.000115 eV/strain
       c           29.438669 Angstrom     dE/de3(zz)    -0.000092 eV/strain
       alpha       90.649458 Degrees      dE/de4(yz)    -0.000072 eV/strain
       beta        89.557066 Degrees      dE/de5(xz)    -0.000007 eV/strain
       gamma      120.045486 Degrees      dE/de6(xy)    -0.000017 eV/strain
--------------------------------------------------------------------------------

  Primitive cell volume =          3658.264160 Angs**3

  Density of cell =      1.748942 g/cm**3

  Non-primitive cell volume =          3658.264160 Angs**3


  Final internal derivatives :

--------------------------------------------------------------------------------
   No.  Atomic          a             b             c           Radius
        Label          (eV)          (eV)          (eV)        (eV/Angs)
--------------------------------------------------------------------------------
      1 Ge    c       0.000000      0.000000      0.000000      0.000000
      2 Si    c       0.000017     -0.000016      0.000002      0.000000
      3 Si    c       0.000014     -0.000016     -0.000068      0.000000
      4 Si    c       0.000004      0.000000     -0.000001      0.000000
      5 Si    c      -0.000016      0.000011     -0.000027      0.000000
      6 Si    c      -0.000011      0.000053     -0.000178      0.000000
      7 Si    c      -0.000010     -0.000019      0.000032      0.000000
      8 Si    c       0.000017     -0.000019      0.000012      0.000000
      9 Si    c      -0.000003     -0.000000      0.000019      0.000000
     10 Si    c       0.000003     -0.000011      0.000087      0.000000
     11 Si    c       0.000000     -0.000001     -0.000002      0.000000
     12 Si    c      -0.000065      0.000068      0.000018      0.000000
     13 Si    c      -0.000018      0.000000      0.000015      0.000000
     14 Si    c       0.000003      0.000000     -0.000034      0.000000
     15 Si    c       0.000003     -0.000001      0.000010      0.000000
     16 Si    c      -0.000001      0.000000     -0.000007      0.000000
     17 Si    c      -0.000007      0.000003      0.000049      0.000000
     18 Si    c       0.000036      0.000010      0.000109      0.000000
     19 Si    c       0.000003     -0.000002      0.000029      0.000000
     20 Si    c       0.000071     -0.000023      0.000032      0.000000
     21 Si    c      -0.000002      0.000007     -0.000036      0.000000
     22 Si    c      -0.000020      0.000033      0.000026      0.000000
     23 Si    c       0.000003     -0.000000     -0.000010      0.000000
     24 Si    c       0.000020     -0.000037     -0.000148      0.000000
     25 Si    c      -0.000003      0.000018     -0.000057      0.000000
     26 Si    c      -0.000070      0.000015      0.000003      0.000000
     27 Si    c       0.000011     -0.000011      0.000007      0.000000
     28 Si    c      -0.000006     -0.000006      0.000041      0.000000
     29 Si    c       0.000024     -0.000013      0.000003      0.000000
     30 Si    c       0.000156     -0.000181     -0.000100      0.000000
     31 Si    c       0.000005     -0.000001     -0.000022      0.000000
     32 Ge    c      -0.000043     -0.000088      0.000085      0.000000
     33 Si    c      -0.000032      0.000025      0.000003      0.000000
     34 Si    c      -0.000012     -0.000004      0.000040      0.000000
     35 Si    c      -0.000006      0.000011      0.000022      0.000000
     36 Si    c       0.000007     -0.000001      0.000004      0.000000
     37 Si    c       0.000005      0.000003      0.000053      0.000000
     38 Si    c       0.000002      0.000011      0.000045      0.000000
     39 Si    c       0.000006     -0.000004      0.000021      0.000000
     40 Si    c      -0.000007     -0.000003     -0.000019      0.000000
     41 Si    c       0.000021     -0.000010      0.000029      0.000000
     42 Si    c      -0.000034     -0.000037      0.000095      0.000000
     43 Si    c       0.000002      0.000006      0.000021      0.000000
     44 Si    c      -0.000128      0.000107     -0.000144      0.000000
     45 Si    c      -0.000015      0.000010     -0.000026      0.000000
     46 Si    c      -0.000004     -0.000008     -0.000027      0.000000
     47 Si    c      -0.000002      0.000006     -0.000011      0.000000
     48 Si    c       0.000027     -0.000024     -0.000051      0.000000
     49 Si    c       0.000011      0.000032      0.000054      0.000000
     50 Si    c       0.000013      0.000022      0.000010      0.000000
     51 Si    c      -0.000001     -0.000000     -0.000033      0.000000
     52 Si    c       0.000001      0.000009     -0.000005      0.000000
     53 Si    c       0.000003      0.000006      0.000036      0.000000
     54 Si    c      -0.000001      0.000018      0.000032      0.000000
     55 Si    c      -0.000031     -0.000001      0.000016      0.000000
     56 Si    c       0.000056     -0.000040     -0.000123      0.000000
     57 Si    c      -0.000024      0.000020     -0.000052      0.000000
     58 Si    c       0.000002      0.000002     -0.000038      0.000000
     59 Si    c      -0.000004      0.000005      0.000024      0.000000
     60 Ge    c       0.000064     -0.000060      0.000051      0.000000
     61 O2    c      -0.000012     -0.000050      0.000143      0.000000
     62 O2    c       0.000010     -0.000012      0.000000      0.000000
     63 O2    c       0.000014     -0.000019     -0.000023      0.000000
     64 O2    c       0.000000     -0.000012     -0.000018      0.000000
     65 O2    c      -0.000003     -0.000002      0.000001      0.000000
     66 O3    c      -0.000059      0.000063     -0.000104      0.000000
     67 O2    c      -0.000004      0.000014     -0.000031      0.000000
     68 O2    c      -0.000006     -0.000006     -0.000025      0.000000
     69 O2    c       0.000003     -0.000006     -0.000001      0.000000
     70 O2    c       0.000029     -0.000034     -0.000054      0.000000
     71 O2    c      -0.000003     -0.000017      0.000068      0.000000
     72 O2    c      -0.000003      0.000006      0.000007      0.000000
     73 O3    c       0.000161     -0.000071      0.000249      0.000000
     74 O2    c      -0.000001     -0.000013      0.000031      0.000000
     75 O2    c      -0.000016      0.000023      0.000043      0.000000
     76 O2    c      -0.000008     -0.000000      0.000015      0.000000
     77 O2    c       0.000010      0.000019      0.000007      0.000000
     78 O2    c       0.000003      0.000011     -0.000033      0.000000
     79 O2    c      -0.000012      0.000000     -0.000013      0.000000
     80 O2    c       0.000007     -0.000007     -0.000005      0.000000
     81 O2    c      -0.000000      0.000003     -0.000008      0.000000
     82 O2    c      -0.000006     -0.000001      0.000001      0.000000
     83 O2    c      -0.000007      0.000003     -0.000002      0.000000
     84 O2    c      -0.000018      0.000009     -0.000030      0.000000
     85 O2    c      -0.000001      0.000004     -0.000003      0.000000
     86 O2    c      -0.000056      0.000052      0.000048      0.000000
     87 O2    c       0.000006     -0.000002      0.000004      0.000000
     88 O2    c       0.000001     -0.000005     -0.000011      0.000000
     89 O2    c       0.000007     -0.000005      0.000013      0.000000
     90 O3    c      -0.000163      0.000057      0.000045      0.000000
     91 O3    c       0.000028     -0.000001     -0.000175      0.000000
     92 O2    c      -0.000001     -0.000001      0.000006      0.000000
     93 O2    c      -0.000001     -0.000002      0.000002      0.000000
     94 O2    c       0.000010     -0.000006      0.000043      0.000000
     95 O2    c      -0.000003      0.000009      0.000117      0.000000
     96 O2    c       0.000013      0.000009     -0.000120      0.000000
     97 O2    c      -0.000022      0.000024      0.000024      0.000000
     98 O2    c      -0.000005     -0.000002      0.000005      0.000000
     99 O2    c      -0.000011      0.000004     -0.000017      0.000000
    100 O2    c       0.000000      0.000001     -0.000005      0.000000
    101 O2    c      -0.000003     -0.000003     -0.000019      0.000000
    102 O2    c       0.000088     -0.000011     -0.000135      0.000000
    103 O2    c      -0.000014      0.000018     -0.000000      0.000000
    104 O2    c       0.000028      0.000001      0.000026      0.000000
    105 O2    c      -0.000001     -0.000006      0.000007      0.000000
    106 O2    c      -0.000000      0.000006      0.000015      0.000000
    107 O2    c      -0.000005      0.000000      0.000002      0.000000
    108 O1    c       0.000093      0.000032     -0.000234      0.000000
    109 O2    c       0.000011     -0.000011      0.000101      0.000000
    110 O2    c      -0.000001      0.000000     -0.000017      0.000000
    111 O2    c       0.000001      0.000005      0.000008      0.000000
    112 O2    c       0.000003      0.000015     -0.000037      0.000000
    113 O3    c       0.000058     -0.000157      0.001414      0.000000
    114 O2    c      -0.000010      0.000008     -0.000015      0.000000
    115 O2    c      -0.000006      0.000005     -0.000002      0.000000
    116 O2    c       0.000015     -0.000023     -0.000009      0.000000
    117 O2    c       0.000003     -0.000000     -0.000001      0.000000
    118 O2    c       0.000005     -0.000003     -0.000005      0.000000
    119 O2    c       0.000001      0.000003     -0.000012      0.000000
    120 O2    c      -0.000001     -0.000018      0.000044      0.000000
    121 O2    c       0.000002     -0.000003      0.000007      0.000000
    122 O2    c       0.000119     -0.000025     -0.000073      0.000000
    123 O2    c       0.000003      0.000004      0.000006      0.000000
    124 O2    c      -0.000006      0.000007      0.000003      0.000000
    125 O2    c       0.000004      0.000001      0.000012      0.000000
    126 O2    c      -0.000023      0.000004     -0.000007      0.000000
    127 O3    c      -0.000421      0.000112     -0.000168      0.000000
    128 O2    c      -0.000003      0.000005     -0.000000      0.000000
    129 O2    c      -0.000005     -0.000007      0.000006      0.000000
    130 O2    c      -0.000010      0.000004      0.000006      0.000000
    131 O2    c       0.000006     -0.000015     -0.000004      0.000000
    132 O2    c      -0.000034      0.000004      0.000029      0.000000
    133 O2    c      -0.000011      0.000022     -0.000015      0.000000
    134 O2    c       0.000006     -0.000000     -0.000021      0.000000
    135 O2    c      -0.000005      0.000002     -0.000002      0.000000
    136 O2    c       0.000003     -0.000012     -0.000007      0.000000
    137 O2    c      -0.000011      0.000006      0.000002      0.000000
    138 O3    c       0.000019     -0.000231     -0.000310      0.000000
    139 O3    c      -0.000057     -0.000064      0.000087      0.000000
    140 O2    c      -0.000007      0.000005      0.000008      0.000000
    141 O2    c      -0.000000     -0.000006      0.000021      0.000000
    142 O2    c      -0.000006     -0.000002      0.000011      0.000000
    143 O2    c       0.000015     -0.000000     -0.000010      0.000000
    144 O2    c       0.000046     -0.000011      0.000082      0.000000
    145 O2    c       0.000017      0.000001     -0.000010      0.000000
    146 O2    c       0.000008     -0.000006     -0.000033      0.000000
    147 O2    c      -0.000006      0.000001     -0.000014      0.000000
    148 O2    c      -0.000000     -0.000003     -0.000004      0.000000
    149 O2    c      -0.000005      0.000006     -0.000001      0.000000
    150 O2    c       0.000107     -0.000072     -0.000116      0.000000
    151 O2    c      -0.000006     -0.000015      0.000019      0.000000
    152 O2    c      -0.000002     -0.000007     -0.000037      0.000000
    153 O2    c      -0.000001      0.000004     -0.000018      0.000000
    154 O2    c      -0.000005     -0.000002      0.000011      0.000000
    155 O2    c      -0.000003      0.000004     -0.000028      0.000000
    156 O2    c      -0.000007     -0.000010      0.000000      0.000000
    157 O2    c       0.000002      0.000004     -0.000000      0.000000
    158 O3    c      -0.000110      0.000144      0.000261      0.000000
    159 O2    c       0.000005     -0.000003     -0.000003      0.000000
    160 O2    c       0.000003      0.000011     -0.000008      0.000000
    161 O2    c       0.000002     -0.000003     -0.000012      0.000000
    162 O2    c       0.000005      0.000002      0.000032      0.000000
    163 O2    c      -0.000022      0.000006     -0.000105      0.000000
    164 O2    c      -0.000019     -0.000003     -0.000002      0.000000
    165 O2    c       0.000008     -0.000003     -0.000003      0.000000
    166 O2    c       0.000001     -0.000003     -0.000003      0.000000
    167 O2    c       0.000009      0.000007     -0.000001      0.000000
    168 O3    c       0.000016     -0.000001      0.000011      0.000000
    169 O2    c      -0.000001      0.000001      0.000002      0.000000
    170 O2    c       0.000033      0.000081     -0.000036      0.000000
    171 O2    c       0.000000      0.000005      0.000013      0.000000
    172 O2    c      -0.000007      0.000001      0.000009      0.000000
    173 O2    c       0.000002     -0.000003      0.000016      0.000000
    174 O2    c      -0.000006      0.000008      0.000007      0.000000
    175 O2    c       0.000020      0.000004      0.000210      0.000000
    176 O2    c       0.000000     -0.000000      0.000007      0.000000
    177 O2    c       0.000008     -0.000010     -0.000031      0.000000
    178 O2    c      -0.000001     -0.000010      0.000003      0.000000
    179 O2    c       0.000000      0.000023     -0.000190      0.000000
    180 O2    c       0.000005     -0.000006     -0.000008      0.000000
    181 F     c      -0.000009      0.000033     -0.000050      0.000000
    182 F     c       0.000002      0.000000      0.000006      0.000000
    183 F     c      -0.000004      0.000006     -0.000005      0.000000
    184 F     c      -0.000002      0.000004      0.000010      0.000000
    185 F     c      -0.000004      0.000016      0.000089      0.000000
    186 F     c       0.000001     -0.000000      0.000002      0.000000
    187 O2    s      -0.000003     -0.000017     -0.000048      0.000000
    188 O2    s      -0.000002     -0.000009      0.000023      0.000000
    189 O2    s      -0.000002      0.000000     -0.000013      0.000000
    190 O2    s      -0.000000      0.000005      0.000011      0.000000
    191 O2    s       0.000005     -0.000001      0.000006      0.000000
    192 O3    s       0.000007     -0.000041      0.000060      0.000000
    193 O2    s      -0.000002      0.000008     -0.000001      0.000000
    194 O2    s       0.000000      0.000002      0.000001      0.000000
    195 O2    s      -0.000025     -0.000014      0.000015      0.000000
    196 O2    s      -0.000018      0.000018      0.000002      0.000000
    197 O2    s       0.000037      0.000054     -0.000128      0.000000
    198 O2    s       0.000000      0.000001     -0.000007      0.000000
    199 O3    s      -0.000083      0.000045     -0.000089      0.000000
    200 O2    s       0.000001      0.000001     -0.000009      0.000000
    201 O2    s      -0.000007     -0.000001     -0.000005      0.000000
    202 O2    s      -0.000001     -0.000002     -0.000011      0.000000
    203 O2    s      -0.000009     -0.000003      0.000113      0.000000
    204 O2    s       0.000004     -0.000004      0.000006      0.000000
    205 O2    s       0.000018      0.000003      0.000010      0.000000
    206 O2    s       0.000002      0.000001     -0.000044      0.000000
    207 O2    s       0.000003      0.000005     -0.000005      0.000000
    208 O2    s       0.000002     -0.000002     -0.000014      0.000000
    209 O2    s       0.000004      0.000001      0.000003      0.000000
    210 O2    s       0.000002     -0.000044     -0.000103      0.000000
    211 O2    s       0.000000     -0.000010      0.000016      0.000000
    212 O2    s      -0.000035      0.000025     -0.000024      0.000000
    213 O2    s      -0.000004      0.000001     -0.000004      0.000000
    214 O2    s       0.000001     -0.000006      0.000036      0.000000
    215 O2    s       0.000002      0.000001     -0.000001      0.000000
    216 O3    s       0.000027     -0.000060      0.000062      0.000000
    217 O3    s       0.000006     -0.000062      0.000032      0.000000
    218 O2    s       0.000002     -0.000000      0.000007      0.000000
    219 O2    s       0.000005     -0.000010     -0.000019      0.000000
    220 O2    s      -0.000005      0.000007     -0.000015      0.000000
    221 O2    s      -0.000021      0.000009      0.000013      0.000000
    222 O2    s       0.000001     -0.000007     -0.000011      0.000000
    223 O2    s       0.000032     -0.000047     -0.000060      0.000000
    224 O2    s       0.000017      0.000008     -0.000039      0.000000
    225 O2    s       0.000000     -0.000005     -0.000003      0.000000
    226 O2    s      -0.000001      0.000002      0.000009      0.000000
    227 O2    s       0.000006     -0.000003      0.000008      0.000000
    228 O2    s       0.000016      0.000027      0.000026      0.000000
    229 O2    s      -0.000015      0.000001     -0.000008      0.000000
    230 O2    s       0.000019      0.000010     -0.000013      0.000000
    231 O2    s       0.000002      0.000001     -0.000012      0.000000
    232 O2    s      -0.000004      0.000001     -0.000017      0.000000
    233 O2    s      -0.000003      0.000002     -0.000006      0.000000
    234 O1    s      -0.000012      0.000050      0.000210      0.000000
    235 O2    s      -0.000011     -0.000012      0.000004      0.000000
    236 O2    s      -0.000000     -0.000001      0.000006      0.000000
    237 O2    s      -0.000004     -0.000007     -0.000028      0.000000
    238 O2    s      -0.000002     -0.000016      0.000025      0.000000
    239 O3    s       0.000019      0.000137     -0.000536      0.000000
    240 O2    s      -0.000008      0.000007     -0.000013      0.000000
    241 O2    s      -0.000010      0.000002     -0.000020      0.000000
    242 O2    s      -0.000010     -0.000014     -0.000031      0.000000
    243 O2    s       0.000004     -0.000001     -0.000017      0.000000
    244 O2    s       0.000000     -0.000002     -0.000011      0.000000
    245 O2    s       0.000002     -0.000002     -0.000004      0.000000
    246 O2    s      -0.000059      0.000027     -0.000074      0.000000
    247 O2    s       0.000005     -0.000000      0.000005      0.000000
    248 O2    s      -0.000038     -0.000020      0.000048      0.000000
    249 O2    s      -0.000003      0.000002      0.000004      0.000000
    250 O2    s      -0.000001      0.000002      0.000023      0.000000
    251 O2    s       0.000001      0.000001     -0.000003      0.000000
    252 O2    s       0.000028     -0.000001      0.000028      0.000000
    253 O3    s       0.000206      0.000000      0.000187      0.000000
    254 O2    s      -0.000000     -0.000002      0.000020      0.000000
    255 O2    s       0.000004      0.000003      0.000019      0.000000
    256 O2    s       0.000003     -0.000002      0.000007      0.000000
    257 O2    s       0.000006     -0.000005      0.000036      0.000000
    258 O2    s       0.000017     -0.000027      0.000005      0.000000
    259 O2    s       0.000019      0.000001     -0.000069      0.000000
    260 O2    s       0.000002     -0.000006      0.000027      0.000000
    261 O2    s       0.000004     -0.000002     -0.000022      0.000000
    262 O2    s      -0.000009      0.000012     -0.000038      0.000000
    263 O2    s       0.000001      0.000001     -0.000021      0.000000
    264 O3    s       0.000009      0.000011     -0.000065      0.000000
    265 O3    s       0.000075     -0.000120     -0.000194      0.000000
    266 O2    s       0.000013     -0.000003      0.000005      0.000000
    267 O2    s      -0.000003      0.000009     -0.000006      0.000000
    268 O2    s       0.000002      0.000002     -0.000000      0.000000
    269 O2    s       0.000000     -0.000015      0.000027      0.000000
    270 O2    s      -0.000053     -0.000010     -0.000083      0.000000
    271 O2    s      -0.000035      0.000042     -0.000040      0.000000
    272 O2    s      -0.000009      0.000006      0.000035      0.000000
    273 O2    s       0.000002      0.000003      0.000000      0.000000
    274 O2    s       0.000006      0.000004     -0.000017      0.000000
    275 O2    s       0.000000      0.000001     -0.000017      0.000000
    276 O2    s      -0.000064      0.000126     -0.000077      0.000000
    277 O2    s       0.000010      0.000023     -0.000028      0.000000
    278 O2    s       0.000009      0.000020      0.000114      0.000000
    279 O2    s       0.000004     -0.000007      0.000016      0.000000
    280 O2    s       0.000005     -0.000003      0.000000      0.000000
    281 O2    s       0.000006     -0.000006      0.000013      0.000000
    282 O2    s       0.000031     -0.000008      0.000344      0.000000
    283 O2    s       0.000001     -0.000002     -0.000006      0.000000
    284 O3    s       0.000095     -0.000111     -0.000150      0.000000
    285 O2    s      -0.000003     -0.000000      0.000001      0.000000
    286 O2    s       0.000003     -0.000011     -0.000038      0.000000
    287 O2    s      -0.000003      0.000007      0.000004      0.000000
    288 O2    s       0.000002     -0.000012      0.000030      0.000000
    289 O2    s       0.000048     -0.000032      0.000173      0.000000
    290 O2    s       0.000012     -0.000023      0.000024      0.000000
    291 O2    s       0.000002     -0.000002     -0.000017      0.000000
    292 O2    s      -0.000000     -0.000002     -0.000012      0.000000
    293 O2    s      -0.000003     -0.000008     -0.000012      0.000000
    294 O3    s      -0.000018      0.000037      0.000109      0.000000
    295 O2    s       0.000001     -0.000002      0.000014      0.000000
    296 O2    s      -0.000038      0.000068     -0.000012      0.000000
    297 O2    s      -0.000009      0.000008     -0.000007      0.000000
    298 O2    s      -0.000005      0.000010      0.000031      0.000000
    299 O2    s      -0.000001      0.000004     -0.000006      0.000000
    300 O2    s      -0.000014      0.000017      0.000065      0.000000
    301 O2    s      -0.000008      0.000011     -0.000128      0.000000
    302 O2    s       0.000003      0.000001     -0.000007      0.000000
    303 O2    s      -0.000005      0.000008     -0.000011      0.000000
    304 O2    s      -0.000000      0.000010      0.000023      0.000000
    305 O2    s      -0.000032     -0.000021     -0.000083      0.000000
    306 O2    s      -0.000000      0.000001     -0.000002      0.000000
    307 F     s       0.000026     -0.000055      0.000083      0.000000
    308 F     s      -0.000004      0.000001     -0.000010      0.000000
    309 F     s       0.000004     -0.000012     -0.000014      0.000000
    310 F     s       0.000001     -0.000004     -0.000018      0.000000
    311 F     s      -0.000016     -0.000008      0.000044      0.000000
    312 F     s      -0.000002     -0.000002     -0.000007      0.000000
--------------------------------------------------------------------------------
  Maximum abs         0.000421      0.000231      0.001414      0.000000
--------------------------------------------------------------------------------


  Time to end of optimisation =       9.2387 seconds


  Peak dynamic memory used =      19.13 MB 


  Timing analysis for GULP :

--------------------------------------------------------------------------------
  Task / Subroutine                                          Time (Seconds)
--------------------------------------------------------------------------------
  Calculation of reciprocal space energy and derivatives          0.3292
  Calculation of real space energy and derivatives                7.4523
  Calculation of three-body energy and derivatives                0.8475
  Calculation of matrix inversion                                 0.2637
--------------------------------------------------------------------------------
  Total CPU time                                                  9.2387
--------------------------------------------------------------------------------


  Dump file written as out.res                                                 
  CIF file written as out.cif                                                 


  Job Finished at 10:01.59  1st December   2016                               

