********************************************************************************
*                       GENERAL UTILITY LATTICE PROGRAM                        *
*                                 Julian Gale                                  *
*                      Nanochemistry Research Institute                        *
*                           Department of Chemistry                            *
*                    Curtin University, Western Australia                      *
********************************************************************************
* Version = 4.2.0 * Last modified =  20th January 2014                         *
********************************************************************************
*  optimise     - perform optimisation run                                     *
*  conp         - constant pressure calculation                                *
*  qok          - running with non charge neutral cell is OK                   *
********************************************************************************

  Job Started  at 19:08.54 30th November   2016                               

  Number of CPUs =     1


  Total number of configurations input =   1

********************************************************************************
*  Input for Configuration =   1                                               *
********************************************************************************

  Formula = Ge3Si57O120F6                                               

  Number of irreducible atoms/shells =     312


  Total number atoms/shells =     312

  Dimensionality = 3               :  Bulk   


  Charge on solid   =  -6.000000 =>neutralising background added


  Cartesian lattice vectors (Angstroms) :

       11.937600    0.000000    0.000000
       -6.088847   10.377500    0.000000
       -0.259576   -0.352491   29.525632

  Cell parameters (Angstroms/Degrees):

  a =      11.9376    alpha =  90.3350
  b =      12.0319    beta  =  90.5037
  c =      29.5289    gamma = 120.4017

  Initial cell volume =        3657.707526 Angs**3

  Temperature of configuration =  0.000     K 

  Pressure of configuration =         0.000 GPa 

  Fractional coordinates of asymmetric unit :

--------------------------------------------------------------------------------
   No.  Atomic       x           y          z         Charge      Occupancy
        Label      (Frac)      (Frac)     (Frac)        (e)         (Frac)  
--------------------------------------------------------------------------------
      1 Ge    c    0.699600    0.375700    0.033890     4.00000    1.000000    
      2 Si    c    0.625272 *  0.320009 *  0.363260 *   4.00000    1.000000    
      3 Si    c    0.677469 *  0.297144 *  0.698168 *   4.00000    1.000000    
      4 Si    c    0.295750 *  0.620352 *  0.531015 *   4.00000    1.000000    
      5 Si    c    0.375165 *  0.675200 *  0.862237 *   4.00000    1.000000    
      6 Si    c    0.319394 *  0.704221 *  0.196821 *   4.00000    1.000000    
      7 Si    c    0.377427 *  0.706302 *  0.296865 *   4.00000    1.000000    
      8 Si    c    0.322366 *  0.625821 *  0.962495 *   4.00000    1.000000    
      9 Si    c    0.297636 *  0.675904 *  0.631429 *   4.00000    1.000000    
     10 Si    c    0.623197 *  0.297352 *  0.798516 *   4.00000    1.000000    
     11 Si    c    0.674772 *  0.376739 *  0.465891 *   4.00000    1.000000    
     12 Si    c    0.689158 *  0.317362 *  0.131977 *   4.00000    1.000000    
     13 Si    c    0.534821 *  0.421388 *  0.965148 *   4.00000    1.000000    
     14 Si    c    0.590713 *  0.112128 *  0.300761 *   4.00000    1.000000    
     15 Si    c    0.885934 *  0.468529 *  0.632779 *   4.00000    1.000000    
     16 Si    c    0.465150 *  0.581915 *  0.465239 *   4.00000    1.000000    
     17 Si    c    0.415320 *  0.885689 *  0.798101 *   4.00000    1.000000    
     18 Si    c    0.109607 *  0.531757 *  0.128815 *   4.00000    1.000000    
     19 Si    c    0.409765 *  0.530462 *  0.361461 *   4.00000    1.000000    
     20 Si    c    0.107560 *  0.583957 *  0.026080 *   4.00000    1.000000    
     21 Si    c    0.468756 *  0.887483 *  0.696827 *   4.00000    1.000000    
     22 Si    c    0.582183 *  0.468559 *  0.863171 *   4.00000    1.000000    
     23 Si    c    0.888014 *  0.418522 *  0.531328 *   4.00000    1.000000    
     24 Si    c    0.531746 *  0.112351 *  0.199981 *   4.00000    1.000000    
     25 Si    c    0.299073 *  0.398077 *  0.848956 *   4.00000    1.000000    
     26 Si    c    0.600088 *  0.903966 *  0.183398 *   4.00000    1.000000    
     27 Si    c    0.095325 *  0.698910 *  0.516636 *   4.00000    1.000000    
     28 Si    c    0.696166 *  0.599825 *  0.348266 *   4.00000    1.000000    
     29 Si    c    0.397198 *  0.094784 *  0.682678 *   4.00000    1.000000    
     30 Si    c    0.890795 *  0.297178 *  0.009993 *   4.00000    1.000000    
     31 Si    c    0.392462 *  0.297891 *  0.482396 *   4.00000    1.000000    
     32 Si    c    0.895455 *  0.602911 *  0.142745 *   4.00000    1.000000    
     33 Si    c    0.699064 *  0.096331 *  0.813164 *   4.00000    1.000000    
     34 Si    c    0.602018 *  0.702105 *  0.976953 *   4.00000    1.000000    
     35 Si    c    0.096599 *  0.397629 *  0.646157 *   4.00000    1.000000    
     36 Si    c    0.304900 *  0.908227 *  0.314404 *   4.00000    1.000000    
     37 Si    c    0.254965 *  0.347579 *  0.949090 *   4.00000    1.000000    
     38 Si    c    0.662610 *  0.909116 *  0.283461 *   4.00000    1.000000    
     39 Si    c    0.087756 *  0.747789 *  0.617375 *   4.00000    1.000000    
     40 Si    c    0.747787 *  0.661494 *  0.450334 *   4.00000    1.000000    
     41 Si    c    0.339625 *  0.087203 *  0.782920 *   4.00000    1.000000    
     42 Si    c    0.904319 *  0.248538 *  0.112175 *   4.00000    1.000000    
     43 Ge    c    0.357110 *  0.267541 *  0.382436 *   4.00000    1.000000    
     44 Si    c    0.900871 *  0.659611 *  0.040569 *   4.00000    1.000000    
     45 Si    c    0.749145 *  0.089657 *  0.712755 *   4.00000    1.000000    
     46 Si    c    0.657096 *  0.746938 *  0.876358 *   4.00000    1.000000    
     47 Si    c    0.087651 *  0.339099 *  0.545493 *   4.00000    1.000000    
     48 Si    c    0.250306 *  0.913112 *  0.213674 *   4.00000    1.000000    
     49 Ge    c    0.974329 *  0.122316 *  0.963206 *   4.00000    1.000000    
     50 Si    c    0.881018 *  0.847319 *  0.298724 *   4.00000    1.000000    
     51 Si    c    0.147272 *  0.026104 *  0.631884 *   4.00000    1.000000    
     52 Si    c    0.031634 *  0.880051 *  0.464903 *   4.00000    1.000000    
     53 Si    c    0.121875 *  0.149031 *  0.796962 *   4.00000    1.000000    
     54 Si    c    0.846570 *  0.971368 *  0.131955 *   4.00000    1.000000    
     55 Si    c    0.128184 *  0.979733 *  0.364977 *   4.00000    1.000000    
     56 Si    c    0.849062 *  0.880702 *  0.030976 *   4.00000    1.000000    
     57 Si    c    0.029045 *  0.150681 *  0.696213 *   4.00000    1.000000    
     58 Si    c    0.877860 *  0.022613 *  0.860938 *   4.00000    1.000000    
     59 Si    c    0.148326 *  0.121191 *  0.532059 *   4.00000    1.000000    
     60 Si    c    0.969540 *  0.851460 *  0.196803 *   4.00000    1.000000    
     61 O3    c    0.933934 *  0.007628 *  0.003611 *   1.33043    1.000000    
     62 O2    c    0.003044 *  0.926698 *  0.331380 *   0.87073    1.000000    
     63 O2    c    0.067000 *  0.068774 *  0.663413 *   0.87073    1.000000    
     64 O2    c    0.073318 *  0.001931 *  0.497516 *   0.87073    1.000000    
     65 O2    c    0.996466 *  0.065498 *  0.826992 *   0.87073    1.000000    
     66 O2    c    0.929350 *  0.936850 *  0.166581 *   0.87073    1.000000    
     67 O2    c    0.338317 *  0.586138 *  0.330093 *   0.87073    1.000000    
     68 O2    c    0.421771 *  0.762082 *  0.664222 *   0.87073    1.000000    
     69 O2    c    0.235060 *  0.661699 *  0.995040 *   0.87073    1.000000    
     70 O2    c    0.659697 *  0.420140 *  0.831158 *   0.87073    1.000000    
     71 O2    c    0.581952 *  0.240436 *  0.170201 *   0.87073    1.000000    
     72 O2    c    0.760952 *  0.341626 *  0.498527 *   0.87073    1.000000    
     73 O3    c    0.568329 *  0.338783 *  0.997772 *   1.33043    1.000000    
     74 O2    c    0.761520 *  0.419417 *  0.665390 *   0.87073    1.000000    
     75 O2    c    0.673887 *  0.239376 *  0.332677 *   0.87073    1.000000    
     76 O2    c    0.417958 *  0.658638 *  0.497834 *   0.87073    1.000000    
     77 O2    c    0.233745 *  0.582533 *  0.162535 *   0.87073    1.000000    
     78 O2    c    0.337148 *  0.759870 *  0.829546 *   0.87073    1.000000    
     79 O3    c    0.137667 *  0.222412 *  0.971284 *   1.33043    1.000000    
     80 O2    c    0.788581 *  0.908533 *  0.303816 *   0.87073    1.000000    
     81 O2    c    0.086035 *  0.872530 *  0.637671 *   0.87073    1.000000    
     82 O2    c    0.875520 *  0.786898 *  0.470334 *   0.87073    1.000000    
     83 O2    c    0.213748 *  0.087321 *  0.803019 *   0.87073    1.000000    
     84 O2    c    0.908922 *  0.126408 *  0.133040 *   0.87073    1.000000    
     85 O3    c    0.212790 *  0.128498 *  0.360476 *   1.33043    1.000000    
     86 O2    c    0.916496 *  0.795065 *  0.024077 *   0.87073    1.000000    
     87 O2    c    0.873914 *  0.088451 *  0.692018 *   0.87073    1.000000    
     88 O2    c    0.781792 *  0.869310 *  0.854055 *   0.87073    1.000000    
     89 O2    c    0.084365 *  0.211152 *  0.525858 *   0.87073    1.000000    
     90 O2    c    0.124793 *  0.914922 *  0.192968 *   0.87073    1.000000    
     91 O2    c    0.928737 *  0.855536 *  0.247824 *   0.87073    1.000000    
     92 O2    c    0.129098 *  0.062033 *  0.581457 *   0.87073    1.000000    
     93 O3    c    0.935953 *  0.050569 *  0.910827 *   1.33043    1.000000    
     94 O2    c    0.074048 *  0.138930 *  0.745814 *   0.87073    1.000000    
     95 O2    c    0.853846 *  0.919705 *  0.083234 *   0.87073    1.000000    
     96 O2    c    0.068633 *  0.928159 *  0.414443 *   0.87073    1.000000    
     97 O3    c    0.898487 *  0.209307 *  0.970593 *   1.33043    1.000000    
     98 O2    c    0.796149 *  0.695677 *  0.310973 *   0.87073    1.000000    
     99 O2    c    0.300293 *  0.097044 *  0.644025 *   0.87073    1.000000    
    100 O2    c    0.098811 *  0.797088 *  0.478429 *   0.87073    1.000000    
    101 O2    c    0.200816 *  0.299695 *  0.810305 *   0.87073    1.000000    
    102 O2    c    0.695249 *  0.903216 *  0.144725 *   0.87073    1.000000    
    103 O2    c    0.211814 *  0.910206 *  0.353242 *   0.87073    1.000000    
    104 O2    c    0.698060 *  0.802065 *  0.015649 *   0.87073    1.000000    
    105 O2    c    0.099268 *  0.301802 *  0.683988 *   0.87073    1.000000    
    106 O2    c    0.797624 *  0.096178 *  0.851635 *   0.87073    1.000000    
    107 O2    c    0.302744 *  0.209775 *  0.523976 *   0.87073    1.000000    
    108 O2    c    0.899776 *  0.701962 *  0.181195 *   0.87073    1.000000    
    109 O2    c    0.319015 *  0.645341 *  0.246511 *   0.87073    1.000000    
    110 O2    c    0.355221 *  0.677895 *  0.581235 *   0.87073    1.000000    
    111 O2    c    0.318132 *  0.678759 *  0.912070 *   0.87073    1.000000    
    112 O2    c    0.679961 *  0.354856 *  0.748526 *   0.87073    1.000000    
    113 O3    c    0.615171 *  0.304264 *  0.085199 *   1.33043    1.000000    
    114 O2    c    0.675647 *  0.323713 *  0.415312 *   0.87073    1.000000    
    115 O2    c    0.377689 *  0.337665 *  0.965345 *   0.87073    1.000000    
    116 O2    c    0.676800 *  0.042419 *  0.302249 *   0.87073    1.000000    
    117 O2    c    0.955036 *  0.624658 *  0.635162 *   0.87073    1.000000    
    118 O2    c    0.622808 *  0.667660 *  0.467356 *   0.87073    1.000000    
    119 O2    c    0.328655 *  0.955000 *  0.800837 *   0.87073    1.000000    
    120 O2    c    0.036955 *  0.375903 *  0.129443 *   0.87073    1.000000    
    121 O3    c    0.320061 *  0.378497 *  0.356884 *   1.33043    1.000000    
    122 O2    c    0.035393 *  0.666877 *  0.024845 *   0.87073    1.000000    
    123 O2    c    0.625744 *  0.956959 *  0.694011 *   0.87073    1.000000    
    124 O2    c    0.666382 *  0.624300 *  0.858722 *   0.87073    1.000000    
    125 O2    c    0.955277 *  0.330639 *  0.526814 *   0.87073    1.000000    
    126 O2    c    0.374686 *  0.043403 *  0.195489 *   0.87073    1.000000    
    127 O3    c    0.754496 *  0.285951 *  0.002070 *   1.33043    1.000000    
    128 O2    c    0.695619 *  0.465691 *  0.343021 *   0.87073    1.000000    
    129 O2    c    0.532748 *  0.228383 *  0.675518 *   0.87073    1.000000    
    130 O2    c    0.227681 *  0.695297 *  0.508822 *   0.87073    1.000000    
    131 O2    c    0.300224 *  0.531521 *  0.839533 *   0.87073    1.000000    
    132 O2    c    0.462612 *  0.772211 *  0.174296 *   0.87073    1.000000    
    133 O2    c    0.301684 *  0.772579 *  0.319340 *   0.87073    1.000000    
    134 O2    c    0.467961 *  0.703687 *  0.984246 *   0.87073    1.000000    
    135 O2    c    0.231062 *  0.533050 *  0.653250 *   0.87073    1.000000    
    136 O2    c    0.699091 *  0.229943 *  0.820845 *   0.87073    1.000000    
    137 O2    c    0.530939 *  0.302912 *  0.487384 *   0.87073    1.000000    
    138 O2    c    0.764176 *  0.466738 *  0.150757 *   0.87073    1.000000    
    139 O3    c    0.773012 *  0.545490 *  0.019437 *   1.33043    1.000000    
    140 O3    c    0.471729 *  0.238633 *  0.355297 *   1.33043    1.000000    
    141 O2    c    0.752105 *  0.216330 *  0.693385 *   0.87073    1.000000    
    142 O2    c    0.214948 *  0.464046 *  0.525997 *   0.87073    1.000000    
    143 O2    c    0.531842 *  0.750071 *  0.857179 *   0.87073    1.000000    
    144 O2    c    0.243419 *  0.784175 *  0.193687 *   0.87073    1.000000    
    145 O2    c    0.534825 *  0.784277 *  0.302322 *   0.87073    1.000000    
    146 O2    c    0.249672 *  0.471043 *  0.968456 *   0.87073    1.000000    
    147 O2    c    0.214586 *  0.748292 *  0.636709 *   0.87073    1.000000    
    148 O2    c    0.466405 *  0.213946 *  0.802670 *   0.87073    1.000000    
    149 O2    c    0.738936 *  0.531533 *  0.468181 *   0.87073    1.000000    
    150 O2    c    0.780806 *  0.252092 *  0.131718 *   0.87073    1.000000    
    151 O2    c    0.224860 *  0.326213 *  0.894868 *   0.87073    1.000000    
    152 O2    c    0.676789 *  0.905825 *  0.229175 *   0.87073    1.000000    
    153 O2    c    0.091532 *  0.768269 *  0.563214 *   0.87073    1.000000    
    154 O2    c    0.758669 *  0.669768 *  0.396210 *   0.87073    1.000000    
    155 O2    c    0.321715 *  0.089108 *  0.728632 *   0.87073    1.000000    
    156 O2    c    0.901345 *  0.232814 *  0.057779 *   0.87073    1.000000    
    157 O3    c    0.309808 *  0.218218 *  0.439192 *   1.33043    1.000000    
    158 O2    c    0.896598 *  0.669396 *  0.095766 *   0.87073    1.000000    
    159 O2    c    0.769570 *  0.092299 *  0.767000 *   0.87073    1.000000    
    160 O2    c    0.677405 *  0.770932 *  0.930674 *   0.87073    1.000000    
    161 O2    c    0.090268 *  0.322898 *  0.599619 *   0.87073    1.000000    
    162 O2    c    0.235232 *  0.914995 *  0.267862 *   0.87073    1.000000    
    163 O2    c    0.587875 *  0.564627 *  0.986622 *   0.87073    1.000000    
    164 O2    c    0.449857 *  0.027253 *  0.323614 *   0.87073    1.000000    
    165 O2    c    0.971969 *  0.412847 *  0.655060 *   0.87073    1.000000    
    166 O2    c    0.413087 *  0.441647 *  0.487241 *   0.87073    1.000000    
    167 O2    c    0.558110 *  0.971471 *  0.821328 *   0.87073    1.000000    
    168 O2    c    0.018663 *  0.583294 *  0.148626 *   0.87073    1.000000    
    169 O2    c    0.554321 *  0.581533 *  0.340534 *   0.87073    1.000000    
    170 O2    c    0.016004 *  0.441701 *  0.004946 *   0.87073    1.000000    
    171 O2    c    0.410096 *  0.969434 *  0.673365 *   0.87073    1.000000    
    172 O2    c    0.437444 *  0.407610 *  0.841252 *   0.87073    1.000000    
    173 O2    c    0.967177 *  0.559390 *  0.507958 *   0.87073    1.000000    
    174 O2    c    0.590389 *  0.031547 *  0.175759 *   0.87073    1.000000    
    175 O2    c    0.586559 *  0.164551 *  0.250683 *   0.87073    1.000000    
    176 O2    c    0.832441 *  0.415190 *  0.581688 *   0.87073    1.000000    
    177 O2    c    0.588392 *  0.423361 *  0.914189 *   0.87073    1.000000    
    178 O2    c    0.414964 *  0.833652 *  0.747085 *   0.87073    1.000000    
    179 O2    c    0.155375 *  0.580901 *  0.077739 *   0.87073    1.000000    
    180 O2    c    0.414912 *  0.579956 *  0.413890 *   0.87073    1.000000    
    181 F     c    0.452314 *  0.901925 *  0.247245 *   0.56000    1.000000    
    182 F     c    0.094587 *  0.546472 *  0.580144 *   0.56000    1.000000    
    183 F     c    0.447611 *  0.552187 *  0.911960 *   0.56000    1.000000    
    184 F     c    0.548512 *  0.095517 *  0.747145 *   0.56000    1.000000    
    185 F     c    0.854818 *  0.435202 *  0.069971 *   0.56000    1.000000    
    186 F     c    0.508623 *  0.415699 *  0.409137 *   0.56000    1.000000    
    187 O3    s    0.928086 *  0.003652 *  0.003086 *  -3.33043    1.000000    
    188 O2    s    0.001931 *  0.922961 *  0.331107 *  -2.87073    1.000000    
    189 O2    s    0.071766 *  0.073111 *  0.663525 *  -2.87073    1.000000    
    190 O2    s    0.076980 *  0.001547 *  0.497715 *  -2.87073    1.000000    
    191 O2    s    0.997467 *  0.070188 *  0.827354 *  -2.87073    1.000000    
    192 O2    s    0.924827 *  0.931286 *  0.166146 *  -2.87073    1.000000    
    193 O2    s    0.349992 *  0.592905 *  0.329910 *  -2.87073    1.000000    
    194 O2    s    0.413610 *  0.765939 *  0.664125 *  -2.87073    1.000000    
    195 O2    s    0.230532 *  0.650047 *  0.994998 *  -2.87073    1.000000    
    196 O2    s    0.648033 *  0.412335 *  0.831023 *  -2.87073    1.000000    
    197 O2    s    0.587897 *  0.234892 *  0.169336 *  -2.87073    1.000000    
    198 O2    s    0.764704 *  0.353257 *  0.498376 *  -2.87073    1.000000    
    199 O3    s    0.574744 *  0.350332 *  0.997075 *  -3.33043    1.000000    
    200 O2    s    0.765903 *  0.412117 *  0.665347 *  -2.87073    1.000000    
    201 O2    s    0.660751 *  0.234636 *  0.332524 *  -2.87073    1.000000    
    202 O2    s    0.410506 *  0.646756 *  0.497803 *  -2.87073    1.000000    
    203 O2    s    0.229203 *  0.589330 *  0.162418 *  -2.87073    1.000000    
    204 O2    s    0.349072 *  0.764291 *  0.829612 *  -2.87073    1.000000    
    205 O3    s    0.135479 *  0.226431 *  0.968412 *  -3.33043    1.000000    
    206 O2    s    0.785134 *  0.902062 *  0.301165 *  -2.87073    1.000000    
    207 O2    s    0.092655 *  0.875773 *  0.634978 *  -2.87073    1.000000    
    208 O2    s    0.877690 *  0.782902 *  0.467661 *  -2.87073    1.000000    
    209 O2    s    0.217097 *  0.093845 *  0.800310 *  -2.87073    1.000000    
    210 O2    s    0.901972 *  0.122917 *  0.130786 *  -2.87073    1.000000    
    211 O3    s    0.212665 *  0.120725 *  0.362422 *  -3.33043    1.000000    
    212 O2    s    0.907665 *  0.790267 *  0.026489 *  -2.87073    1.000000    
    213 O2    s    0.877640 *  0.095279 *  0.694596 *  -2.87073    1.000000    
    214 O2    s    0.778999 *  0.872833 *  0.857066 *  -2.87073    1.000000    
    215 O2    s    0.091349 *  0.214946 *  0.528492 *  -2.87073    1.000000    
    216 O2    s    0.121170 *  0.907959 *  0.195495 *  -2.87073    1.000000    
    217 O2    s    0.927961 *  0.854123 *  0.247756 *  -2.87073    1.000000    
    218 O2    s    0.133319 *  0.064693 *  0.581523 *  -2.87073    1.000000    
    219 O3    s    0.933095 *  0.053821 *  0.910089 *  -3.33043    1.000000    
    220 O2    s    0.074270 *  0.141427 *  0.745900 *  -2.87073    1.000000    
    221 O2    s    0.852485 *  0.921484 *  0.083167 *  -2.87073    1.000000    
    222 O2    s    0.070621 *  0.928021 *  0.415070 *  -2.87073    1.000000    
    223 O3    s    0.904149 *  0.210545 *  0.973842 *  -3.33043    1.000000    
    224 O2    s    0.794358 *  0.701235 *  0.313635 *  -2.87073    1.000000    
    225 O2    s    0.293803 *  0.089255 *  0.646636 *  -2.87073    1.000000    
    226 O2    s    0.091328 *  0.795758 *  0.480934 *  -2.87073    1.000000    
    227 O2    s    0.202379 *  0.293521 *  0.812837 *  -2.87073    1.000000    
    228 O2    s    0.701593 *  0.910604 *  0.147371 *  -2.87073    1.000000    
    229 O2    s    0.213380 *  0.916901 *  0.350294 *  -2.87073    1.000000    
    230 O2    s    0.704211 *  0.800190 *  0.013286 *  -2.87073    1.000000    
    231 O2    s    0.091586 *  0.295766 *  0.681360 *  -2.87073    1.000000    
    232 O2    s    0.795980 *  0.088675 *  0.848740 *  -2.87073    1.000000    
    233 O2    s    0.295564 *  0.209336 *  0.520715 *  -2.87073    1.000000    
    234 O2    s    0.906682 *  0.707540 *  0.178874 *  -2.87073    1.000000    
    235 O2    s    0.324867 *  0.657386 *  0.246451 *  -2.87073    1.000000    
    236 O2    s    0.343290 *  0.671770 *  0.581145 *  -2.87073    1.000000    
    237 O2    s    0.324251 *  0.673012 *  0.912180 *  -2.87073    1.000000    
    238 O2    s    0.673998 *  0.343168 *  0.748429 *  -2.87073    1.000000    
    239 O3    s    0.628345 *  0.310422 *  0.086414 *  -3.33043    1.000000    
    240 O2    s    0.670488 *  0.328875 *  0.415396 *  -2.87073    1.000000    
    241 O2    s    0.380427 *  0.347681 *  0.963448 *  -2.87073    1.000000    
    242 O2    s    0.666375 *  0.035637 *  0.300114 *  -2.87073    1.000000    
    243 O2    s    0.961800 *  0.621457 *  0.633033 *  -2.87073    1.000000    
    244 O2    s    0.619923 *  0.658242 *  0.465342 *  -2.87073    1.000000    
    245 O2    s    0.338705 *  0.961739 *  0.798663 *  -2.87073    1.000000    
    246 O2    s    0.030860 *  0.379014 *  0.127592 *  -2.87073    1.000000    
    247 O3    s    0.331986 *  0.386249 *  0.359218 *  -3.33043    1.000000    
    248 O2    s    0.029606 *  0.657320 *  0.026546 *  -2.87073    1.000000    
    249 O2    s    0.622485 *  0.963794 *  0.696303 *  -2.87073    1.000000    
    250 O2    s    0.656660 *  0.621125 *  0.861061 *  -2.87073    1.000000    
    251 O2    s    0.962150 *  0.340618 *  0.529233 *  -2.87073    1.000000    
    252 O2    s    0.377721 *  0.036695 *  0.197888 *  -2.87073    1.000000    
    253 O3    s    0.765139 *  0.293260 *  0.005179 *  -3.33043    1.000000    
    254 O2    s    0.688574 *  0.465203 *  0.345636 *  -2.87073    1.000000    
    255 O2    s    0.533394 *  0.221405 *  0.678643 *  -2.87073    1.000000    
    256 O2    s    0.220781 *  0.687912 *  0.511964 *  -2.87073    1.000000    
    257 O2    s    0.307783 *  0.532397 *  0.842877 *  -2.87073    1.000000    
    258 O2    s    0.462229 *  0.778988 *  0.177597 *  -2.87073    1.000000    
    259 O2    s    0.309914 *  0.779902 *  0.316433 *  -2.87073    1.000000    
    260 O2    s    0.466647 *  0.695492 *  0.981200 *  -2.87073    1.000000    
    261 O2    s    0.223701 *  0.533449 *  0.650209 *  -2.87073    1.000000    
    262 O2    s    0.691373 *  0.222873 *  0.817731 *  -2.87073    1.000000    
    263 O2    s    0.531845 *  0.310124 *  0.484586 *  -2.87073    1.000000    
    264 O2    s    0.770763 *  0.466578 *  0.148025 *  -2.87073    1.000000    
    265 O3    s    0.782546 *  0.547338 *  0.022621 *  -3.33043    1.000000    
    266 O3    s    0.478907 *  0.249127 *  0.358064 *  -3.33043    1.000000    
    267 O2    s    0.743900 *  0.211068 *  0.695954 *  -2.87073    1.000000    
    268 O2    s    0.209587 *  0.466820 *  0.528553 *  -2.87073    1.000000    
    269 O2    s    0.528935 *  0.741760 *  0.859775 *  -2.87073    1.000000    
    270 O2    s    0.252103 *  0.789558 *  0.196122 *  -2.87073    1.000000    
    271 O2    s    0.532409 *  0.789831 *  0.299737 *  -2.87073    1.000000    
    272 O2    s    0.257919 *  0.474359 *  0.965808 *  -2.87073    1.000000    
    273 O2    s    0.209279 *  0.740588 *  0.634068 *  -2.87073    1.000000    
    274 O2    s    0.469091 *  0.208798 *  0.800093 *  -2.87073    1.000000    
    275 O2    s    0.733019 *  0.529413 *  0.465995 *  -2.87073    1.000000    
    276 O2    s    0.785230 *  0.258312 *  0.129586 *  -2.87073    1.000000    
    277 O2    s    0.235452 *  0.335782 *  0.895609 *  -2.87073    1.000000    
    278 O2    s    0.667247 *  0.905970 *  0.230137 *  -2.87073    1.000000    
    279 O2    s    0.091526 *  0.758784 *  0.564020 *  -2.87073    1.000000    
    280 O2    s    0.750800 *  0.661407 *  0.397017 *  -2.87073    1.000000    
    281 O2    s    0.331527 *  0.089484 *  0.729525 *  -2.87073    1.000000    
    282 O2    s    0.900652 *  0.240540 *  0.058975 *  -2.87073    1.000000    
    283 O3    s    0.321604 *  0.229841 *  0.439634 *  -3.33043    1.000000    
    284 O2    s    0.896796 *  0.660986 *  0.095493 *  -2.87073    1.000000    
    285 O2    s    0.760098 *  0.092449 *  0.766037 *  -2.87073    1.000000    
    286 O2    s    0.667622 *  0.761480 *  0.929780 *  -2.87073    1.000000    
    287 O2    s    0.090646 *  0.332489 *  0.598735 *  -2.87073    1.000000    
    288 O2    s    0.244046 *  0.914117 *  0.266860 *  -2.87073    1.000000    
    289 O2    s    0.583759 *  0.565182 *  0.983325 *  -2.87073    1.000000    
    290 O2    s    0.449225 *  0.023216 *  0.320198 *  -2.87073    1.000000    
    291 O2    s    0.976571 *  0.417235 *  0.651751 *  -2.87073    1.000000    
    292 O2    s    0.416603 *  0.441581 *  0.484381 *  -2.87073    1.000000    
    293 O2    s    0.558382 *  0.976156 *  0.818009 *  -2.87073    1.000000    
    294 O2    s    0.015090 *  0.579738 *  0.145860 *  -2.87073    1.000000    
    295 O2    s    0.555479 *  0.578273 *  0.343451 *  -2.87073    1.000000    
    296 O2    s    0.012949 *  0.442340 *  0.007750 *  -2.87073    1.000000    
    297 O2    s    0.414960 *  0.974566 *  0.676799 *  -2.87073    1.000000    
    298 O2    s    0.437752 *  0.413105 *  0.844378 *  -2.87073    1.000000    
    299 O2    s    0.972769 *  0.559726 *  0.511291 *  -2.87073    1.000000    
    300 O2    s    0.585172 *  0.026113 *  0.179099 *  -2.87073    1.000000    
    301 O2    s    0.581152 *  0.153460 *  0.250580 *  -2.87073    1.000000    
    302 O2    s    0.843715 *  0.421028 *  0.581724 *  -2.87073    1.000000    
    303 O2    s    0.582462 *  0.428004 *  0.913899 *  -2.87073    1.000000    
    304 O2    s    0.420598 *  0.844649 *  0.747124 *  -2.87073    1.000000    
    305 O2    s    0.145739 *  0.576030 *  0.077886 *  -2.87073    1.000000    
    306 O2    s    0.419652 *  0.575285 *  0.414154 *  -2.87073    1.000000    
    307 F     s    0.452097 *  0.901191 *  0.247105 *  -1.56000    1.000000    
    308 F     s    0.094879 *  0.546532 *  0.579994 *  -1.56000    1.000000    
    309 F     s    0.446940 *  0.552601 *  0.911841 *  -1.56000    1.000000    
    310 F     s    0.548773 *  0.095932 *  0.747056 *  -1.56000    1.000000    
    311 F     s    0.845227 *  0.431461 *  0.067903 *  -1.56000    1.000000    
    312 F     s    0.500171 *  0.407118 *  0.407677 *  -1.56000    1.000000    
--------------------------------------------------------------------------------



********************************************************************************
*  General input information                                                   *
********************************************************************************

  Species output for all configurations : 

--------------------------------------------------------------------------------
  Species    Type    Atomic    Atomic    Charge       Radii (Angs)     Library
                     Number     Mass       (e)     Cova   Ionic  VDW   Symbol
--------------------------------------------------------------------------------
    Si       Core       14      28.09   4.000000   1.200  0.000  2.100          
    O1       Core        8      16.00   1.733957   0.730  0.000  1.360          
    O1       Shell       8       0.00  -3.733957   0.730  0.000  1.360          
    O2       Core        8      16.00   0.870733   0.730  0.000  1.360          
    O2       Shell       8       0.00  -2.870733   0.730  0.000  1.360          
    O3       Core        8      16.00   1.330431   0.730  0.000  1.360          
    O3       Shell       8       0.00  -3.330431   0.730  0.000  1.360          
    F        Core        9      19.00   0.560000   0.710  0.000  1.300          
    F        Shell       9       0.00  -1.560000   0.710  0.000  1.300          
    Ge       Core       32      72.61   4.000000   1.170  0.000  1.750          
--------------------------------------------------------------------------------


  Lattice summation method               =    Ewald          (3-D)
                                         =    Parry          (2-D)
                                         =    Saunders et al (1-D)
  Accuracy factor for lattice sums       =   12.000


  Time limit = Infinity

  Maximum range for interatomic potentials =        16.000000 Angstroms

  Taper potentials to zero over   1.0000 Angstroms using polynomial

  General interatomic potentials :

--------------------------------------------------------------------------------
Atom  Types   Potential         A         B         C         D     Cutoffs(Ang)
  1     2                                                            Min    Max 
--------------------------------------------------------------------------------
Si   c O1   s Buckingham    0.132E+04 0.318      10.1      0.00     0.000 16.000
Si   c O2   s Buckingham    0.132E+04 0.318      10.1      0.00     0.000 16.000
Si   c O3   s Buckingham    0.132E+04 0.318      10.1      0.00     0.000 16.000
Ge   c O1   s Buckingham    0.150E+04 0.326      16.8      0.00     0.000 16.000
Ge   c O2   s Buckingham    0.150E+04 0.326      16.8      0.00     0.000 16.000
Ge   c O3   s Buckingham    0.150E+04 0.326      16.8      0.00     0.000 16.000
O1   s O1   s Buckingham    0.228E+05 0.149      10.9      0.00     0.000 16.000
O1   s O2   s Buckingham    0.228E+05 0.149      10.9      0.00     0.000 16.000
O1   s O3   s Buckingham    0.228E+05 0.149      10.9      0.00     0.000 16.000
O2   s O2   s Buckingham    0.228E+05 0.149      10.9      0.00     0.000 16.000
O2   s O3   s Buckingham    0.228E+05 0.149      10.9      0.00     0.000 16.000
O3   s O3   s Buckingham    0.228E+05 0.149      10.9      0.00     0.000 16.000
Si   c F    s Buckingham     977.     0.282      0.00      0.00     0.000 16.000
Ge   c F    s Buckingham     681.     0.320      0.00      0.00     0.000 16.000
F    s F    s Buckingham     540.     0.262      0.00      0.00     0.000 16.000
O1   s F    s Buckingham    0.168E+04 0.268      0.00      0.00     0.000 16.000
O2   s F    s Buckingham    0.168E+04 0.268      0.00      0.00     0.000 16.000
O3   s F    s Buckingham    0.168E+04 0.268      0.00      0.00     0.000 16.000
O2   c O2   s Spring (c-s)   76.0      0.00      0.00      0.00     0.000  0.800
O3   c O3   s Spring (c-s)   128.      0.00      0.00      0.00     0.000  0.800
O1   c O1   s Spring (c-s)   180.      0.00      0.00      0.00     0.000  0.800
F    c F    s Spring (c-s)   33.5      0.00      0.00      0.00     0.000  0.800
--------------------------------------------------------------------------------

  General Three-body potentials :

  Harmonic form:

--------------------------------------------------------------------------------
Atom    Atom    Atom           Force Constants            Theta     Cutoffs  
  1       2       3     (eVrad**-2/eVrad**-3/eVrad**-4)   (deg)  1-2  1-3  2-3
--------------------------------------------------------------------------------
Si    c O1    s O1    s  1.261        0.0000    0.0000   109.470 0.00 0.00 0.00
                                                                 1.90 1.90 3.50
Si    c O1    s O2    s  1.261        0.0000    0.0000   109.470 0.00 0.00 0.00
                                                                 1.90 1.90 3.50
Si    c O2    s O2    s  1.261        0.0000    0.0000   109.470 0.00 0.00 0.00
                                                                 1.90 1.90 3.50
--------------------------------------------------------------------------------

********************************************************************************
*  Output for configuration   1                                                *
********************************************************************************


  Components of energy : 

--------------------------------------------------------------------------------
  Interatomic potentials     =        2062.92732114 eV
  Three-body potentials      =           0.48481155 eV
  Monopole - monopole (real) =       -6612.23620397 eV
  Monopole - monopole (recip)=       -3171.09205567 eV
  Monopole - monopole (total)=       -9783.32825964 eV
  Neutralising energy        =          -6.45950075 eV
--------------------------------------------------------------------------------
  Total lattice energy       =       -7726.37562770 eV
--------------------------------------------------------------------------------
  Total lattice energy       =         -745477.1396 kJ/(mole unit cells)
--------------------------------------------------------------------------------


  Number of variables =      939

  Maximum number of calculations  =          1000
  Maximum Hessian update interval =            10
  Maximum step size               =   1.000000000
  Maximum parameter tolerance     =   0.000010000
  Maximum function  tolerance     =   0.000010000
  Maximum gradient  tolerance     =   0.001000000
  Maximum gradient  component     =   0.010000000

  Symmetry not applied to optimisation

  Cell parameters to be optimised using strains

  Newton-Raphson optimiser to be used

  BFGS hessian update to be used

  Dumpfile to be written after every cycle

  Start of bulk optimisation :

  Cycle:      0 Energy:     -7726.375628  Gnorm:      0.013391  CPU:    1.105
  ** Hessian calculated **
  Cycle:      1 Energy:     -7726.376003  Gnorm:      0.002779  CPU:    2.770
  Cycle:      2 Energy:     -7726.376112  Gnorm:      0.003802  CPU:    4.166
  Cycle:      3 Energy:     -7726.376656  Gnorm:      0.009023  CPU:    6.230
  Cycle:      4 Energy:     -7726.377864  Gnorm:      0.008719  CPU:    8.295
  Cycle:      5 Energy:     -7726.379707  Gnorm:      0.007319  CPU:   10.360
  Cycle:      6 Energy:     -7726.381993  Gnorm:      0.007863  CPU:   12.424
  Cycle:      7 Energy:     -7726.384187  Gnorm:      0.009285  CPU:   14.155
  Cycle:      8 Energy:     -7726.386530  Gnorm:      0.011152  CPU:   15.885
  Cycle:      9 Energy:     -7726.388938  Gnorm:      0.013901  CPU:   17.280
  Cycle:     10 Energy:     -7726.391503  Gnorm:      0.013216  CPU:   18.676
  ** Hessian calculated **
  Cycle:     11 Energy:     -7726.392585  Gnorm:      0.007291  CPU:   20.925
  Cycle:     12 Energy:     -7726.393612  Gnorm:      0.009753  CPU:   22.321
  Cycle:     13 Energy:     -7726.394947  Gnorm:      0.009583  CPU:   23.716
  Cycle:     14 Energy:     -7726.396029  Gnorm:      0.009666  CPU:   25.270
  Cycle:     15 Energy:     -7726.397023  Gnorm:      0.008299  CPU:   26.666
  Cycle:     16 Energy:     -7726.397703  Gnorm:      0.006977  CPU:   28.061
  Cycle:     17 Energy:     -7726.398140  Gnorm:      0.006236  CPU:   29.457
  Cycle:     18 Energy:     -7726.398568  Gnorm:      0.006457  CPU:   30.852
  Cycle:     19 Energy:     -7726.399074  Gnorm:      0.007716  CPU:   32.247
  Cycle:     20 Energy:     -7726.399604  Gnorm:      0.006682  CPU:   33.643
  ** Hessian calculated **
  Cycle:     21 Energy:     -7726.402159  Gnorm:      0.006606  CPU:   37.231
  Cycle:     22 Energy:     -7726.406163  Gnorm:      0.006485  CPU:   39.630
  Cycle:     23 Energy:     -7726.412140  Gnorm:      0.006301  CPU:   42.029
  Cycle:     24 Energy:     -7726.419404  Gnorm:      0.006070  CPU:   44.193
  Cycle:     25 Energy:     -7726.431148  Gnorm:      0.005677  CPU:   46.592
  Cycle:     26 Energy:     -7726.445158  Gnorm:      0.005169  CPU:   48.657
  Cycle:     27 Energy:     -7726.466171  Gnorm:      0.004303  CPU:   51.057
  Cycle:     28 Energy:     -7726.487400  Gnorm:      0.003223  CPU:   53.122
  Cycle:     29 Energy:     -7726.505699  Gnorm:      0.001906  CPU:   55.187
  Cycle:     30 Energy:     -7726.510231  Gnorm:      0.000694  CPU:   56.582
  ** Hessian calculated **
  Cycle:     31 Energy:     -7726.510235  Gnorm:      0.000366  CPU:   58.833
  Cycle:     32 Energy:     -7726.510236  Gnorm:      0.000219  CPU:   60.229
  Cycle:     33 Energy:     -7726.510236  Gnorm:      0.000233  CPU:   61.768
  Cycle:     34 Energy:     -7726.510237  Gnorm:      0.000193  CPU:   63.164
  Cycle:     35 Energy:     -7726.510237  Gnorm:      0.000155  CPU:   64.560
  Cycle:     36 Energy:     -7726.510238  Gnorm:      0.000141  CPU:   65.956
  Cycle:     37 Energy:     -7726.510238  Gnorm:      0.000123  CPU:   67.476
  Cycle:     38 Energy:     -7726.510238  Gnorm:      0.000128  CPU:   68.872
  Cycle:     39 Energy:     -7726.510238  Gnorm:      0.000102  CPU:   70.267
  Cycle:     40 Energy:     -7726.510238  Gnorm:      0.000116  CPU:   71.663
  ** Hessian calculated **
  Cycle:     41 Energy:     -7726.510238  Gnorm:      0.000114  CPU:   73.914
  Cycle:     42 Energy:     -7726.510238  Gnorm:      0.000112  CPU:   75.310
  Cycle:     43 Energy:     -7726.510239  Gnorm:      0.000110  CPU:   76.705
  Cycle:     44 Energy:     -7726.510239  Gnorm:      0.000109  CPU:   78.190
  Cycle:     45 Energy:     -7726.510239  Gnorm:      0.000107  CPU:   79.586
  Cycle:     46 Energy:     -7726.510239  Gnorm:      0.000105  CPU:   80.981
  Cycle:     47 Energy:     -7726.510239  Gnorm:      0.000103  CPU:   82.378
  Cycle:     48 Energy:     -7726.510241  Gnorm:      0.000071  CPU:   83.773


  **** Optimisation achieved ****


  Final energy =   -7726.51024188 eV
  Final Gnorm  =       0.00000834

  Components of energy : 

--------------------------------------------------------------------------------
  Interatomic potentials     =        2063.47148831 eV
  Three-body potentials      =           0.48291764 eV
  Monopole - monopole (real) =       -6613.96498032 eV
  Monopole - monopole (recip)=       -3170.04230097 eV
  Monopole - monopole (total)=       -9784.00728129 eV
  Neutralising energy        =          -6.45736654 eV
--------------------------------------------------------------------------------
  Total lattice energy       =       -7726.51024188 eV
--------------------------------------------------------------------------------
  Total lattice energy       =         -745490.1278 kJ/(mole unit cells)
--------------------------------------------------------------------------------

  Final fractional coordinates of atoms :

--------------------------------------------------------------------------------
   No.  Atomic        x           y          z          Radius
        Label       (Frac)      (Frac)     (Frac)       (Angs) 
--------------------------------------------------------------------------------
     1  Ge    c     0.699600    0.375700    0.033890    0.000000
     2  Si    c     0.594125    0.299570    0.362921    0.000000
     3  Si    c     0.650795    0.276366    0.697987    0.000000
     4  Si    c     0.262776    0.596555    0.530566    0.000000
     5  Si    c     0.354583    0.657593    0.861748    0.000000
     6  Si    c     0.298156    0.692477    0.196688    0.000000
     7  Si    c     0.353108    0.691039    0.296934    0.000000
     8  Si    c     0.306877    0.612090    0.962389    0.000000
     9  Si    c     0.269860    0.655180    0.631065    0.000000
    10  Si    c     0.599826    0.278863    0.798489    0.000000
    11  Si    c     0.642336    0.355581    0.465812    0.000000
    12  Si    c     0.669728    0.304887    0.131292    0.000000
    13  Si    c     0.524782    0.412291    0.965648    0.000000
    14  Si    c     0.566937    0.096067    0.300258    0.000000
    15  Si    c     0.858231    0.447825    0.632848    0.000000
    16  Si    c     0.431892    0.558941    0.464605    0.000000
    17  Si    c     0.392508    0.867193    0.797749    0.000000
    18  Si    c     0.090177    0.518724    0.128860    0.000000
    19  Si    c     0.377063    0.508376    0.360673    0.000000
    20  Si    c     0.094262    0.574672    0.026209    0.000000
    21  Si    c     0.443264    0.867728    0.696200    0.000000
    22  Si    c     0.564326    0.454149    0.862825    0.000000
    23  Si    c     0.855719    0.395780    0.531373    0.000000
    24  Si    c     0.509849    0.099213    0.199329    0.000000
    25  Si    c     0.280344    0.381540    0.848702    0.000000
    26  Si    c     0.578408    0.891284    0.183081    0.000000
    27  Si    c     0.062662    0.675487    0.516517    0.000000
    28  Si    c     0.663448    0.578357    0.347452    0.000000
    29  Si    c     0.370828    0.074380    0.682233    0.000000
    30  Si    c     0.879763    0.287181    0.008824    0.000000
    31  Si    c     0.359346    0.275465    0.481815    0.000000
    32  Si    c     0.876540    0.590541    0.142369    0.000000
    33  Si    c     0.676086    0.078050    0.813028    0.000000
    34  Si    c     0.588010    0.691948    0.976117    0.000000
    35  Si    c     0.069083    0.377205    0.646007    0.000000
    36  Si    c     0.281597    0.893511    0.314522    0.000000
    37  Si    c     0.243444    0.335860    0.949301    0.000000
    38  Si    c     0.638347    0.893434    0.283415    0.000000
    39  Si    c     0.059133    0.726526    0.617305    0.000000
    40  Si    c     0.714944    0.639736    0.449707    0.000000
    41  Si    c     0.316556    0.068292    0.782739    0.000000
    42  Si    c     0.885815    0.236352    0.111697    0.000000
    43  Ge    c     0.325434    0.246567    0.381692    0.000000
    44  Si    c     0.892766    0.657291    0.040297    0.000000
    45  Si    c     0.723638    0.070121    0.712417    0.000000
    46  Si    c     0.637317    0.731424    0.875027    0.000000
    47  Si    c     0.055196    0.315837    0.545325    0.000000
    48  Si    c     0.228473    0.900451    0.213566    0.000000
    49  Ge    c     0.962144    0.111718    0.962330    0.000000
    50  Si    c     0.852140    0.825694    0.298492    0.000000
    51  Si    c     0.119383    0.004783    0.631829    0.000000
    52  Si    c     0.999634    0.857449    0.464640    0.000000
    53  Si    c     0.100738    0.132316    0.796909    0.000000
    54  Si    c     0.825622    0.958937    0.132081    0.000000
    55  Si    c     0.099910    0.958576    0.364993    0.000000
    56  Si    c     0.834874    0.873735    0.030975    0.000000
    57  Si    c     0.003735    0.131254    0.696253    0.000000
    58  Si    c     0.856941    0.006700    0.860935    0.000000
    59  Si    c     0.115900    0.098212    0.531880    0.000000
    60  Si    c     0.946462    0.836682    0.196966    0.000000
    61  O3    c     0.920242    0.002655    0.005005    0.000000
    62  O2    c     0.974109    0.899942    0.331534    0.000000
    63  O2    c     0.040698    0.048214    0.663744    0.000000
    64  O2    c     0.040649    0.978623    0.497498    0.000000
    65  O2    c     0.976784    0.051560    0.827663    0.000000
    66  O2    c     0.906913    0.923487    0.167187    0.000000
    67  O2    c     0.309744    0.568691    0.329415    0.000000
    68  O2    c     0.395033    0.742298    0.663505    0.000000
    69  O2    c     0.221810    0.649766    0.995244    0.000000
    70  O2    c     0.638823    0.402552    0.830796    0.000000
    71  O2    c     0.561330    0.226977    0.169124    0.000000
    72  O2    c     0.727839    0.319920    0.498763    0.000000
    73  O3    c     0.564361    0.335297    0.998048    0.000000
    74  O2    c     0.734289    0.399065    0.665468    0.000000
    75  O2    c     0.647107    0.222471    0.332691    0.000000
    76  O2    c     0.384247    0.634970    0.497121    0.000000
    77  O2    c     0.213612    0.569867    0.162881    0.000000
    78  O2    c     0.314865    0.741317    0.829125    0.000000
    79  O3    c     0.125523    0.208808    0.970636    0.000000
    80  O2    c     0.763501    0.890984    0.303826    0.000000
    81  O2    c     0.058344    0.851448    0.637661    0.000000
    82  O2    c     0.843120    0.765492    0.469278    0.000000
    83  O2    c     0.190951    0.068800    0.802816    0.000000
    84  O2    c     0.888860    0.113770    0.132845    0.000000
    85  O3    c     0.180908    0.107260    0.359995    0.000000
    86  O2    c     0.907414    0.792391    0.024480    0.000000
    87  O2    c     0.848632    0.069034    0.691966    0.000000
    88  O2    c     0.761743    0.854148    0.852810    0.000000
    89  O2    c     0.050636    0.187132    0.525993    0.000000
    90  O2    c     0.101978    0.901956    0.193534    0.000000
    91  O2    c     0.901381    0.835233    0.247756    0.000000
    92  O2    c     0.099125    0.039746    0.581391    0.000000
    93  O3    c     0.914780    0.033560    0.911166    0.000000
    94  O2    c     0.050233    0.121318    0.745964    0.000000
    95  O2    c     0.833345    0.906820    0.083509    0.000000
    96  O2    c     0.040445    0.906651    0.414440    0.000000
    97  O3    c     0.889497    0.202156    0.969218    0.000000
    98  O2    c     0.762918    0.674115    0.310037    0.000000
    99  O2    c     0.272713    0.075591    0.643654    0.000000
   100  O2    c     0.065121    0.773233    0.478353    0.000000
   101  O2    c     0.181723    0.282712    0.810181    0.000000
   102  O2    c     0.674218    0.891621    0.144522    0.000000
   103  O2    c     0.188721    0.894531    0.353550    0.000000
   104  O2    c     0.685575    0.794233    0.013998    0.000000
   105  O2    c     0.073606    0.281932    0.683731    0.000000
   106  O2    c     0.775812    0.079301    0.851562    0.000000
   107  O2    c     0.269854    0.187450    0.523390    0.000000
   108  O2    c     0.878788    0.688349    0.180687    0.000000
   109  O2    c     0.297327    0.632799    0.246203    0.000000
   110  O2    c     0.324542    0.655188    0.580564    0.000000
   111  O2    c     0.298931    0.662121    0.911722    0.000000
   112  O2    c     0.654577    0.334845    0.748238    0.000000
   113  O3    c     0.604420    0.298473    0.083656    0.000000
   114  O2    c     0.643338    0.303047    0.415220    0.000000
   115  O2    c     0.367067    0.328047    0.965972    0.000000
   116  O2    c     0.654166    0.027561    0.301887    0.000000
   117  O2    c     0.926951    0.603647    0.635277    0.000000
   118  O2    c     0.589605    0.644985    0.466797    0.000000
   119  O2    c     0.305745    0.936300    0.800664    0.000000
   120  O2    c     0.017524    0.363237    0.129754    0.000000
   121  O3    c     0.286997    0.356802    0.355842    0.000000
   122  O2    c     0.026873    0.662330    0.025540    0.000000
   123  O2    c     0.600341    0.937599    0.693439    0.000000
   124  O2    c     0.647367    0.609485    0.857342    0.000000
   125  O2    c     0.922468    0.307498    0.526819    0.000000
   126  O2    c     0.352578    0.030240    0.194854    0.000000
   127  O3    c     0.745252    0.279597    0.001480    0.000000
   128  O2    c     0.663668    0.444913    0.342640    0.000000
   129  O2    c     0.506166    0.207811    0.675055    0.000000
   130  O2    c     0.194433    0.671260    0.508332    0.000000
   131  O2    c     0.279696    0.513944    0.839203    0.000000
   132  O2    c     0.440655    0.760517    0.173723    0.000000
   133  O2    c     0.277584    0.757620    0.319017    0.000000
   134  O2    c     0.453267    0.692035    0.983508    0.000000
   135  O2    c     0.203739    0.512503    0.652874    0.000000
   136  O2    c     0.675814    0.211225    0.820649    0.000000
   137  O2    c     0.498372    0.281634    0.487043    0.000000
   138  O2    c     0.745796    0.454336    0.150222    0.000000
   139  O3    c     0.767931    0.542585    0.017808    0.000000
   140  O3    c     0.440627    0.218103    0.354657    0.000000
   141  O2    c     0.726177    0.196368    0.692912    0.000000
   142  O2    c     0.181977    0.440397    0.525527    0.000000
   143  O2    c     0.511110    0.733081    0.855893    0.000000
   144  O2    c     0.221356    0.771693    0.193535    0.000000
   145  O2    c     0.510433    0.769543    0.302703    0.000000
   146  O2    c     0.235482    0.457571    0.968914    0.000000
   147  O2    c     0.186418    0.726969    0.636311    0.000000
   148  O2    c     0.443118    0.194957    0.802659    0.000000
   149  O2    c     0.706441    0.510183    0.467791    0.000000
   150  O2    c     0.761806    0.239891    0.130477    0.000000
   151  O2    c     0.209332    0.311431    0.895208    0.000000
   152  O2    c     0.653244    0.890540    0.229126    0.000000
   153  O2    c     0.060668    0.745686    0.563081    0.000000
   154  O2    c     0.724973    0.648051    0.395536    0.000000
   155  O2    c     0.296944    0.069489    0.728445    0.000000
   156  O2    c     0.886952    0.222976    0.057241    0.000000
   157  O3    c     0.277404    0.196211    0.438440    0.000000
   158  O2    c     0.879568    0.658733    0.095408    0.000000
   159  O2    c     0.745276    0.073433    0.766686    0.000000
   160  O2    c     0.659934    0.757941    0.929177    0.000000
   161  O2    c     0.060234    0.301329    0.599518    0.000000
   162  O2    c     0.213787    0.902608    0.267776    0.000000
   163  O2    c     0.575762    0.556021    0.986327    0.000000
   164  O2    c     0.427051    0.011135    0.323610    0.000000
   165  O2    c     0.944994    0.392882    0.655263    0.000000
   166  O2    c     0.379734    0.418870    0.486623    0.000000
   167  O2    c     0.535337    0.953165    0.821096    0.000000
   168  O2    c     0.999802    0.571139    0.148320    0.000000
   169  O2    c     0.521067    0.558522    0.339543    0.000000
   170  O2    c     0.001753    0.433791    0.004521    0.000000
   171  O2    c     0.383970    0.949379    0.672899    0.000000
   172  O2    c     0.419058    0.392106    0.841106    0.000000
   173  O2    c     0.934278    0.536352    0.507941    0.000000
   174  O2    c     0.569327    0.019086    0.175450    0.000000
   175  O2    c     0.563604    0.150356    0.250295    0.000000
   176  O2    c     0.802462    0.393379    0.581983    0.000000
   177  O2    c     0.574600    0.413365    0.914060    0.000000
   178  O2    c     0.391103    0.814887    0.746677    0.000000
   179  O2    c     0.138741    0.568091    0.078030    0.000000
   180  O2    c     0.381509    0.556780    0.413180    0.000000
   181  F     c     0.430867    0.889490    0.246793    0.000000
   182  F     c     0.063965    0.524125    0.579837    0.000000
   183  F     c     0.429772    0.538278    0.911484    0.000000
   184  F     c     0.523919    0.076273    0.746672    0.000000
   185  F     c     0.846329    0.430052    0.070142    0.000000
   186  F     c     0.475076    0.393876    0.408435    0.000000
   187  O3    s     0.914334    0.997733    0.004177    0.000000
   188  O2    s     0.973112    0.897413    0.331202    0.000000
   189  O2    s     0.045422    0.052587    0.663779    0.000000
   190  O2    s     0.044406    0.978382    0.497659    0.000000
   191  O2    s     0.977462    0.055751    0.827885    0.000000
   192  O2    s     0.902454    0.917874    0.166644    0.000000
   193  O2    s     0.321460    0.575177    0.329304    0.000000
   194  O2    s     0.386930    0.746022    0.663452    0.000000
   195  O2    s     0.216975    0.638160    0.995194    0.000000
   196  O2    s     0.627209    0.394955    0.830684    0.000000
   197  O2    s     0.567240    0.221653    0.168341    0.000000
   198  O2    s     0.731783    0.331496    0.498564    0.000000
   199  O3    s     0.569643    0.346732    0.997032    0.000000
   200  O2    s     0.738717    0.391658    0.665388    0.000000
   201  O2    s     0.633806    0.217438    0.332445    0.000000
   202  O2    s     0.376950    0.623122    0.497116    0.000000
   203  O2    s     0.208978    0.576773    0.162678    0.000000
   204  O2    s     0.326908    0.745873    0.829183    0.000000
   205  O3    s     0.123092    0.212972    0.967830    0.000000
   206  O2    s     0.759748    0.884303    0.301140    0.000000
   207  O2    s     0.064841    0.854645    0.634970    0.000000
   208  O2    s     0.845287    0.761355    0.466730    0.000000
   209  O2    s     0.194413    0.075488    0.800129    0.000000
   210  O2    s     0.881973    0.110310    0.130600    0.000000
   211  O3    s     0.181216    0.099559    0.361956    0.000000
   212  O2    s     0.898284    0.786829    0.026796    0.000000
   213  O2    s     0.852345    0.075846    0.694520    0.000000
   214  O2    s     0.758978    0.857668    0.855938    0.000000
   215  O2    s     0.057882    0.191096    0.528561    0.000000
   216  O2    s     0.098452    0.894847    0.195942    0.000000
   217  O2    s     0.900955    0.834337    0.247702    0.000000
   218  O2    s     0.103299    0.042440    0.581451    0.000000
   219  O3    s     0.912867    0.037559    0.910367    0.000000
   220  O2    s     0.050612    0.123721    0.746027    0.000000
   221  O2    s     0.832629    0.909277    0.083369    0.000000
   222  O2    s     0.041987    0.906439    0.415038    0.000000
   223  O3    s     0.894619    0.203143    0.972600    0.000000
   224  O2    s     0.761659    0.679691    0.312767    0.000000
   225  O2    s     0.266333    0.067945    0.646286    0.000000
   226  O2    s     0.057888    0.772085    0.480843    0.000000
   227  O2    s     0.183112    0.276618    0.812705    0.000000
   228  O2    s     0.680510    0.898801    0.147189    0.000000
   229  O2    s     0.189757    0.900752    0.350551    0.000000
   230  O2    s     0.691533    0.792252    0.011905    0.000000
   231  O2    s     0.065767    0.275878    0.681150    0.000000
   232  O2    s     0.774204    0.071749    0.848697    0.000000
   233  O2    s     0.262679    0.186920    0.520167    0.000000
   234  O2    s     0.885760    0.693971    0.178424    0.000000
   235  O2    s     0.303059    0.644812    0.246223    0.000000
   236  O2    s     0.312695    0.649188    0.580558    0.000000
   237  O2    s     0.305302    0.656579    0.911840    0.000000
   238  O2    s     0.648631    0.323152    0.748186    0.000000
   239  O3    s     0.617371    0.304092    0.085478    0.000000
   240  O2    s     0.638279    0.308193    0.415300    0.000000
   241  O2    s     0.369340    0.337658    0.964017    0.000000
   242  O2    s     0.643482    0.020617    0.299770    0.000000
   243  O2    s     0.933748    0.600501    0.633127    0.000000
   244  O2    s     0.586808    0.635676    0.464765    0.000000
   245  O2    s     0.315775    0.943064    0.798474    0.000000
   246  O2    s     0.011557    0.366404    0.127797    0.000000
   247  O3    s     0.299008    0.364722    0.358172    0.000000
   248  O2    s     0.020574    0.652684    0.027093    0.000000
   249  O2    s     0.597022    0.944294    0.695729    0.000000
   250  O2    s     0.637737    0.606325    0.859774    0.000000
   251  O2    s     0.929411    0.317477    0.529220    0.000000
   252  O2    s     0.355696    0.023690    0.197277    0.000000
   253  O3    s     0.756585    0.286951    0.004555    0.000000
   254  O2    s     0.656626    0.444471    0.345217    0.000000
   255  O2    s     0.506753    0.200784    0.678198    0.000000
   256  O2    s     0.187612    0.663974    0.511523    0.000000
   257  O2    s     0.287437    0.514946    0.842529    0.000000
   258  O2    s     0.440461    0.767265    0.177098    0.000000
   259  O2    s     0.285913    0.764924    0.316185    0.000000
   260  O2    s     0.451964    0.683778    0.980528    0.000000
   261  O2    s     0.196367    0.512951    0.649868    0.000000
   262  O2    s     0.668104    0.204186    0.817564    0.000000
   263  O2    s     0.499267    0.288752    0.484248    0.000000
   264  O2    s     0.752419    0.454457    0.147531    0.000000
   265  O3    s     0.777349    0.544435    0.021246    0.000000
   266  O3    s     0.447802    0.228538    0.357411    0.000000
   267  O2    s     0.717962    0.191012    0.695513    0.000000
   268  O2    s     0.176657    0.443148    0.528126    0.000000
   269  O2    s     0.508436    0.724917    0.858555    0.000000
   270  O2    s     0.230127    0.777169    0.195967    0.000000
   271  O2    s     0.507934    0.774841    0.300050    0.000000
   272  O2    s     0.243799    0.460984    0.966207    0.000000
   273  O2    s     0.181148    0.719335    0.633720    0.000000
   274  O2    s     0.445860    0.189913    0.800074    0.000000
   275  O2    s     0.700516    0.508043    0.465612    0.000000
   276  O2    s     0.766388    0.246018    0.128489    0.000000
   277  O2    s     0.219972    0.321123    0.895812    0.000000
   278  O2    s     0.643811    0.890912    0.230064    0.000000
   279  O2    s     0.060722    0.736261    0.563911    0.000000
   280  O2    s     0.717322    0.639732    0.396344    0.000000
   281  O2    s     0.306782    0.069867    0.729299    0.000000
   282  O2    s     0.886190    0.230438    0.058384    0.000000
   283  O3    s     0.289196    0.207870    0.438966    0.000000
   284  O2    s     0.880494    0.651048    0.095082    0.000000
   285  O2    s     0.735786    0.073561    0.765767    0.000000
   286  O2    s     0.650174    0.748426    0.928390    0.000000
   287  O2    s     0.060621    0.310862    0.598607    0.000000
   288  O2    s     0.222390    0.901457    0.266812    0.000000
   289  O2    s     0.571731    0.556688    0.983074    0.000000
   290  O2    s     0.426170    0.007184    0.320144    0.000000
   291  O2    s     0.949501    0.397119    0.651908    0.000000
   292  O2    s     0.383298    0.418832    0.483761    0.000000
   293  O2    s     0.535635    0.957863    0.817790    0.000000
   294  O2    s     0.996129    0.567485    0.145579    0.000000
   295  O2    s     0.522415    0.555560    0.342499    0.000000
   296  O2    s     0.999295    0.434270    0.007326    0.000000
   297  O2    s     0.388875    0.954468    0.676314    0.000000
   298  O2    s     0.419303    0.397588    0.844190    0.000000
   299  O2    s     0.939964    0.536674    0.511268    0.000000
   300  O2    s     0.563946    0.013607    0.178764    0.000000
   301  O2    s     0.558234    0.139236    0.250127    0.000000
   302  O2    s     0.813766    0.399231    0.581936    0.000000
   303  O2    s     0.568611    0.417674    0.913677    0.000000
   304  O2    s     0.396683    0.825801    0.746680    0.000000
   305  O2    s     0.129114    0.563571    0.078097    0.000000
   306  O2    s     0.386366    0.552235    0.413450    0.000000
   307  F     s     0.430765    0.888900    0.246621    0.000000
   308  F     s     0.064228    0.524173    0.579665    0.000000
   309  F     s     0.428937    0.538658    0.911351    0.000000
   310  F     s     0.524168    0.076697    0.746559    0.000000
   311  F     s     0.835336    0.426085    0.067531    0.000000
   312  F     s     0.466344    0.385046    0.406905    0.000000
--------------------------------------------------------------------------------

  Final Cartesian lattice vectors (Angstroms) :

       11.938063   -0.003405   -0.018226
       -6.092043   10.397619    0.012565
       -0.304564   -0.343741   29.501872


  Final cell parameters and derivatives :

--------------------------------------------------------------------------------
       a           11.938077 Angstrom     dE/de1(xx)     0.000371 eV/strain
       b           12.050877 Angstrom     dE/de2(yy)     0.000353 eV/strain
       c           29.505447 Angstrom     dE/de3(zz)     0.000541 eV/strain
       alpha       90.217212 Degrees      dE/de4(yz)    -0.000028 eV/strain
       beta        90.678712 Degrees      dE/de5(xz)    -0.000096 eV/strain
       gamma      120.382750 Degrees      dE/de6(xy)    -0.000067 eV/strain
--------------------------------------------------------------------------------

  Primitive cell volume =          3661.335430 Angs**3

  Density of cell =      1.747475 g/cm**3

  Non-primitive cell volume =          3661.335430 Angs**3


  Final internal derivatives :

--------------------------------------------------------------------------------
   No.  Atomic          a             b             c           Radius
        Label          (eV)          (eV)          (eV)        (eV/Angs)
--------------------------------------------------------------------------------
      1 Ge    c       0.000000      0.000000      0.000000      0.000000
      2 Si    c      -0.000100      0.000050      0.000067      0.000000
      3 Si    c      -0.000097      0.000156     -0.000133      0.000000
      4 Si    c       0.000111     -0.000203      0.000159      0.000000
      5 Si    c       0.000128     -0.000105      0.000203      0.000000
      6 Si    c       0.000007     -0.000058     -0.000127      0.000000
      7 Si    c       0.000107     -0.000110      0.000011      0.000000
      8 Si    c       0.000014      0.000050     -0.000326      0.000000
      9 Si    c       0.000170     -0.000162     -0.000017      0.000000
     10 Si    c      -0.000182      0.000127     -0.000126      0.000000
     11 Si    c      -0.000098      0.000156      0.000226      0.000000
     12 Si    c       0.000399      0.000381      0.000473      0.000000
     13 Si    c       0.000258     -0.000086      0.000283      0.000000
     14 Si    c      -0.000175      0.000124      0.000292      0.000000
     15 Si    c      -0.000242      0.000181      0.000150      0.000000
     16 Si    c       0.000042     -0.000105      0.000243      0.000000
     17 Si    c       0.000020      0.000038     -0.000194      0.000000
     18 Si    c      -0.000228      0.000193     -0.000683      0.000000
     19 Si    c       0.000044     -0.000016     -0.000220      0.000000
     20 Si    c      -0.000375      0.000157      0.000424      0.000000
     21 Si    c       0.000045     -0.000029      0.000146      0.000000
     22 Si    c      -0.000299      0.000130      0.000366      0.000000
     23 Si    c      -0.000192      0.000203      0.000241      0.000000
     24 Si    c      -0.000293     -0.000017      0.000553      0.000000
     25 Si    c       0.000385     -0.000314      0.000134      0.000000
     26 Si    c       0.000029     -0.000018     -0.000382      0.000000
     27 Si    c      -0.000176      0.000201     -0.000090      0.000000
     28 Si    c      -0.000021     -0.000041     -0.000147      0.000000
     29 Si    c      -0.000132      0.000089      0.000169      0.000000
     30 Si    c      -0.000104      0.000192      0.000908      0.000000
     31 Si    c       0.000051     -0.000018      0.000311      0.000000
     32 Si    c      -0.000155     -0.000437     -0.001384      0.000000
     33 Si    c      -0.000025     -0.000012     -0.000092      0.000000
     34 Si    c       0.000048     -0.000074     -0.000009      0.000000
     35 Si    c       0.000141     -0.000215      0.000117      0.000000
     36 Si    c      -0.000156      0.000151     -0.000027      0.000000
     37 Si    c       0.000389     -0.000416     -0.000217      0.000000
     38 Si    c       0.000094     -0.000191      0.000223      0.000000
     39 Si    c      -0.000155      0.000174     -0.000029      0.000000
     40 Si    c       0.000009      0.000003      0.000176      0.000000
     41 Si    c      -0.000129      0.000222      0.000126      0.000000
     42 Si    c       0.000045     -0.000069     -0.000692      0.000000
     43 Ge    c       0.000094     -0.000041      0.000037      0.000000
     44 Si    c       0.000325     -0.000235     -0.000566      0.000000
     45 Si    c       0.000010     -0.000049     -0.000078      0.000000
     46 Si    c       0.000043     -0.000343      0.000389      0.000000
     47 Si    c       0.000162     -0.000149      0.000075      0.000000
     48 Si    c      -0.000126      0.000059     -0.000207      0.000000
     49 Ge    c       0.000224     -0.000540     -0.000362      0.000000
     50 Si    c       0.000136     -0.000040     -0.000097      0.000000
     51 Si    c      -0.000024      0.000055      0.000019      0.000000
     52 Si    c       0.000114     -0.000015     -0.000096      0.000000
     53 Si    c       0.000336     -0.000281      0.000099      0.000000
     54 Si    c       0.000074     -0.000022     -0.000663      0.000000
     55 Si    c       0.000013     -0.000138      0.000034      0.000000
     56 Si    c       0.000066     -0.000057      0.000047      0.000000
     57 Si    c       0.000130     -0.000076      0.000021      0.000000
     58 Si    c       0.000278     -0.000127     -0.000216      0.000000
     59 Si    c       0.000030     -0.000057     -0.000008      0.000000
     60 Si    c       0.000098      0.000058     -0.000105      0.000000
     61 O3    c       0.000423      0.000058     -0.001631      0.000000
     62 O2    c       0.000170      0.000047     -0.000025      0.000000
     63 O2    c       0.000031     -0.000053     -0.000003      0.000000
     64 O2    c      -0.000005     -0.000055     -0.000014      0.000000
     65 O2    c       0.000072     -0.000174     -0.000373      0.000000
     66 O2    c       0.000101     -0.000115      0.000223      0.000000
     67 O2    c       0.000119     -0.000045     -0.000239      0.000000
     68 O2    c       0.000073     -0.000058      0.000020      0.000000
     69 O2    c      -0.000208      0.000338     -0.000143      0.000000
     70 O2    c      -0.000055      0.000069     -0.000115      0.000000
     71 O2    c      -0.000220     -0.000368      0.000389      0.000000
     72 O2    c      -0.000048      0.000123      0.000022      0.000000
     73 O3    c       0.000095      0.000121     -0.000744      0.000000
     74 O2    c      -0.000115      0.000074     -0.000075      0.000000
     75 O2    c       0.000013     -0.000001      0.000044      0.000000
     76 O2    c      -0.000006     -0.000115      0.000185      0.000000
     77 O2    c       0.000069     -0.000138      0.000042      0.000000
     78 O2    c      -0.000005      0.000076     -0.000179      0.000000
     79 O3    c       0.000096     -0.000035     -0.000076      0.000000
     80 O2    c      -0.000090     -0.000005     -0.000356      0.000000
     81 O2    c      -0.000013      0.000039     -0.000130      0.000000
     82 O2    c      -0.000007     -0.000047     -0.000004      0.000000
     83 O2    c      -0.000006      0.000153     -0.000208      0.000000
     84 O2    c       0.000065     -0.000236      0.000054      0.000000
     85 O3    c       0.000189     -0.000136      0.000131      0.000000
     86 O2    c      -0.000155     -0.000238      0.000216      0.000000
     87 O2    c       0.000071     -0.000053      0.000046      0.000000
     88 O2    c      -0.000007     -0.000236      0.000099      0.000000
     89 O2    c       0.000053     -0.000005      0.000155      0.000000
     90 O2    c       0.000003     -0.000083     -0.000174      0.000000
     91 O2    c       0.000046     -0.000088      0.000476      0.000000
     92 O2    c       0.000077     -0.000008      0.000097      0.000000
     93 O3    c       0.000221      0.000021      0.001424      0.000000
     94 O2    c       0.000074     -0.000023     -0.000743      0.000000
     95 O2    c      -0.000102      0.000093     -0.000139      0.000000
     96 O2    c       0.000029     -0.000171      0.000183      0.000000
     97 O3    c       0.000401     -0.000975     -0.000586      0.000000
     98 O2    c      -0.000052     -0.000013      0.000068      0.000000
     99 O2    c      -0.000134      0.000030      0.000208      0.000000
    100 O2    c      -0.000125     -0.000001      0.000258      0.000000
    101 O2    c       0.000322     -0.000152      0.000037      0.000000
    102 O2    c       0.000157      0.000128      0.000140      0.000000
    103 O2    c      -0.000084      0.000177     -0.000483      0.000000
    104 O2    c       0.000211     -0.000193      0.000198      0.000000
    105 O2    c       0.000040     -0.000068     -0.000347      0.000000
    106 O2    c      -0.000036     -0.000090     -0.000324      0.000000
    107 O2    c      -0.000004     -0.000001     -0.000066      0.000000
    108 O2    c       0.000028      0.000218      0.000636      0.000000
    109 O2    c       0.000003     -0.000104     -0.000283      0.000000
    110 O2    c       0.000132     -0.000105      0.000171      0.000000
    111 O2    c       0.000182     -0.000128     -0.000076      0.000000
    112 O2    c      -0.000074      0.000093     -0.000242      0.000000
    113 O3    c       0.000186      0.000435      0.001713      0.000000
    114 O2    c      -0.000032      0.000064      0.000098      0.000000
    115 O2    c       0.000138     -0.000076      0.000137      0.000000
    116 O2    c       0.000075     -0.000045     -0.000004      0.000000
    117 O2    c      -0.000104      0.000165      0.000051      0.000000
    118 O2    c      -0.000035     -0.000074      0.000121      0.000000
    119 O2    c      -0.000041      0.000104      0.000114      0.000000
    120 O2    c       0.000001      0.000135      0.000034      0.000000
    121 O3    c      -0.000029      0.000011     -0.000142      0.000000
    122 O2    c      -0.000270      0.000003      0.000126      0.000000
    123 O2    c       0.000059     -0.000077     -0.000119      0.000000
    124 O2    c      -0.000084      0.000263      0.000130      0.000000
    125 O2    c       0.000047     -0.000073     -0.000272      0.000000
    126 O2    c      -0.000059      0.000109     -0.000119      0.000000
    127 O3    c       0.000084     -0.000109      0.001312      0.000000
    128 O2    c      -0.000031     -0.000004     -0.000019      0.000000
    129 O2    c      -0.000105      0.000061     -0.000152      0.000000
    130 O2    c      -0.000036     -0.000004     -0.000353      0.000000
    131 O2    c       0.000206     -0.000111     -0.000409      0.000000
    132 O2    c      -0.000071     -0.000019     -0.000138      0.000000
    133 O2    c      -0.000037      0.000071      0.000193      0.000000
    134 O2    c      -0.000052      0.000011      0.000213      0.000000
    135 O2    c       0.000082     -0.000040      0.000055      0.000000
    136 O2    c      -0.000024      0.000015      0.000223      0.000000
    137 O2    c       0.000039      0.000060      0.000059      0.000000
    138 O2    c       0.000226     -0.000072     -0.000286      0.000000
    139 O3    c       0.000087     -0.000267      0.000918      0.000000
    140 O3    c       0.000032     -0.000028     -0.000108      0.000000
    141 O2    c       0.000000     -0.000069     -0.000162      0.000000
    142 O2    c       0.000047     -0.000130     -0.000072      0.000000
    143 O2    c       0.000189     -0.000140     -0.000251      0.000000
    144 O2    c      -0.000095      0.000197     -0.000377      0.000000
    145 O2    c       0.000118      0.000037     -0.000086      0.000000
    146 O2    c       0.000181     -0.000105      0.000070      0.000000
    147 O2    c      -0.000076      0.000117      0.000247      0.000000
    148 O2    c      -0.000148      0.000067      0.000057      0.000000
    149 O2    c      -0.000043      0.000040      0.000072      0.000000
    150 O2    c      -0.000224      0.000115      0.000204      0.000000
    151 O2    c       0.000370     -0.000264     -0.000037      0.000000
    152 O2    c       0.000125     -0.000035      0.000141      0.000000
    153 O2    c      -0.000140      0.000097     -0.000164      0.000000
    154 O2    c       0.000044      0.000026     -0.000111      0.000000
    155 O2    c      -0.000043      0.000071     -0.000086      0.000000
    156 O2    c      -0.000080      0.000054      0.000456      0.000000
    157 O3    c       0.000048     -0.000143      0.000074      0.000000
    158 O2    c       0.000492     -0.000197     -0.000830      0.000000
    159 O2    c       0.000005     -0.000040      0.000054      0.000000
    160 O2    c       0.000255     -0.000236      0.000331      0.000000
    161 O2    c       0.000098     -0.000094      0.000089      0.000000
    162 O2    c       0.000034      0.000018      0.000487      0.000000
    163 O2    c      -0.000129     -0.000085      0.000245      0.000000
    164 O2    c      -0.000216      0.000075     -0.000058      0.000000
    165 O2    c      -0.000017     -0.000026      0.000244      0.000000
    166 O2    c       0.000096      0.000032      0.000084      0.000000
    167 O2    c       0.000049      0.000058      0.000046      0.000000
    168 O2    c      -0.000074      0.000110     -0.000131      0.000000
    169 O2    c      -0.000103     -0.000106     -0.000126      0.000000
    170 O2    c      -0.000139      0.000029      0.000662      0.000000
    171 O2    c       0.000018      0.000050     -0.000225      0.000000
    172 O2    c       0.000006      0.000065     -0.000273      0.000000
    173 O2    c      -0.000161      0.000084     -0.000122      0.000000
    174 O2    c       0.000038     -0.000190     -0.000391      0.000000
    175 O2    c      -0.000186      0.000267      0.000002      0.000000
    176 O2    c      -0.000147      0.000130     -0.000247      0.000000
    177 O2    c      -0.000155      0.000190      0.000123      0.000000
    178 O2    c       0.000058     -0.000041     -0.000017      0.000000
    179 O2    c      -0.000189      0.000172      0.000042      0.000000
    180 O2    c       0.000020     -0.000005     -0.000073      0.000000
    181 F     c      -0.000024     -0.000009     -0.000265      0.000000
    182 F     c      -0.000008     -0.000010     -0.000029      0.000000
    183 F     c       0.000030     -0.000010     -0.000137      0.000000
    184 F     c       0.000022     -0.000010     -0.000091      0.000000
    185 F     c       0.000106     -0.000362     -0.000219      0.000000
    186 F     c       0.000054     -0.000031      0.000191      0.000000
    187 O3    s      -0.000027      0.000150      0.000479      0.000000
    188 O2    s      -0.000161      0.000180      0.000149      0.000000
    189 O2    s      -0.000027      0.000060     -0.000135      0.000000
    190 O2    s      -0.000074      0.000023     -0.000141      0.000000
    191 O2    s      -0.000458      0.000100     -0.000469      0.000000
    192 O2    s      -0.000247      0.000205      0.000082      0.000000
    193 O2    s      -0.000011      0.000042      0.000259      0.000000
    194 O2    s      -0.000116      0.000076     -0.000152      0.000000
    195 O2    s       0.000439     -0.000413     -0.000283      0.000000
    196 O2    s      -0.000087     -0.000005     -0.000148      0.000000
    197 O2    s       0.000104      0.000519      0.000948      0.000000
    198 O2    s       0.000094     -0.000115      0.000076      0.000000
    199 O3    s      -0.000423     -0.000092      0.001582      0.000000
    200 O2    s       0.000189     -0.000230      0.000010      0.000000
    201 O2    s       0.000075     -0.000195      0.000336      0.000000
    202 O2    s      -0.000106      0.000052     -0.000164      0.000000
    203 O2    s       0.000053      0.000274      0.000137      0.000000
    204 O2    s       0.000080     -0.000014     -0.000072      0.000000
    205 O3    s      -0.000630      0.000441     -0.000227      0.000000
    206 O2    s      -0.000189     -0.000065      0.000268      0.000000
    207 O2    s       0.000019      0.000000      0.000215      0.000000
    208 O2    s      -0.000028      0.000078      0.000006      0.000000
    209 O2    s       0.000114     -0.000034     -0.000076      0.000000
    210 O2    s      -0.000002      0.000151      0.000978      0.000000
    211 O3    s      -0.000035      0.000121      0.000252      0.000000
    212 O2    s      -0.000338      0.000047     -0.000241      0.000000
    213 O2    s      -0.000020      0.000026     -0.000068      0.000000
    214 O2    s      -0.000186      0.000320     -0.000812      0.000000
    215 O2    s      -0.000010      0.000006     -0.000142      0.000000
    216 O2    s      -0.000087      0.000069      0.000485      0.000000
    217 O2    s      -0.000137      0.000018      0.000374      0.000000
    218 O2    s       0.000092      0.000065     -0.000027      0.000000
    219 O3    s      -0.000140      0.000380     -0.000818      0.000000
    220 O2    s      -0.000215      0.000313      0.000113      0.000000
    221 O2    s       0.000165     -0.000113      0.000248      0.000000
    222 O2    s       0.000004      0.000024     -0.000119      0.000000
    223 O3    s       0.000163     -0.000108     -0.000838      0.000000
    224 O2    s      -0.000066      0.000242     -0.000066      0.000000
    225 O2    s       0.000090     -0.000069     -0.000235      0.000000
    226 O2    s       0.000079     -0.000110     -0.000081      0.000000
    227 O2    s      -0.000578      0.000232     -0.000160      0.000000
    228 O2    s       0.000111     -0.000282     -0.000119      0.000000
    229 O2    s      -0.000012     -0.000116      0.000036      0.000000
    230 O2    s      -0.000109     -0.000011      0.000494      0.000000
    231 O2    s      -0.000179      0.000053      0.000352      0.000000
    232 O2    s       0.000170      0.000029     -0.000120      0.000000
    233 O2    s      -0.000063     -0.000002     -0.000057      0.000000
    234 O2    s      -0.000023     -0.000014      0.000425      0.000000
    235 O2    s       0.000111     -0.000050      0.000280      0.000000
    236 O2    s      -0.000215      0.000140     -0.000083      0.000000
    237 O2    s      -0.000329      0.000367     -0.000193      0.000000
    238 O2    s       0.000084     -0.000064     -0.000010      0.000000
    239 O3    s      -0.000254     -0.000999     -0.000476      0.000000
    240 O2    s       0.000231     -0.000267      0.000117      0.000000
    241 O2    s      -0.000204      0.000264      0.000105      0.000000
    242 O2    s      -0.000034     -0.000073      0.000119      0.000000
    243 O2    s       0.000098     -0.000174      0.000120      0.000000
    244 O2    s      -0.000050      0.000189      0.000147      0.000000
    245 O2    s       0.000114     -0.000072     -0.000110      0.000000
    246 O2    s       0.000139     -0.000219      0.000191      0.000000
    247 O3    s      -0.000076      0.000054      0.000156      0.000000
    248 O2    s      -0.000310      0.000115     -0.000254      0.000000
    249 O2    s       0.000032     -0.000037     -0.000221      0.000000
    250 O2    s       0.000100     -0.000214     -0.000817      0.000000
    251 O2    s      -0.000067      0.000081      0.000036      0.000000
    252 O2    s       0.000039     -0.000150      0.000072      0.000000
    253 O3    s      -0.000022      0.000428     -0.002007      0.000000
    254 O2    s       0.000058      0.000035      0.000227      0.000000
    255 O2    s       0.000144     -0.000043     -0.000203      0.000000
    256 O2    s      -0.000026     -0.000039      0.000221      0.000000
    257 O2    s      -0.000358      0.000234      0.000178      0.000000
    258 O2    s       0.000109     -0.000134     -0.000002      0.000000
    259 O2    s      -0.000010      0.000030     -0.000185      0.000000
    260 O2    s       0.000182     -0.000086     -0.000339      0.000000
    261 O2    s      -0.000122      0.000139      0.000036      0.000000
    262 O2    s       0.000018     -0.000075     -0.000308      0.000000
    263 O2    s       0.000026     -0.000186      0.000265      0.000000
    264 O2    s      -0.000013     -0.000025      0.000449      0.000000
    265 O3    s      -0.000268      0.000277     -0.000492      0.000000
    266 O3    s      -0.000010     -0.000050      0.000160      0.000000
    267 O2    s       0.000053     -0.000001     -0.000134      0.000000
    268 O2    s      -0.000056      0.000108     -0.000171      0.000000
    269 O2    s      -0.000044      0.000278      0.000086      0.000000
    270 O2    s       0.000104     -0.000225      0.000247      0.000000
    271 O2    s       0.000032     -0.000041     -0.000029      0.000000
    272 O2    s      -0.000139      0.000063     -0.000369      0.000000
    273 O2    s       0.000035     -0.000132     -0.000228      0.000000
    274 O2    s       0.000143     -0.000088     -0.000121      0.000000
    275 O2    s       0.000058     -0.000074      0.000142      0.000000
    276 O2    s       0.000083      0.000051      0.000554      0.000000
    277 O2    s      -0.000505      0.000567      0.000185      0.000000
    278 O2    s      -0.000126     -0.000039      0.000126      0.000000
    279 O2    s       0.000153     -0.000198      0.000250      0.000000
    280 O2    s      -0.000087      0.000004     -0.000166      0.000000
    281 O2    s       0.000093     -0.000017     -0.000056      0.000000
    282 O2    s       0.000000      0.000032      0.000260      0.000000
    283 O3    s      -0.000103      0.000077     -0.000126      0.000000
    284 O2    s      -0.000307      0.000252      0.000185      0.000000
    285 O2    s       0.000009     -0.000088     -0.000043      0.000000
    286 O2    s      -0.000472      0.000401      0.000170      0.000000
    287 O2    s      -0.000130      0.000162     -0.000069      0.000000
    288 O2    s      -0.000088     -0.000019      0.000154      0.000000
    289 O2    s       0.000027      0.000279     -0.000122      0.000000
    290 O2    s       0.000089     -0.000116      0.000439      0.000000
    291 O2    s       0.000041      0.000027     -0.000254      0.000000
    292 O2    s      -0.000197      0.000069      0.000154      0.000000
    293 O2    s       0.000041     -0.000136      0.000079      0.000000
    294 O2    s       0.000036     -0.000324      0.000207      0.000000
    295 O2    s       0.000157      0.000128      0.000397      0.000000
    296 O2    s       0.000542     -0.000247     -0.000787      0.000000
    297 O2    s       0.000050     -0.000069     -0.000050      0.000000
    298 O2    s       0.000133     -0.000079      0.000116      0.000000
    299 O2    s       0.000193     -0.000155     -0.000107      0.000000
    300 O2    s      -0.000201      0.000206      0.000465      0.000000
    301 O2    s       0.000050     -0.000291      0.000050      0.000000
    302 O2    s       0.000206     -0.000214      0.000091      0.000000
    303 O2    s       0.000277     -0.000273     -0.000405      0.000000
    304 O2    s       0.000060     -0.000036     -0.000142      0.000000
    305 O2    s       0.000317     -0.000332     -0.000137      0.000000
    306 O2    s      -0.000163      0.000200      0.000002      0.000000
    307 F     s       0.000035     -0.000025     -0.000218      0.000000
    308 F     s      -0.000009      0.000020      0.000018      0.000000
    309 F     s      -0.000026      0.000079      0.000304      0.000000
    310 F     s       0.000026     -0.000012     -0.000007      0.000000
    311 F     s      -0.000102      0.000450      0.000350      0.000000
    312 F     s      -0.000021      0.000047     -0.000100      0.000000
--------------------------------------------------------------------------------
  Maximum abs         0.000630      0.000999      0.002007      0.000000
--------------------------------------------------------------------------------


  Time to end of optimisation =      85.1707 seconds


  Peak dynamic memory used =      19.13 MB 


  Timing analysis for GULP :

--------------------------------------------------------------------------------
  Task / Subroutine                                          Time (Seconds)
--------------------------------------------------------------------------------
  Calculation of reciprocal space energy and derivatives          2.4517
  Calculation of real space energy and derivatives               72.6493
  Calculation of three-body energy and derivatives                8.5978
  Calculation of matrix inversion                                 1.0280
--------------------------------------------------------------------------------
  Total CPU time                                                 85.1707
--------------------------------------------------------------------------------


  Dump file written as out.res                                                 
  CIF file written as out.cif                                                 


  Job Finished at 19:10.20 30th November   2016                               

