********************************************************************************
*                       GENERAL UTILITY LATTICE PROGRAM                        *
*                                 Julian Gale                                  *
*                      Nanochemistry Research Institute                        *
*                           Department of Chemistry                            *
*                    Curtin University, Western Australia                      *
********************************************************************************
* Version = 4.2.0 * Last modified =  20th January 2014                         *
********************************************************************************
*  optimise     - perform optimisation run                                     *
*  conp         - constant pressure calculation                                *
*  qok          - running with non charge neutral cell is OK                   *
********************************************************************************

  Job Started  at 12:40.07 30th November   2016                               

  Number of CPUs =     1


  Total number of configurations input =   1

********************************************************************************
*  Input for Configuration =   1                                               *
********************************************************************************

  Formula = Ge3Si57O120F6                                               

  Number of irreducible atoms/shells =     312


  Total number atoms/shells =     312

  Dimensionality = 3               :  Bulk   


  Charge on solid   =  -6.000000 =>neutralising background added


  Cartesian lattice vectors (Angstroms) :

       11.952848    0.000000    0.000000
       -6.030423   10.392489    0.000000
       -0.137874   -0.215221   29.489811

  Cell parameters (Angstroms/Degrees):

  a =      11.9528    alpha =  90.2272
  b =      12.0154    beta  =  90.2679
  c =      29.4909    gamma = 120.1252

  Initial cell volume =        3663.219861 Angs**3

  Temperature of configuration =  0.000     K 

  Pressure of configuration =         0.000 GPa 

  Fractional coordinates of asymmetric unit :

--------------------------------------------------------------------------------
   No.  Atomic       x           y          z         Charge      Occupancy
        Label      (Frac)      (Frac)     (Frac)        (e)         (Frac)  
--------------------------------------------------------------------------------
      1 Ge    c    0.699600    0.375700    0.033890     4.00000    1.000000    
      2 Si    c    0.619499 *  0.320378 *  0.366051 *   4.00000    1.000000    
      3 Si    c    0.677838 *  0.297981 *  0.697447 *   4.00000    1.000000    
      4 Si    c    0.295688 *  0.620894 *  0.529146 *   4.00000    1.000000    
      5 Si    c    0.374112 *  0.673187 *  0.860438 *   4.00000    1.000000    
      6 Si    c    0.318122 *  0.700076 *  0.195411 *   4.00000    1.000000    
      7 Si    c    0.367996 *  0.693545 *  0.296476 *   4.00000    1.000000    
      8 Si    c    0.319665 *  0.625482 *  0.960849 *   4.00000    1.000000    
      9 Si    c    0.298687 *  0.676889 *  0.629849 *   4.00000    1.000000    
     10 Si    c    0.621611 *  0.295609 *  0.797893 *   4.00000    1.000000    
     11 Si    c    0.676290 *  0.383501 *  0.465997 *   4.00000    1.000000    
     12 Si    c    0.686800 *  0.315552 *  0.132083 *   4.00000    1.000000    
     13 Si    c    0.534137 *  0.422287 *  0.965260 *   4.00000    1.000000    
     14 Si    c    0.576488 *  0.107397 *  0.302045 *   4.00000    1.000000    
     15 Si    c    0.887818 *  0.471156 *  0.632834 *   4.00000    1.000000    
     16 Si    c    0.467382 *  0.585119 *  0.463161 *   4.00000    1.000000    
     17 Si    c    0.416180 *  0.884649 *  0.796272 *   4.00000    1.000000    
     18 Si    c    0.108083 *  0.530513 *  0.127356 *   4.00000    1.000000    
     19 Si    c    0.412299 *  0.526469 *  0.361544 *   4.00000    1.000000    
     20 Si    c    0.103606 *  0.582552 *  0.024381 *   4.00000    1.000000    
     21 Si    c    0.470959 *  0.888363 *  0.694737 *   4.00000    1.000000    
     22 Si    c    0.580955 *  0.467199 *  0.862744 *   4.00000    1.000000    
     23 Si    c    0.886279 *  0.418882 *  0.531177 *   4.00000    1.000000    
     24 Si    c    0.528373 *  0.110085 *  0.200607 *   4.00000    1.000000    
     25 Si    c    0.298300 *  0.395863 *  0.847832 *   4.00000    1.000000    
     26 Si    c    0.599505 *  0.902112 *  0.184687 *   4.00000    1.000000    
     27 Si    c    0.093806 *  0.698052 *  0.516035 *   4.00000    1.000000    
     28 Si    c    0.692448 *  0.594033 *  0.348184 *   4.00000    1.000000    
     29 Si    c    0.399316 *  0.096637 *  0.681379 *   4.00000    1.000000    
     30 Si    c    0.888688 *  0.295708 *  0.008657 *   4.00000    1.000000    
     31 Si    c    0.396753 *  0.306420 *  0.479819 *   4.00000    1.000000    
     32 Si    c    0.893017 *  0.600458 *  0.142020 *   4.00000    1.000000    
     33 Si    c    0.697920 *  0.094317 *  0.811698 *   4.00000    1.000000    
     34 Si    c    0.598527 *  0.702662 *  0.975232 *   4.00000    1.000000    
     35 Si    c    0.098070 *  0.399934 *  0.645400 *   4.00000    1.000000    
     36 Si    c    0.294494 *  0.896254 *  0.312375 *   4.00000    1.000000    
     37 Si    c    0.254801 *  0.347967 *  0.948420 *   4.00000    1.000000    
     38 Si    c    0.650237 *  0.904719 *  0.285714 *   4.00000    1.000000    
     39 Si    c    0.088981 *  0.749287 *  0.616733 *   4.00000    1.000000    
     40 Si    c    0.746864 *  0.662295 *  0.448093 *   4.00000    1.000000    
     41 Si    c    0.340125 *  0.086527 *  0.781760 *   4.00000    1.000000    
     42 Si    c    0.902702 *  0.248318 *  0.111165 *   4.00000    1.000000    
     43 Si    c    0.339102 *  0.250814 *  0.379241 *   4.00000    1.000000    
     44 Si    c    0.897315 *  0.659068 *  0.039731 *   4.00000    1.000000    
     45 Si    c    0.750043 *  0.089927 *  0.711144 *   4.00000    1.000000    
     46 Si    c    0.655415 *  0.745823 *  0.874507 *   4.00000    1.000000    
     47 Si    c    0.087150 *  0.340700 *  0.544727 *   4.00000    1.000000    
     48 Si    c    0.247671 *  0.908537 *  0.211659 *   4.00000    1.000000    
     49 Ge    c    0.974390 *  0.122511 *  0.961294 *   4.00000    1.000000    
     50 Ge    c    0.872859 *  0.843789 *  0.297659 *   4.00000    1.000000    
     51 Si    c    0.150890 *  0.029098 *  0.630288 *   4.00000    1.000000    
     52 Si    c    0.027823 *  0.878960 *  0.464835 *   4.00000    1.000000    
     53 Si    c    0.121776 *  0.147537 *  0.795569 *   4.00000    1.000000    
     54 Si    c    0.844668 *  0.971278 *  0.130279 *   4.00000    1.000000    
     55 Si    c    0.121956 *  0.970196 *  0.364139 *   4.00000    1.000000    
     56 Si    c    0.844601 *  0.880861 *  0.028873 *   4.00000    1.000000    
     57 Si    c    0.030366 *  0.151863 *  0.694800 *   4.00000    1.000000    
     58 Si    c    0.876881 *  0.020839 *  0.859322 *   4.00000    1.000000    
     59 Si    c    0.149272 *  0.123401 *  0.529849 *   4.00000    1.000000    
     60 Si    c    0.969953 *  0.851693 *  0.193738 *   4.00000    1.000000    
     61 O3    c    0.933820 *  0.006440 *  0.001389 *   1.33043    1.000000    
     62 O3    c    0.003293 *  0.936139 *  0.331768 *   1.33043    1.000000    
     63 O2    c    0.068994 *  0.071590 *  0.661251 *   0.87073    1.000000    
     64 O2    c    0.070431 *  0.002354 *  0.496650 *   0.87073    1.000000    
     65 O2    c    0.995710 *  0.063864 *  0.825341 *   0.87073    1.000000    
     66 O2    c    0.933250 *  0.936207 *  0.161312 *   0.87073    1.000000    
     67 O2    c    0.331999 *  0.570260 *  0.328418 *   0.87073    1.000000    
     68 O2    c    0.423548 *  0.763529 *  0.661959 *   0.87073    1.000000    
     69 O2    c    0.230453 *  0.660416 *  0.993043 *   0.87073    1.000000    
     70 O2    c    0.657934 *  0.417338 *  0.830981 *   0.87073    1.000000    
     71 O2    c    0.580400 *  0.238443 *  0.170658 *   0.87073    1.000000    
     72 O2    c    0.758610 *  0.344076 *  0.499212 *   0.87073    1.000000    
     73 O3    c    0.567901 *  0.340467 *  0.998249 *   1.33043    1.000000    
     74 O2    c    0.763195 *  0.421968 *  0.665468 *   0.87073    1.000000    
     75 O2    c    0.655592 *  0.231140 *  0.335038 *   0.87073    1.000000    
     76 O2    c    0.417236 *  0.660525 *  0.495506 *   0.87073    1.000000    
     77 O2    c    0.233231 *  0.580671 *  0.160420 *   0.87073    1.000000    
     78 O2    c    0.336926 *  0.757976 *  0.827374 *   0.87073    1.000000    
     79 O3    c    0.136414 *  0.222696 *  0.970226 *   1.33043    1.000000    
     80 O3    c    0.773352 *  0.906399 *  0.307414 *   1.33043    1.000000    
     81 O2    c    0.088913 *  0.875621 *  0.636430 *   0.87073    1.000000    
     82 O2    c    0.872614 *  0.789751 *  0.468356 *   0.87073    1.000000    
     83 O2    c    0.213518 *  0.085638 *  0.801812 *   0.87073    1.000000    
     84 O2    c    0.906771 *  0.125962 *  0.132212 *   0.87073    1.000000    
     85 O2    c    0.215060 *  0.123419 *  0.359110 *   0.87073    1.000000    
     86 O2    c    0.911760 *  0.794241 *  0.023582 *   0.87073    1.000000    
     87 O2    c    0.875703 *  0.089685 *  0.690670 *   0.87073    1.000000    
     88 O2    c    0.781054 *  0.867855 *  0.852509 *   0.87073    1.000000    
     89 O2    c    0.084578 *  0.212930 *  0.524980 *   0.87073    1.000000    
     90 O2    c    0.124522 *  0.911484 *  0.189891 *   0.87073    1.000000    
     91 O3    c    0.928845 *  0.865520 *  0.243320 *   1.33043    1.000000    
     92 O2    c    0.137854 *  0.067108 *  0.579512 *   0.87073    1.000000    
     93 O3    c    0.935948 *  0.050342 *  0.909075 *   1.33043    1.000000    
     94 O2    c    0.075102 *  0.138238 *  0.744309 *   0.87073    1.000000    
     95 O2    c    0.843481 *  0.921139 *  0.080542 *   0.87073    1.000000    
     96 O2    c    0.070982 *  0.930037 *  0.414633 *   0.87073    1.000000    
     97 O3    c    0.896883 *  0.208272 *  0.969245 *   1.33043    1.000000    
     98 O3    c    0.788761 *  0.682001 *  0.308765 *   1.33043    1.000000    
     99 O2    c    0.302786 *  0.099515 *  0.642904 *   0.87073    1.000000    
    100 O2    c    0.095056 *  0.795983 *  0.478003 *   0.87073    1.000000    
    101 O2    c    0.200627 *  0.297613 *  0.809400 *   0.87073    1.000000    
    102 O2    c    0.696484 *  0.902237 *  0.146616 *   0.87073    1.000000    
    103 O2    c    0.197118 *  0.894381 *  0.350778 *   0.87073    1.000000    
    104 O2    c    0.695042 *  0.804298 *  0.013094 *   0.87073    1.000000    
    105 O2    c    0.100338 *  0.303315 *  0.683244 *   0.87073    1.000000    
    106 O2    c    0.796214 *  0.094065 *  0.850144 *   0.87073    1.000000    
    107 O2    c    0.301164 *  0.209454 *  0.518232 *   0.87073    1.000000    
    108 O2    c    0.898667 *  0.700338 *  0.180433 *   0.87073    1.000000    
    109 O2    c    0.314524 *  0.639090 *  0.245207 *   0.87073    1.000000    
    110 O2    c    0.354890 *  0.677402 *  0.579421 *   0.87073    1.000000    
    111 O2    c    0.316030 *  0.677808 *  0.910156 *   0.87073    1.000000    
    112 O2    c    0.678806 *  0.354272 *  0.747956 *   0.87073    1.000000    
    113 O3    c    0.613850 *  0.303678 *  0.085389 *   1.33043    1.000000    
    114 O2    c    0.676755 *  0.323266 *  0.416424 *   0.87073    1.000000    
    115 O2    c    0.377303 *  0.339018 *  0.965370 *   0.87073    1.000000    
    116 O2    c    0.661755 *  0.037291 *  0.304004 *   0.87073    1.000000    
    117 O2    c    0.957174 *  0.627272 *  0.635471 *   0.87073    1.000000    
    118 O2    c    0.624195 *  0.672993 *  0.465800 *   0.87073    1.000000    
    119 O2    c    0.329452 *  0.954028 *  0.799369 *   0.87073    1.000000    
    120 O2    c    0.034872 *  0.374773 *  0.128348 *   0.87073    1.000000    
    121 O2    c    0.326790 *  0.370304 *  0.359644 *   0.87073    1.000000    
    122 O2    c    0.031534 *  0.665866 *  0.023772 *   0.87073    1.000000    
    123 O2    c    0.627615 *  0.958028 *  0.692061 *   0.87073    1.000000    
    124 O2    c    0.664817 *  0.622568 *  0.857543 *   0.87073    1.000000    
    125 O2    c    0.953764 *  0.330693 *  0.526847 *   0.87073    1.000000    
    126 O2    c    0.372150 *  0.040511 *  0.194894 *   0.87073    1.000000    
    127 O3    c    0.752373 *  0.284581 *  0.001589 *   1.33043    1.000000    
    128 O2    c    0.693817 *  0.460613 *  0.342379 *   0.87073    1.000000    
    129 O2    c    0.534288 *  0.230258 *  0.674510 *   0.87073    1.000000    
    130 O2    c    0.226622 *  0.695995 *  0.507688 *   0.87073    1.000000    
    131 O2    c    0.299581 *  0.529480 *  0.838144 *   0.87073    1.000000    
    132 O2    c    0.463205 *  0.770562 *  0.174658 *   0.87073    1.000000    
    133 O2    c    0.291391 *  0.760556 *  0.318319 *   0.87073    1.000000    
    134 O2    c    0.464364 *  0.704104 *  0.982700 *   0.87073    1.000000    
    135 O2    c    0.232435 *  0.534542 *  0.652330 *   0.87073    1.000000    
    136 O2    c    0.697243 *  0.227472 *  0.819949 *   0.87073    1.000000    
    137 O2    c    0.532598 *  0.310415 *  0.487846 *   0.87073    1.000000    
    138 O2    c    0.762604 *  0.464790 *  0.150802 *   0.87073    1.000000    
    139 O3    c    0.770739 *  0.544937 *  0.018801 *   1.33043    1.000000    
    140 O2    c    0.463527 *  0.246942 *  0.360577 *   0.87073    1.000000    
    141 O2    c    0.752474 *  0.216957 *  0.692181 *   0.87073    1.000000    
    142 O2    c    0.213243 *  0.464866 *  0.524510 *   0.87073    1.000000    
    143 O2    c    0.530316 *  0.747902 *  0.854956 *   0.87073    1.000000    
    144 O2    c    0.243494 *  0.781113 *  0.191548 *   0.87073    1.000000    
    145 O2    c    0.523305 *  0.776941 *  0.303175 *   0.87073    1.000000    
    146 O2    c    0.247752 *  0.470954 *  0.967435 *   0.87073    1.000000    
    147 O2    c    0.216301 *  0.750200 *  0.635475 *   0.87073    1.000000    
    148 O2    c    0.465301 *  0.212552 *  0.801982 *   0.87073    1.000000    
    149 O2    c    0.749985 *  0.539582 *  0.468739 *   0.87073    1.000000    
    150 O2    c    0.779059 *  0.250902 *  0.131154 *   0.87073    1.000000    
    151 O2    c    0.225165 *  0.325473 *  0.894187 *   0.87073    1.000000    
    152 O2    c    0.670746 *  0.901087 *  0.231378 *   0.87073    1.000000    
    153 O2    c    0.089878 *  0.767806 *  0.562494 *   0.87073    1.000000    
    154 O2    c    0.766118 *  0.677360 *  0.393550 *   0.87073    1.000000    
    155 O2    c    0.323393 *  0.090129 *  0.727457 *   0.87073    1.000000    
    156 O2    c    0.899970 *  0.232589 *  0.056746 *   0.87073    1.000000    
    157 O2    c    0.322013 *  0.234883 *  0.433484 *   0.87073    1.000000    
    158 O2    c    0.892399 *  0.666698 *  0.095064 *   0.87073    1.000000    
    159 O2    c    0.769071 *  0.091013 *  0.765463 *   0.87073    1.000000    
    160 O2    c    0.673957 *  0.770579 *  0.928779 *   0.87073    1.000000    
    161 O2    c    0.091381 *  0.324654 *  0.598899 *   0.87073    1.000000    
    162 O2    c    0.225184 *  0.903723 *  0.265887 *   0.87073    1.000000    
    163 O2    c    0.585699 *  0.565988 *  0.985915 *   0.87073    1.000000    
    164 O2    c    0.433695 *  0.020385 *  0.323357 *   0.87073    1.000000    
    165 O2    c    0.973654 *  0.415035 *  0.655061 *   0.87073    1.000000    
    166 O2    c    0.411089 *  0.445930 *  0.487023 *   0.87073    1.000000    
    167 O2    c    0.557802 *  0.969209 *  0.819796 *   0.87073    1.000000    
    168 O2    c    0.016847 *  0.581622 *  0.147531 *   0.87073    1.000000    
    169 O2    c    0.553395 *  0.581973 *  0.338457 *   0.87073    1.000000    
    170 O2    c    0.011867 *  0.440796 *  0.003381 *   0.87073    1.000000    
    171 O2    c    0.413122 *  0.971781 *  0.671754 *   0.87073    1.000000    
    172 O2    c    0.436991 *  0.406049 *  0.840797 *   0.87073    1.000000    
    173 O2    c    0.967647 *  0.558815 *  0.507481 *   0.87073    1.000000    
    174 O2    c    0.590072 *  0.030275 *  0.177472 *   0.87073    1.000000    
    175 O2    c    0.577105 *  0.162183 *  0.251779 *   0.87073    1.000000    
    176 O2    c    0.833645 *  0.417908 *  0.581968 *   0.87073    1.000000    
    177 O2    c    0.587503 *  0.423867 *  0.914119 *   0.87073    1.000000    
    178 O2    c    0.417252 *  0.834117 *  0.745119 *   0.87073    1.000000    
    179 O2    c    0.151840 *  0.578677 *  0.075957 *   0.87073    1.000000    
    180 O2    c    0.413455 *  0.582425 *  0.412061 *   0.87073    1.000000    
    181 F     c    0.445452 *  0.899565 *  0.247867 *   0.56000    1.000000    
    182 F     c    0.095106 *  0.547560 *  0.580211 *   0.56000    1.000000    
    183 F     c    0.445778 *  0.552575 *  0.911146 *   0.56000    1.000000    
    184 F     c    0.549240 *  0.095936 *  0.746113 *   0.56000    1.000000    
    185 F     c    0.852326 *  0.433924 *  0.069378 *   0.56000    1.000000    
    186 F     c    0.548042 *  0.454873 *  0.412937 *   0.56000    1.000000    
    187 O3    s    0.927481 *  0.002697 *  0.000911 *  -3.33043    1.000000    
    188 O3    s    0.004721 *  0.931700 *  0.332290 *  -3.33043    1.000000    
    189 O2    s    0.073880 *  0.075771 *  0.661513 *  -2.87073    1.000000    
    190 O2    s    0.074450 *  0.002059 *  0.496800 *  -2.87073    1.000000    
    191 O2    s    0.996751 *  0.068538 *  0.825742 *  -2.87073    1.000000    
    192 O2    s    0.927512 *  0.930888 *  0.161421 *  -2.87073    1.000000    
    193 O2    s    0.343713 *  0.578409 *  0.328479 *  -2.87073    1.000000    
    194 O2    s    0.415498 *  0.767376 *  0.661988 *  -2.87073    1.000000    
    195 O2    s    0.226143 *  0.648875 *  0.993098 *  -2.87073    1.000000    
    196 O2    s    0.646307 *  0.409819 *  0.830792 *  -2.87073    1.000000    
    197 O2    s    0.586059 *  0.232888 *  0.169778 *  -2.87073    1.000000    
    198 O2    s    0.763192 *  0.355945 *  0.499029 *  -2.87073    1.000000    
    199 O3    s    0.574113 *  0.351782 *  0.997409 *  -3.33043    1.000000    
    200 O2    s    0.767400 *  0.414450 *  0.665358 *  -2.87073    1.000000    
    201 O2    s    0.643639 *  0.227440 *  0.334802 *  -2.87073    1.000000    
    202 O2    s    0.410032 *  0.648731 *  0.495608 *  -2.87073    1.000000    
    203 O2    s    0.228696 *  0.587321 *  0.160483 *  -2.87073    1.000000    
    204 O2    s    0.348890 *  0.762440 *  0.827524 *  -2.87073    1.000000    
    205 O3    s    0.134380 *  0.226627 *  0.967309 *  -3.33043    1.000000    
    206 O3    s    0.768981 *  0.901048 *  0.304416 *  -3.33043    1.000000    
    207 O2    s    0.095459 *  0.878753 *  0.633774 *  -2.87073    1.000000    
    208 O2    s    0.876095 *  0.786060 *  0.465912 *  -2.87073    1.000000    
    209 O2    s    0.216891 *  0.092291 *  0.799100 *  -2.87073    1.000000    
    210 O2    s    0.899863 *  0.122515 *  0.129845 *  -2.87073    1.000000    
    211 O2    s    0.218365 *  0.120628 *  0.361783 *  -2.87073    1.000000    
    212 O2    s    0.903045 *  0.789399 *  0.025817 *  -2.87073    1.000000    
    213 O2    s    0.879235 *  0.096373 *  0.693205 *  -2.87073    1.000000    
    214 O2    s    0.778167 *  0.871385 *  0.855469 *  -2.87073    1.000000    
    215 O2    s    0.091679 *  0.216562 *  0.527491 *  -2.87073    1.000000    
    216 O2    s    0.121039 *  0.904844 *  0.192544 *  -2.87073    1.000000    
    217 O3    s    0.928398 *  0.862089 *  0.242683 *  -3.33043    1.000000    
    218 O2    s    0.140614 *  0.069240 *  0.579573 *  -2.87073    1.000000    
    219 O3    s    0.933038 *  0.053499 *  0.908349 *  -3.33043    1.000000    
    220 O2    s    0.075259 *  0.140864 *  0.744453 *  -2.87073    1.000000    
    221 O2    s    0.843759 *  0.922598 *  0.080666 *  -2.87073    1.000000    
    222 O2    s    0.071820 *  0.928740 *  0.414655 *  -2.87073    1.000000    
    223 O3    s    0.902598 *  0.209709 *  0.972456 *  -3.33043    1.000000    
    224 O3    s    0.786567 *  0.687028 *  0.311590 *  -3.33043    1.000000    
    225 O2    s    0.296409 *  0.091726 *  0.645463 *  -2.87073    1.000000    
    226 O2    s    0.087715 *  0.794792 *  0.480506 *  -2.87073    1.000000    
    227 O2    s    0.202194 *  0.291577 *  0.811868 *  -2.87073    1.000000    
    228 O2    s    0.702185 *  0.909631 *  0.148877 *  -2.87073    1.000000    
    229 O2    s    0.199296 *  0.902480 *  0.348187 *  -2.87073    1.000000    
    230 O2    s    0.701075 *  0.802053 *  0.010868 *  -2.87073    1.000000    
    231 O2    s    0.092713 *  0.297242 *  0.680573 *  -2.87073    1.000000    
    232 O2    s    0.794702 *  0.086561 *  0.847260 *  -2.87073    1.000000    
    233 O2    s    0.294944 *  0.210363 *  0.515499 *  -2.87073    1.000000    
    234 O2    s    0.905472 *  0.705784 *  0.177878 *  -2.87073    1.000000    
    235 O2    s    0.320164 *  0.650599 *  0.245286 *  -2.87073    1.000000    
    236 O2    s    0.343146 *  0.671563 *  0.579391 *  -2.87073    1.000000    
    237 O2    s    0.322187 *  0.672018 *  0.910341 *  -2.87073    1.000000    
    238 O2    s    0.672910 *  0.342573 *  0.747863 *  -2.87073    1.000000    
    239 O3    s    0.626964 *  0.309681 *  0.086670 *  -3.33043    1.000000    
    240 O2    s    0.670773 *  0.329145 *  0.416262 *  -2.87073    1.000000    
    241 O2    s    0.379837 *  0.348746 *  0.963413 *  -2.87073    1.000000    
    242 O2    s    0.651457 *  0.030738 *  0.301848 *  -2.87073    1.000000    
    243 O2    s    0.963814 *  0.624012 *  0.633240 *  -2.87073    1.000000    
    244 O2    s    0.620822 *  0.662836 *  0.463667 *  -2.87073    1.000000    
    245 O2    s    0.339490 *  0.960844 *  0.797188 *  -2.87073    1.000000    
    246 O2    s    0.028910 *  0.377971 *  0.126478 *  -2.87073    1.000000    
    247 O2    s    0.336880 *  0.373972 *  0.361888 *  -2.87073    1.000000    
    248 O2    s    0.025829 *  0.656348 *  0.025428 *  -2.87073    1.000000    
    249 O2    s    0.624296 *  0.964694 *  0.694350 *  -2.87073    1.000000    
    250 O2    s    0.655132 *  0.619526 *  0.859882 *  -2.87073    1.000000    
    251 O2    s    0.960748 *  0.340786 *  0.529163 *  -2.87073    1.000000    
    252 O2    s    0.375060 *  0.033662 *  0.197273 *  -2.87073    1.000000    
    253 O3    s    0.763133 *  0.291970 *  0.004629 *  -3.33043    1.000000    
    254 O2    s    0.685887 *  0.459959 *  0.345504 *  -2.87073    1.000000    
    255 O2    s    0.534857 *  0.223188 *  0.677615 *  -2.87073    1.000000    
    256 O2    s    0.219745 *  0.688473 *  0.510805 *  -2.87073    1.000000    
    257 O2    s    0.307089 *  0.530345 *  0.841469 *  -2.87073    1.000000    
    258 O2    s    0.462187 *  0.776779 *  0.177867 *  -2.87073    1.000000    
    259 O2    s    0.299556 *  0.767767 *  0.315407 *  -2.87073    1.000000    
    260 O2    s    0.463165 *  0.695893 *  0.979657 *  -2.87073    1.000000    
    261 O2    s    0.225092 *  0.534978 *  0.649259 *  -2.87073    1.000000    
    262 O2    s    0.689604 *  0.220486 *  0.816805 *  -2.87073    1.000000    
    263 O2    s    0.533017 *  0.317572 *  0.484700 *  -2.87073    1.000000    
    264 O2    s    0.769054 *  0.464663 *  0.148016 *  -2.87073    1.000000    
    265 O3    s    0.780341 *  0.546906 *  0.021997 *  -3.33043    1.000000    
    266 O2    s    0.466461 *  0.255206 *  0.363152 *  -2.87073    1.000000    
    267 O2    s    0.744343 *  0.211624 *  0.694748 *  -2.87073    1.000000    
    268 O2    s    0.208145 *  0.467694 *  0.527131 *  -2.87073    1.000000    
    269 O2    s    0.527591 *  0.739779 *  0.857627 *  -2.87073    1.000000    
    270 O2    s    0.251838 *  0.786233 *  0.194086 *  -2.87073    1.000000    
    271 O2    s    0.520495 *  0.781963 *  0.300596 *  -2.87073    1.000000    
    272 O2    s    0.256070 *  0.474241 *  0.964770 *  -2.87073    1.000000    
    273 O2    s    0.210901 *  0.742395 *  0.632882 *  -2.87073    1.000000    
    274 O2    s    0.468103 *  0.207463 *  0.799375 *  -2.87073    1.000000    
    275 O2    s    0.741834 *  0.536484 *  0.466241 *  -2.87073    1.000000    
    276 O2    s    0.783416 *  0.257187 *  0.129040 *  -2.87073    1.000000    
    277 O2    s    0.235615 *  0.335017 *  0.894867 *  -2.87073    1.000000    
    278 O2    s    0.661190 *  0.901492 *  0.232055 *  -2.87073    1.000000    
    279 O2    s    0.090187 *  0.758459 *  0.563340 *  -2.87073    1.000000    
    280 O2    s    0.756747 *  0.667511 *  0.394593 *  -2.87073    1.000000    
    281 O2    s    0.333147 *  0.090426 *  0.728350 *  -2.87073    1.000000    
    282 O2    s    0.899204 *  0.240231 *  0.057924 *  -2.87073    1.000000    
    283 O2    s    0.331717 *  0.244151 *  0.432596 *  -2.87073    1.000000    
    284 O2    s    0.892886 *  0.658541 *  0.094790 *  -2.87073    1.000000    
    285 O2    s    0.759657 *  0.091236 *  0.764523 *  -2.87073    1.000000    
    286 O2    s    0.664286 *  0.761073 *  0.927901 *  -2.87073    1.000000    
    287 O2    s    0.091630 *  0.334261 *  0.597986 *  -2.87073    1.000000    
    288 O2    s    0.234607 *  0.903423 *  0.264993 *  -2.87073    1.000000    
    289 O2    s    0.581603 *  0.566415 *  0.982606 *  -2.87073    1.000000    
    290 O2    s    0.433700 *  0.015970 *  0.319918 *  -2.87073    1.000000    
    291 O2    s    0.978247 *  0.419477 *  0.651683 *  -2.87073    1.000000    
    292 O2    s    0.415588 *  0.445357 *  0.483740 *  -2.87073    1.000000    
    293 O2    s    0.558137 *  0.974054 *  0.816472 *  -2.87073    1.000000    
    294 O2    s    0.013331 *  0.578033 *  0.144779 *  -2.87073    1.000000    
    295 O2    s    0.553427 *  0.577327 *  0.341886 *  -2.87073    1.000000    
    296 O2    s    0.009082 *  0.441353 *  0.006190 *  -2.87073    1.000000    
    297 O2    s    0.417823 *  0.976705 *  0.675175 *  -2.87073    1.000000    
    298 O2    s    0.437101 *  0.411471 *  0.843844 *  -2.87073    1.000000    
    299 O2    s    0.972978 *  0.559295 *  0.510874 *  -2.87073    1.000000    
    300 O2    s    0.584517 *  0.024682 *  0.180654 *  -2.87073    1.000000    
    301 O2    s    0.571854 *  0.150920 *  0.251657 *  -2.87073    1.000000    
    302 O2    s    0.844748 *  0.423529 *  0.581950 *  -2.87073    1.000000    
    303 O2    s    0.581553 *  0.428326 *  0.913790 *  -2.87073    1.000000    
    304 O2    s    0.422735 *  0.845011 *  0.745178 *  -2.87073    1.000000    
    305 O2    s    0.142412 *  0.573985 *  0.076207 *  -2.87073    1.000000    
    306 O2    s    0.418853 *  0.576963 *  0.412103 *  -2.87073    1.000000    
    307 F     s    0.445205 *  0.899247 *  0.247801 *  -1.56000    1.000000    
    308 F     s    0.095432 *  0.547643 *  0.580154 *  -1.56000    1.000000    
    309 F     s    0.445085 *  0.553111 *  0.911067 *  -1.56000    1.000000    
    310 F     s    0.549513 *  0.096416 *  0.746063 *  -1.56000    1.000000    
    311 F     s    0.842303 *  0.430065 *  0.067219 *  -1.56000    1.000000    
    312 F     s    0.548477 *  0.454913 *  0.412806 *  -1.56000    1.000000    
--------------------------------------------------------------------------------



********************************************************************************
*  General input information                                                   *
********************************************************************************

  Species output for all configurations : 

--------------------------------------------------------------------------------
  Species    Type    Atomic    Atomic    Charge       Radii (Angs)     Library
                     Number     Mass       (e)     Cova   Ionic  VDW   Symbol
--------------------------------------------------------------------------------
    Si       Core       14      28.09   4.000000   1.200  0.000  2.100          
    O1       Core        8      16.00   1.733957   0.730  0.000  1.360          
    O1       Shell       8       0.00  -3.733957   0.730  0.000  1.360          
    O2       Core        8      16.00   0.870733   0.730  0.000  1.360          
    O2       Shell       8       0.00  -2.870733   0.730  0.000  1.360          
    O3       Core        8      16.00   1.330431   0.730  0.000  1.360          
    O3       Shell       8       0.00  -3.330431   0.730  0.000  1.360          
    F        Core        9      19.00   0.560000   0.710  0.000  1.300          
    F        Shell       9       0.00  -1.560000   0.710  0.000  1.300          
    Ge       Core       32      72.61   4.000000   1.170  0.000  1.750          
--------------------------------------------------------------------------------


  Lattice summation method               =    Ewald          (3-D)
                                         =    Parry          (2-D)
                                         =    Saunders et al (1-D)
  Accuracy factor for lattice sums       =   12.000


  Time limit = Infinity

  Maximum range for interatomic potentials =        16.000000 Angstroms

  Taper potentials to zero over   1.0000 Angstroms using polynomial

  General interatomic potentials :

--------------------------------------------------------------------------------
Atom  Types   Potential         A         B         C         D     Cutoffs(Ang)
  1     2                                                            Min    Max 
--------------------------------------------------------------------------------
Si   c O1   s Buckingham    0.132E+04 0.318      10.1      0.00     0.000 16.000
Si   c O2   s Buckingham    0.132E+04 0.318      10.1      0.00     0.000 16.000
Si   c O3   s Buckingham    0.132E+04 0.318      10.1      0.00     0.000 16.000
Ge   c O1   s Buckingham    0.150E+04 0.326      16.8      0.00     0.000 16.000
Ge   c O2   s Buckingham    0.150E+04 0.326      16.8      0.00     0.000 16.000
Ge   c O3   s Buckingham    0.150E+04 0.326      16.8      0.00     0.000 16.000
O1   s O1   s Buckingham    0.228E+05 0.149      10.9      0.00     0.000 16.000
O1   s O2   s Buckingham    0.228E+05 0.149      10.9      0.00     0.000 16.000
O1   s O3   s Buckingham    0.228E+05 0.149      10.9      0.00     0.000 16.000
O2   s O2   s Buckingham    0.228E+05 0.149      10.9      0.00     0.000 16.000
O2   s O3   s Buckingham    0.228E+05 0.149      10.9      0.00     0.000 16.000
O3   s O3   s Buckingham    0.228E+05 0.149      10.9      0.00     0.000 16.000
Si   c F    s Buckingham     977.     0.282      0.00      0.00     0.000 16.000
Ge   c F    s Buckingham     681.     0.320      0.00      0.00     0.000 16.000
F    s F    s Buckingham     540.     0.262      0.00      0.00     0.000 16.000
O1   s F    s Buckingham    0.168E+04 0.268      0.00      0.00     0.000 16.000
O2   s F    s Buckingham    0.168E+04 0.268      0.00      0.00     0.000 16.000
O3   s F    s Buckingham    0.168E+04 0.268      0.00      0.00     0.000 16.000
O2   c O2   s Spring (c-s)   76.0      0.00      0.00      0.00     0.000  0.800
O3   c O3   s Spring (c-s)   128.      0.00      0.00      0.00     0.000  0.800
O1   c O1   s Spring (c-s)   180.      0.00      0.00      0.00     0.000  0.800
F    c F    s Spring (c-s)   33.5      0.00      0.00      0.00     0.000  0.800
--------------------------------------------------------------------------------

  General Three-body potentials :

  Harmonic form:

--------------------------------------------------------------------------------
Atom    Atom    Atom           Force Constants            Theta     Cutoffs  
  1       2       3     (eVrad**-2/eVrad**-3/eVrad**-4)   (deg)  1-2  1-3  2-3
--------------------------------------------------------------------------------
Si    c O1    s O1    s  1.261        0.0000    0.0000   109.470 0.00 0.00 0.00
                                                                 1.90 1.90 3.50
Si    c O1    s O2    s  1.261        0.0000    0.0000   109.470 0.00 0.00 0.00
                                                                 1.90 1.90 3.50
Si    c O2    s O2    s  1.261        0.0000    0.0000   109.470 0.00 0.00 0.00
                                                                 1.90 1.90 3.50
--------------------------------------------------------------------------------

********************************************************************************
*  Output for configuration   1                                                *
********************************************************************************


  Components of energy : 

--------------------------------------------------------------------------------
  Interatomic potentials     =        2060.56712336 eV
  Three-body potentials      =           0.46870060 eV
  Monopole - monopole (real) =       -6610.98491985 eV
  Monopole - monopole (recip)=       -3169.50144880 eV
  Monopole - monopole (total)=       -9780.48636864 eV
  Neutralising energy        =          -6.45625908 eV
--------------------------------------------------------------------------------
  Total lattice energy       =       -7725.90680377 eV
--------------------------------------------------------------------------------
  Total lattice energy       =         -745431.9053 kJ/(mole unit cells)
--------------------------------------------------------------------------------


  Number of variables =      939

  Maximum number of calculations  =          1000
  Maximum Hessian update interval =            10
  Maximum step size               =   1.000000000
  Maximum parameter tolerance     =   0.000010000
  Maximum function  tolerance     =   0.000010000
  Maximum gradient  tolerance     =   0.001000000
  Maximum gradient  component     =   0.010000000

  Symmetry not applied to optimisation

  Cell parameters to be optimised using strains

  Newton-Raphson optimiser to be used

  BFGS hessian update to be used

  Dumpfile to be written after every cycle

  Start of bulk optimisation :

  Cycle:      0 Energy:     -7725.906804  Gnorm:      0.000813  CPU:    1.104
  ** Hessian calculated **
  Cycle:      1 Energy:     -7725.987859  Gnorm:      0.004657  CPU:    3.355
  Cycle:      2 Energy:     -7725.993662  Gnorm:      0.001688  CPU:    4.746
  Cycle:      3 Energy:     -7725.993746  Gnorm:      0.000370  CPU:    6.136
  Cycle:      4 Energy:     -7725.993754  Gnorm:      0.000139  CPU:    7.527


  **** Optimisation achieved ****


  Final energy =   -7725.99375445 eV
  Final Gnorm  =       0.00002398

  Components of energy : 

--------------------------------------------------------------------------------
  Interatomic potentials     =        2060.96757884 eV
  Three-body potentials      =           0.45998215 eV
  Monopole - monopole (real) =       -6612.49759182 eV
  Monopole - monopole (recip)=       -3168.46956365 eV
  Monopole - monopole (total)=       -9780.96715547 eV
  Neutralising energy        =          -6.45415997 eV
--------------------------------------------------------------------------------
  Total lattice energy       =       -7725.99375445 eV
--------------------------------------------------------------------------------
  Total lattice energy       =         -745440.2947 kJ/(mole unit cells)
--------------------------------------------------------------------------------

  Final fractional coordinates of atoms :

--------------------------------------------------------------------------------
   No.  Atomic        x           y          z          Radius
        Label       (Frac)      (Frac)     (Frac)       (Angs) 
--------------------------------------------------------------------------------
     1  Ge    c     0.699600    0.375700    0.033890    0.000000
     2  Si    c     0.593355    0.302077    0.366058    0.000000
     3  Si    c     0.656937    0.280769    0.697129    0.000000
     4  Si    c     0.270787    0.603202    0.528881    0.000000
     5  Si    c     0.357333    0.657141    0.860375    0.000000
     6  Si    c     0.298077    0.686478    0.195772    0.000000
     7  Si    c     0.343926    0.677225    0.296909    0.000000
     8  Si    c     0.306658    0.611151    0.961164    0.000000
     9  Si    c     0.277249    0.660811    0.629610    0.000000
    10  Si    c     0.601887    0.278392    0.797678    0.000000
    11  Si    c     0.650706    0.365281    0.465999    0.000000
    12  Si    c     0.670163    0.303472    0.131587    0.000000
    13  Si    c     0.523323    0.409552    0.965413    0.000000
    14  Si    c     0.551849    0.090581    0.301845    0.000000
    15  Si    c     0.866468    0.455110    0.632814    0.000000
    16  Si    c     0.441549    0.566235    0.462992    0.000000
    17  Si    c     0.397348    0.867921    0.795998    0.000000
    18  Si    c     0.090958    0.516655    0.127961    0.000000
    19  Si    c     0.386053    0.507621    0.361459    0.000000
    20  Si    c     0.093700    0.574226    0.025160    0.000000
    21  Si    c     0.451157    0.871912    0.694300    0.000000
    22  Si    c     0.564805    0.452159    0.862368    0.000000
    23  Si    c     0.861706    0.401558    0.531140    0.000000
    24  Si    c     0.507644    0.096360    0.200018    0.000000
    25  Si    c     0.282292    0.380300    0.847924    0.000000
    26  Si    c     0.578657    0.887841    0.184908    0.000000
    27  Si    c     0.069137    0.680467    0.516059    0.000000
    28  Si    c     0.665873    0.575465    0.347799    0.000000
    29  Si    c     0.378990    0.079934    0.680890    0.000000
    30  Si    c     0.880461    0.287765    0.007901    0.000000
    31  Si    c     0.371141    0.287698    0.479596    0.000000
    32  Si    c     0.877102    0.587885    0.142547    0.000000
    33  Si    c     0.678610    0.077199    0.811507    0.000000
    34  Si    c     0.585933    0.689401    0.974823    0.000000
    35  Si    c     0.076619    0.383927    0.645317    0.000000
    36  Si    c     0.270108    0.879766    0.312275    0.000000
    37  Si    c     0.243664    0.334500    0.948826    0.000000
    38  Si    c     0.625785    0.887923    0.286164    0.000000
    39  Si    c     0.067175    0.732928    0.616749    0.000000
    40  Si    c     0.721089    0.644082    0.447740    0.000000
    41  Si    c     0.320909    0.069598    0.781463    0.000000
    42  Si    c     0.886126    0.235600    0.110810    0.000000
    43  Si    c     0.313050    0.232195    0.379049    0.000000
    44  Si    c     0.891903    0.656552    0.040417    0.000000
    45  Si    c     0.729835    0.073180    0.710790    0.000000
    46  Si    c     0.638870    0.730323    0.873747    0.000000
    47  Si    c     0.062758    0.323225    0.544648    0.000000
    48  Si    c     0.227129    0.894437    0.211264    0.000000
    49  Ge    c     0.962472    0.111804    0.960760    0.000000
    50  Ge    c     0.847372    0.825576    0.297663    0.000000
    51  Si    c     0.129897    0.012723    0.630413    0.000000
    52  Si    c     0.001861    0.861022    0.464931    0.000000
    53  Si    c     0.104018    0.132495    0.795752    0.000000
    54  Si    c     0.824375    0.957384    0.130621    0.000000
    55  Si    c     0.096415    0.952150    0.364146    0.000000
    56  Si    c     0.830507    0.871672    0.029237    0.000000
    57  Si    c     0.010580    0.136418    0.695045    0.000000
    58  Si    c     0.858943    0.005521    0.859500    0.000000
    59  Si    c     0.123788    0.105068    0.529848    0.000000
    60  Si    c     0.949431    0.837042    0.194181    0.000000
    61  O3    c     0.917349    0.999628    0.002766    0.000000
    62  O3    c     0.976504    0.916409    0.332352    0.000000
    63  O2    c     0.050111    0.056158    0.661983    0.000000
    64  O2    c     0.043305    0.983457    0.497093    0.000000
    65  O2    c     0.979194    0.050218    0.826188    0.000000
    66  O2    c     0.911700    0.921183    0.161874    0.000000
    67  O2    c     0.306398    0.552849    0.328544    0.000000
    68  O2    c     0.402695    0.747278    0.661422    0.000000
    69  O2    c     0.220747    0.649138    0.993828    0.000000
    70  O2    c     0.639870    0.400612    0.830480    0.000000
    71  O2    c     0.561818    0.224626    0.169619    0.000000
    72  O2    c     0.733694    0.326791    0.499401    0.000000
    73  O3    c     0.564460    0.334422    0.998345    0.000000
    74  O2    c     0.742020    0.405594    0.665463    0.000000
    75  O2    c     0.630046    0.213517    0.335040    0.000000
    76  O2    c     0.391859    0.642151    0.495128    0.000000
    77  O2    c     0.214893    0.565963    0.161310    0.000000
    78  O2    c     0.318936    0.741312    0.827302    0.000000
    79  O3    c     0.124705    0.207471    0.969864    0.000000
    80  O3    c     0.748459    0.888597    0.307780    0.000000
    81  O2    c     0.067837    0.859305    0.636616    0.000000
    82  O2    c     0.846661    0.771551    0.467831    0.000000
    83  O2    c     0.194373    0.068869    0.801439    0.000000
    84  O2    c     0.887820    0.112068    0.132023    0.000000
    85  O2    c     0.189206    0.105235    0.358811    0.000000
    86  O2    c     0.905194    0.791496    0.024728    0.000000
    87  O2    c     0.856041    0.073647    0.690569    0.000000
    88  O2    c     0.764394    0.852935    0.851890    0.000000
    89  O2    c     0.059576    0.195134    0.525065    0.000000
    90  O2    c     0.103892    0.897976    0.189795    0.000000
    91  O3    c     0.906853    0.849305    0.243733    0.000000
    92  O2    c     0.114152    0.050015    0.579731    0.000000
    93  O3    c     0.916803    0.034497    0.909590    0.000000
    94  O2    c     0.055258    0.123974    0.744785    0.000000
    95  O2    c     0.822136    0.906243    0.081010    0.000000
    96  O2    c     0.046904    0.913281    0.414907    0.000000
    97  O3    c     0.890725    0.203439    0.968058    0.000000
    98  O3    c     0.761783    0.663493    0.308234    0.000000
    99  O2    c     0.282055    0.082523    0.642432    0.000000
   100  O2    c     0.069087    0.778052    0.478060    0.000000
   101  O2    c     0.184181    0.282124    0.809694    0.000000
   102  O2    c     0.676477    0.889278    0.147001    0.000000
   103  O2    c     0.171874    0.876915    0.350483    0.000000
   104  O2    c     0.682814    0.791434    0.012256    0.000000
   105  O2    c     0.079921    0.287625    0.683206    0.000000
   106  O2    c     0.777370    0.077667    0.849997    0.000000
   107  O2    c     0.275283    0.190192    0.517880    0.000000
   108  O2    c     0.880055    0.685865    0.181085    0.000000
   109  O2    c     0.292553    0.624212    0.245501    0.000000
   110  O2    c     0.331488    0.660430    0.578920    0.000000
   111  O2    c     0.300578    0.661994    0.910327    0.000000
   112  O2    c     0.658101    0.336677    0.747610    0.000000
   113  O3    c     0.605241    0.298724    0.084184    0.000000
   114  O2    c     0.650792    0.304866    0.416462    0.000000
   115  O2    c     0.366214    0.325826    0.966007    0.000000
   116  O2    c     0.637175    0.020556    0.304064    0.000000
   117  O2    c     0.935570    0.611041    0.635579    0.000000
   118  O2    c     0.598187    0.654070    0.465482    0.000000
   119  O2    c     0.310342    0.937022    0.799107    0.000000
   120  O2    c     0.017508    0.361071    0.128753    0.000000
   121  O2    c     0.300413    0.351642    0.359421    0.000000
   122  O2    c     0.025545    0.661613    0.024912    0.000000
   123  O2    c     0.607742    0.941473    0.691577    0.000000
   124  O2    c     0.648356    0.607400    0.856615    0.000000
   125  O2    c     0.929384    0.313522    0.526910    0.000000
   126  O2    c     0.351484    0.026420    0.194232    0.000000
   127  O3    c     0.746420    0.280746    0.001070    0.000000
   128  O2    c     0.667411    0.442193    0.342234    0.000000
   129  O2    c     0.513745    0.213452    0.674030    0.000000
   130  O2    c     0.201664    0.678298    0.507307    0.000000
   131  O2    c     0.282649    0.513533    0.838272    0.000000
   132  O2    c     0.442763    0.756733    0.174762    0.000000
   133  O2    c     0.266817    0.744013    0.318382    0.000000
   134  O2    c     0.451686    0.690286    0.982392    0.000000
   135  O2    c     0.210973    0.518293    0.652025    0.000000
   136  O2    c     0.677374    0.209920    0.819670    0.000000
   137  O2    c     0.507051    0.291941    0.487825    0.000000
   138  O2    c     0.746732    0.452250    0.150824    0.000000
   139  O3    c     0.767217    0.542821    0.018299    0.000000
   140  O2    c     0.437529    0.228390    0.360490    0.000000
   141  O2    c     0.731880    0.200053    0.691716    0.000000
   142  O2    c     0.188419    0.447304    0.524263    0.000000
   143  O2    c     0.513302    0.731881    0.854434    0.000000
   144  O2    c     0.222985    0.767169    0.191142    0.000000
   145  O2    c     0.498929    0.760679    0.303950    0.000000
   146  O2    c     0.235267    0.456571    0.968115    0.000000
   147  O2    c     0.194685    0.733818    0.635286    0.000000
   148  O2    c     0.445745    0.195220    0.801820    0.000000
   149  O2    c     0.724099    0.521209    0.468417    0.000000
   150  O2    c     0.762016    0.238213    0.130154    0.000000
   151  O2    c     0.211350    0.310518    0.894704    0.000000
   152  O2    c     0.647773    0.884762    0.231875    0.000000
   153  O2    c     0.066707    0.751035    0.562469    0.000000
   154  O2    c     0.739451    0.658707    0.393123    0.000000
   155  O2    c     0.303760    0.073460    0.727145    0.000000
   156  O2    c     0.887633    0.222874    0.056321    0.000000
   157  O2    c     0.296191    0.216168    0.433338    0.000000
   158  O2    c     0.880188    0.657355    0.095685    0.000000
   159  O2    c     0.749067    0.073898    0.765132    0.000000
   160  O2    c     0.658975    0.755878    0.927900    0.000000
   161  O2    c     0.068380    0.308085    0.598865    0.000000
   162  O2    c     0.202987    0.888605    0.265438    0.000000
   163  O2    c     0.573796    0.553408    0.985619    0.000000
   164  O2    c     0.409167    0.003537    0.323156    0.000000
   165  O2    c     0.952562    0.399273    0.655156    0.000000
   166  O2    c     0.385267    0.426998    0.486946    0.000000
   167  O2    c     0.538724    0.952128    0.819577    0.000000
   168  O2    c     0.000182    0.568130    0.148200    0.000000
   169  O2    c     0.526680    0.562845    0.338124    0.000000
   170  O2    c     0.001801    0.434052    0.003547    0.000000
   171  O2    c     0.393241    0.955410    0.671318    0.000000
   172  O2    c     0.420841    0.390840    0.840534    0.000000
   173  O2    c     0.942852    0.541629    0.507517    0.000000
   174  O2    c     0.569603    0.016214    0.177634    0.000000
   175  O2    c     0.553717    0.146563    0.251524    0.000000
   176  O2    c     0.810886    0.401410    0.582134    0.000000
   177  O2    c     0.573298    0.410154    0.913730    0.000000
   178  O2    c     0.398101    0.817519    0.744809    0.000000
   179  O2    c     0.138218    0.566881    0.076922    0.000000
   180  O2    c     0.387190    0.563249    0.411939    0.000000
   181  F     c     0.422462    0.883385    0.247755    0.000000
   182  F     c     0.072046    0.531266    0.580019    0.000000
   183  F     c     0.430241    0.536869    0.910940    0.000000
   184  F     c     0.529192    0.078655    0.745687    0.000000
   185  F     c     0.845793    0.428739    0.069869    0.000000
   186  F     c     0.521303    0.435603    0.412754    0.000000
   187  O3    s     0.911546    0.995083    0.002048    0.000000
   188  O3    s     0.978273    0.912317    0.332778    0.000000
   189  O2    s     0.054668    0.060234    0.662123    0.000000
   190  O2    s     0.047609    0.983342    0.497156    0.000000
   191  O2    s     0.979904    0.054557    0.826453    0.000000
   192  O2    s     0.906187    0.916034    0.161941    0.000000
   193  O2    s     0.318230    0.560994    0.328614    0.000000
   194  O2    s     0.394712    0.751087    0.661488    0.000000
   195  O2    s     0.215994    0.637560    0.993859    0.000000
   196  O2    s     0.628248    0.393185    0.830323    0.000000
   197  O2    s     0.567367    0.219274    0.168863    0.000000
   198  O2    s     0.738243    0.338526    0.499179    0.000000
   199  O3    s     0.569480    0.345655    0.997240    0.000000
   200  O2    s     0.746245    0.397994    0.665317    0.000000
   201  O2    s     0.618120    0.209821    0.334779    0.000000
   202  O2    s     0.384662    0.630355    0.495259    0.000000
   203  O2    s     0.210237    0.572840    0.161276    0.000000
   204  O2    s     0.330923    0.745842    0.827432    0.000000
   205  O3    s     0.122512    0.211746    0.967035    0.000000
   206  O3    s     0.744081    0.883334    0.304760    0.000000
   207  O2    s     0.074310    0.862426    0.633939    0.000000
   208  O2    s     0.850135    0.767882    0.465474    0.000000
   209  O2    s     0.197865    0.075696    0.798796    0.000000
   210  O2    s     0.881009    0.108714    0.129692    0.000000
   211  O2    s     0.192511    0.102410    0.361519    0.000000
   212  O2    s     0.895959    0.785750    0.026837    0.000000
   213  O2    s     0.859488    0.080303    0.693111    0.000000
   214  O2    s     0.761448    0.856432    0.854913    0.000000
   215  O2    s     0.066678    0.198743    0.527546    0.000000
   216  O2    s     0.100414    0.891172    0.192467    0.000000
   217  O3    s     0.906262    0.845887    0.243073    0.000000
   218  O2    s     0.117012    0.052079    0.579762    0.000000
   219  O3    s     0.914748    0.038204    0.908812    0.000000
   220  O2    s     0.055672    0.126372    0.744878    0.000000
   221  O2    s     0.823374    0.908459    0.081090    0.000000
   222  O2    s     0.047356    0.911695    0.414889    0.000000
   223  O3    s     0.895701    0.204267    0.971421    0.000000
   224  O3    s     0.759751    0.668520    0.311114    0.000000
   225  O2    s     0.275720    0.074856    0.645043    0.000000
   226  O2    s     0.061862    0.776903    0.480573    0.000000
   227  O2    s     0.185643    0.276103    0.812127    0.000000
   228  O2    s     0.682073    0.896459    0.149250    0.000000
   229  O2    s     0.174133    0.885062    0.347943    0.000000
   230  O2    s     0.688745    0.789552    0.010189    0.000000
   231  O2    s     0.072246    0.281529    0.680560    0.000000
   232  O2    s     0.775952    0.070190    0.847158    0.000000
   233  O2    s     0.269115    0.191247    0.515193    0.000000
   234  O2    s     0.886951    0.691478    0.178488    0.000000
   235  O2    s     0.298260    0.635837    0.245624    0.000000
   236  O2    s     0.319795    0.654624    0.578959    0.000000
   237  O2    s     0.306849    0.656339    0.910490    0.000000
   238  O2    s     0.652242    0.324976    0.747533    0.000000
   239  O3    s     0.618067    0.304129    0.085966    0.000000
   240  O2    s     0.644850    0.310766    0.416303    0.000000
   241  O2    s     0.368548    0.335396    0.963991    0.000000
   242  O2    s     0.626905    0.013975    0.301918    0.000000
   243  O2    s     0.942223    0.607793    0.633323    0.000000
   244  O2    s     0.594898    0.644003    0.463361    0.000000
   245  O2    s     0.320376    0.943869    0.796925    0.000000
   246  O2    s     0.011676    0.364389    0.126825    0.000000
   247  O2    s     0.310555    0.355319    0.361679    0.000000
   248  O2    s     0.019401    0.652012    0.026490    0.000000
   249  O2    s     0.604386    0.948072    0.693871    0.000000
   250  O2    s     0.638743    0.604408    0.859021    0.000000
   251  O2    s     0.936329    0.323549    0.529194    0.000000
   252  O2    s     0.354467    0.019723    0.196624    0.000000
   253  O3    s     0.757612    0.287958    0.004118    0.000000
   254  O2    s     0.659499    0.441568    0.345352    0.000000
   255  O2    s     0.514253    0.206319    0.677145    0.000000
   256  O2    s     0.194834    0.670802    0.510476    0.000000
   257  O2    s     0.290274    0.514444    0.841575    0.000000
   258  O2    s     0.441841    0.763020    0.178015    0.000000
   259  O2    s     0.275070    0.751259    0.315493    0.000000
   260  O2    s     0.450444    0.682044    0.979391    0.000000
   261  O2    s     0.203657    0.518797    0.648986    0.000000
   262  O2    s     0.669799    0.202976    0.816537    0.000000
   263  O2    s     0.507493    0.299088    0.484666    0.000000
   264  O2    s     0.753249    0.452380    0.148071    0.000000
   265  O3    s     0.776569    0.544361    0.021679    0.000000
   266  O2    s     0.440429    0.236666    0.363062    0.000000
   267  O2    s     0.723772    0.194679    0.694305    0.000000
   268  O2    s     0.183328    0.450080    0.526902    0.000000
   269  O2    s     0.510708    0.723840    0.857124    0.000000
   270  O2    s     0.231329    0.772367    0.193750    0.000000
   271  O2    s     0.496155    0.765640    0.301307    0.000000
   272  O2    s     0.243600    0.459914    0.965406    0.000000
   273  O2    s     0.189320    0.726035    0.632712    0.000000
   274  O2    s     0.448569    0.190198    0.799197    0.000000
   275  O2    s     0.715998    0.518142    0.465949    0.000000
   276  O2    s     0.766545    0.244504    0.128166    0.000000
   277  O2    s     0.221820    0.320148    0.895286    0.000000
   278  O2    s     0.638291    0.885335    0.232496    0.000000
   279  O2    s     0.067007    0.741656    0.563338    0.000000
   280  O2    s     0.730208    0.648938    0.394187    0.000000
   281  O2    s     0.313481    0.073726    0.728018    0.000000
   282  O2    s     0.886836    0.230346    0.057484    0.000000
   283  O2    s     0.305893    0.225444    0.432424    0.000000
   284  O2    s     0.880972    0.649611    0.095324    0.000000
   285  O2    s     0.739684    0.074158    0.764222    0.000000
   286  O2    s     0.649318    0.746370    0.927091    0.000000
   287  O2    s     0.068639    0.317652    0.597937    0.000000
   288  O2    s     0.212407    0.888276    0.264612    0.000000
   289  O2    s     0.569789    0.554043    0.982341    0.000000
   290  O2    s     0.409156    0.999151    0.319728    0.000000
   291  O2    s     0.957116    0.403645    0.651748    0.000000
   292  O2    s     0.389790    0.426455    0.483643    0.000000
   293  O2    s     0.539098    0.957032    0.816256    0.000000
   294  O2    s     0.996626    0.564614    0.145424    0.000000
   295  O2    s     0.526806    0.558297    0.341574    0.000000
   296  O2    s     0.999340    0.434492    0.006356    0.000000
   297  O2    s     0.397899    0.960277    0.674734    0.000000
   298  O2    s     0.420910    0.396233    0.843603    0.000000
   299  O2    s     0.948177    0.541989    0.510906    0.000000
   300  O2    s     0.563957    0.010699    0.180761    0.000000
   301  O2    s     0.548636    0.135441    0.251346    0.000000
   302  O2    s     0.821962    0.406985    0.582049    0.000000
   303  O2    s     0.567472    0.414617    0.913369    0.000000
   304  O2    s     0.403541    0.828395    0.744852    0.000000
   305  O2    s     0.128747    0.562336    0.077064    0.000000
   306  O2    s     0.392664    0.557831    0.411976    0.000000
   307  F     s     0.422172    0.882957    0.247672    0.000000
   308  F     s     0.072376    0.531403    0.579948    0.000000
   309  F     s     0.429421    0.537280    0.910850    0.000000
   310  F     s     0.529440    0.079100    0.745625    0.000000
   311  F     s     0.835002    0.424927    0.067333    0.000000
   312  F     s     0.521665    0.435575    0.412620    0.000000
--------------------------------------------------------------------------------

  Final Cartesian lattice vectors (Angstroms) :

       11.960174    0.007747   -0.005092
       -6.027383   10.398265    0.019307
       -0.150661   -0.168016   29.472854


  Final cell parameters and derivatives :

--------------------------------------------------------------------------------
       a           11.960178 Angstrom     dE/de1(xx)     0.001114 eV/strain
       b           12.018887 Angstrom     dE/de2(yy)     0.000755 eV/strain
       c           29.473718 Angstrom     dE/de3(zz)     0.000624 eV/strain
       alpha       90.043665 Degrees      dE/de4(yz)    -0.000837 eV/strain
       beta        90.317485 Degrees      dE/de5(xz)    -0.000029 eV/strain
       gamma      120.061731 Degrees      dE/de6(xy)    -0.000111 eV/strain
--------------------------------------------------------------------------------

  Primitive cell volume =          3666.795244 Angs**3

  Density of cell =      1.744873 g/cm**3

  Non-primitive cell volume =          3666.795244 Angs**3


  Final internal derivatives :

--------------------------------------------------------------------------------
   No.  Atomic          a             b             c           Radius
        Label          (eV)          (eV)          (eV)        (eV/Angs)
--------------------------------------------------------------------------------
      1 Ge    c       0.000000      0.000000      0.000000      0.000000
      2 Si    c       0.000088     -0.000046     -0.000096      0.000000
      3 Si    c      -0.000049     -0.000049      0.000166      0.000000
      4 Si    c       0.000013      0.000002      0.000213      0.000000
      5 Si    c       0.000130     -0.000012      0.000042      0.000000
      6 Si    c      -0.000111      0.000102     -0.000235      0.000000
      7 Si    c      -0.000015      0.000005      0.000156      0.000000
      8 Si    c       0.000496     -0.000339     -0.000908      0.000000
      9 Si    c       0.000009     -0.000010     -0.000094      0.000000
     10 Si    c      -0.000030      0.000006      0.000100      0.000000
     11 Si    c      -0.000051      0.000059     -0.000116      0.000000
     12 Si    c      -0.002023     -0.000332      0.001331      0.000000
     13 Si    c      -0.003172      0.001967     -0.007563      0.000000
     14 Si    c       0.000047      0.000097      0.000024      0.000000
     15 Si    c       0.000038     -0.000004     -0.000257      0.000000
     16 Si    c      -0.000018      0.000042      0.000078      0.000000
     17 Si    c       0.000053     -0.000004      0.000071      0.000000
     18 Si    c      -0.000015      0.000168     -0.000240      0.000000
     19 Si    c      -0.000038      0.000050     -0.000310      0.000000
     20 Si    c      -0.000558      0.000626      0.001112      0.000000
     21 Si    c       0.000042      0.000051      0.000181      0.000000
     22 Si    c       0.000157     -0.000017      0.000526      0.000000
     23 Si    c       0.000013     -0.000010      0.000065      0.000000
     24 Si    c       0.000081     -0.000209      0.000054      0.000000
     25 Si    c      -0.000120      0.000124      0.000021      0.000000
     26 Si    c      -0.000003      0.000068      0.000079      0.000000
     27 Si    c       0.000010      0.000032      0.000027      0.000000
     28 Si    c       0.000043     -0.000020      0.000052      0.000000
     29 Si    c       0.000054     -0.000018      0.000087      0.000000
     30 Si    c      -0.000023     -0.000232      0.000216      0.000000
     31 Si    c      -0.000010      0.000046     -0.000144      0.000000
     32 Si    c      -0.000332     -0.000141     -0.000564      0.000000
     33 Si    c      -0.000011      0.000010      0.000161      0.000000
     34 Si    c       0.000378     -0.000160     -0.000173      0.000000
     35 Si    c       0.000056     -0.000078      0.000042      0.000000
     36 Si    c       0.000108     -0.000053     -0.000157      0.000000
     37 Si    c       0.000005      0.000559     -0.000877      0.000000
     38 Si    c       0.000101     -0.000004     -0.000063      0.000000
     39 Si    c       0.000043     -0.000053     -0.000018      0.000000
     40 Si    c       0.000109     -0.000000     -0.000011      0.000000
     41 Si    c       0.000004      0.000037     -0.000060      0.000000
     42 Si    c      -0.000082     -0.000108      0.000345      0.000000
     43 Si    c      -0.000011      0.000026     -0.000041      0.000000
     44 Si    c      -0.000281     -0.000916      0.001267      0.000000
     45 Si    c      -0.000116     -0.000001      0.000109      0.000000
     46 Si    c       0.000049      0.000130      0.000018      0.000000
     47 Si    c      -0.000019     -0.000003      0.000149      0.000000
     48 Si    c       0.000045      0.000027      0.000121      0.000000
     49 Ge    c       0.000216      0.002066     -0.007892      0.000000
     50 Ge    c      -0.000024      0.000176      0.000335      0.000000
     51 Si    c      -0.000034      0.000063     -0.000218      0.000000
     52 Si    c      -0.000051     -0.000021     -0.000141      0.000000
     53 Si    c       0.000121      0.000009      0.000484      0.000000
     54 Si    c       0.000090     -0.000220      0.000404      0.000000
     55 Si    c      -0.000166      0.000104     -0.000273      0.000000
     56 Si    c      -0.001193     -0.000443      0.006532      0.000000
     57 Si    c       0.000067      0.000058     -0.000033      0.000000
     58 Si    c      -0.000528     -0.000038      0.000586      0.000000
     59 Si    c       0.000036      0.000079      0.000191      0.000000
     60 Si    c       0.000133     -0.000115      0.000019      0.000000
     61 O3    c       0.002866     -0.003423      0.007440      0.000000
     62 O3    c       0.000017     -0.000307      0.000344      0.000000
     63 O2    c       0.000104     -0.000110     -0.000089      0.000000
     64 O2    c      -0.000088     -0.000163     -0.000261      0.000000
     65 O2    c       0.000357     -0.000041     -0.000800      0.000000
     66 O2    c      -0.000166      0.000136     -0.000351      0.000000
     67 O2    c       0.000093     -0.000046      0.000077      0.000000
     68 O2    c       0.000037     -0.000082     -0.000058      0.000000
     69 O2    c       0.000202      0.000345     -0.000246      0.000000
     70 O2    c      -0.000051      0.000039      0.000075      0.000000
     71 O2    c       0.000127      0.000118     -0.000123      0.000000
     72 O2    c       0.000039     -0.000058      0.000029      0.000000
     73 O3    c       0.001638     -0.003248      0.000782      0.000000
     74 O2    c      -0.000013      0.000040      0.000009      0.000000
     75 O2    c      -0.000020     -0.000011     -0.000050      0.000000
     76 O2    c       0.000034     -0.000032     -0.000009      0.000000
     77 O2    c       0.000113      0.000231      0.000801      0.000000
     78 O2    c       0.000011      0.000020     -0.000007      0.000000
     79 O3    c       0.000697     -0.000819      0.002276      0.000000
     80 O3    c       0.000110     -0.000076     -0.000185      0.000000
     81 O2    c      -0.000030      0.000029      0.000069      0.000000
     82 O2    c       0.000022     -0.000027     -0.000139      0.000000
     83 O2    c      -0.000002     -0.000026     -0.000149      0.000000
     84 O2    c       0.000054     -0.000039      0.000181      0.000000
     85 O2    c       0.000047      0.000008      0.000065      0.000000
     86 O2    c       0.001689     -0.000577     -0.000442      0.000000
     87 O2    c      -0.000038     -0.000050     -0.000113      0.000000
     88 O2    c       0.000053      0.000294      0.000287      0.000000
     89 O2    c       0.000024     -0.000004     -0.000007      0.000000
     90 O2    c      -0.000176      0.000087      0.000057      0.000000
     91 O3    c       0.000270     -0.000006     -0.000268      0.000000
     92 O2    c      -0.000038     -0.000006      0.000261      0.000000
     93 O3    c      -0.000383     -0.000625     -0.001726      0.000000
     94 O2    c      -0.000202      0.000088     -0.000834      0.000000
     95 O2    c      -0.000018     -0.000661     -0.003523      0.000000
     96 O2    c       0.000114      0.000010     -0.000214      0.000000
     97 O3    c      -0.002224      0.002124     -0.000824      0.000000
     98 O3    c      -0.000046      0.000032     -0.000080      0.000000
     99 O2    c       0.000017      0.000003     -0.000091      0.000000
    100 O2    c       0.000026     -0.000024      0.000065      0.000000
    101 O2    c       0.000003     -0.000034     -0.000098      0.000000
    102 O2    c       0.000166     -0.000076     -0.000289      0.000000
    103 O2    c      -0.000095      0.000071      0.000234      0.000000
    104 O2    c      -0.000782     -0.000298     -0.002480      0.000000
    105 O2    c      -0.000024      0.000007     -0.000099      0.000000
    106 O2    c       0.000004      0.000059      0.000219      0.000000
    107 O2    c      -0.000030     -0.000042      0.000172      0.000000
    108 O2    c       0.000038      0.000014     -0.000234      0.000000
    109 O2    c       0.000028      0.000074     -0.000234      0.000000
    110 O2    c      -0.000029     -0.000013     -0.000260      0.000000
    111 O2    c       0.000049     -0.000035     -0.000081      0.000000
    112 O2    c       0.000004     -0.000017      0.000075      0.000000
    113 O3    c       0.000961      0.001259     -0.008302      0.000000
    114 O2    c       0.000016     -0.000008     -0.000025      0.000000
    115 O2    c      -0.000145      0.000050     -0.000151      0.000000
    116 O2    c       0.000041     -0.000017     -0.000036      0.000000
    117 O2    c      -0.000003      0.000012     -0.000006      0.000000
    118 O2    c      -0.000049      0.000020      0.000056      0.000000
    119 O2    c      -0.000004      0.000012      0.000011      0.000000
    120 O2    c       0.000048     -0.000059      0.000100      0.000000
    121 O2    c       0.000030      0.000016     -0.000020      0.000000
    122 O2    c       0.000306     -0.000122      0.000003      0.000000
    123 O2    c      -0.000007      0.000006      0.000046      0.000000
    124 O2    c       0.000063     -0.000160      0.000006      0.000000
    125 O2    c       0.000047     -0.000022      0.000016      0.000000
    126 O2    c      -0.000018     -0.000005      0.000091      0.000000
    127 O3    c      -0.001723      0.000962      0.000931      0.000000
    128 O2    c       0.000020      0.000007      0.000017      0.000000
    129 O2    c       0.000008     -0.000018      0.000057      0.000000
    130 O2    c      -0.000021      0.000029     -0.000008      0.000000
    131 O2    c       0.000064     -0.000079      0.000014      0.000000
    132 O2    c      -0.000043     -0.000014      0.000133      0.000000
    133 O2    c       0.000041      0.000012     -0.000040      0.000000
    134 O2    c      -0.000028     -0.000018     -0.000106      0.000000
    135 O2    c      -0.000004     -0.000025     -0.000007      0.000000
    136 O2    c       0.000020     -0.000009      0.000044      0.000000
    137 O2    c       0.000060     -0.000029      0.000040      0.000000
    138 O2    c       0.000094     -0.000086     -0.000676      0.000000
    139 O3    c       0.000955      0.000885      0.001906      0.000000
    140 O2    c       0.000004      0.000019     -0.000061      0.000000
    141 O2    c       0.000003     -0.000013      0.000013      0.000000
    142 O2    c      -0.000004     -0.000001      0.000059      0.000000
    143 O2    c      -0.000030     -0.000011      0.000068      0.000000
    144 O2    c       0.000199     -0.000152      0.000073      0.000000
    145 O2    c       0.000069      0.000010     -0.000008      0.000000
    146 O2    c       0.000119     -0.000111     -0.000149      0.000000
    147 O2    c      -0.000020      0.000013     -0.000013      0.000000
    148 O2    c       0.000013      0.000001     -0.000035      0.000000
    149 O2    c       0.000020     -0.000028     -0.000035      0.000000
    150 O2    c       0.000571     -0.000512     -0.000101      0.000000
    151 O2    c       0.000098      0.000112      0.000783      0.000000
    152 O2    c      -0.000043      0.000029      0.000039      0.000000
    153 O2    c       0.000014     -0.000010     -0.000085      0.000000
    154 O2    c       0.000030      0.000006     -0.000014      0.000000
    155 O2    c       0.000031     -0.000019      0.000016      0.000000
    156 O2    c       0.000007     -0.000146      0.001138      0.000000
    157 O2    c       0.000033      0.000009      0.000066      0.000000
    158 O2    c      -0.000303     -0.000294     -0.002632      0.000000
    159 O2    c      -0.000007      0.000004     -0.000001      0.000000
    160 O2    c       0.000006     -0.000049      0.000118      0.000000
    161 O2    c      -0.000015      0.000033     -0.000111      0.000000
    162 O2    c       0.000106     -0.000000     -0.000362      0.000000
    163 O2    c       0.000156     -0.000177     -0.000190      0.000000
    164 O2    c      -0.000005      0.000005     -0.000025      0.000000
    165 O2    c       0.000016     -0.000036      0.000015      0.000000
    166 O2    c       0.000034     -0.000049      0.000002      0.000000
    167 O2    c       0.000017      0.000029     -0.000015      0.000000
    168 O2    c      -0.000007      0.000020     -0.000139      0.000000
    169 O2    c      -0.000038      0.000021      0.000038      0.000000
    170 O2    c       0.000215     -0.000579      0.000128      0.000000
    171 O2    c      -0.000014     -0.000007      0.000022      0.000000
    172 O2    c       0.000033      0.000017     -0.000072      0.000000
    173 O2    c      -0.000010     -0.000018     -0.000018      0.000000
    174 O2    c      -0.000102      0.000090      0.000240      0.000000
    175 O2    c      -0.000007      0.000029      0.000230      0.000000
    176 O2    c       0.000030      0.000003      0.000129      0.000000
    177 O2    c      -0.000156      0.000090      0.000840      0.000000
    178 O2    c       0.000005     -0.000013     -0.000048      0.000000
    179 O2    c       0.000000     -0.000020      0.000354      0.000000
    180 O2    c       0.000034     -0.000002      0.000140      0.000000
    181 F     c       0.000067      0.000038      0.000071      0.000000
    182 F     c      -0.000011      0.000005      0.000074      0.000000
    183 F     c       0.000054      0.000097     -0.000125      0.000000
    184 F     c       0.000002     -0.000009      0.000008      0.000000
    185 F     c      -0.000694     -0.000041      0.001282      0.000000
    186 F     c       0.000032      0.000005     -0.000024      0.000000
    187 O3    s      -0.000871      0.001420     -0.002246      0.000000
    188 O3    s       0.000090      0.000039      0.000101      0.000000
    189 O2    s       0.000000      0.000027      0.000038      0.000000
    190 O2    s      -0.000001      0.000071      0.000070      0.000000
    191 O2    s      -0.000032     -0.000007      0.000222      0.000000
    192 O2    s       0.000106     -0.000069      0.000398      0.000000
    193 O2    s      -0.000024      0.000023      0.000108      0.000000
    194 O2    s      -0.000008      0.000028     -0.000004      0.000000
    195 O2    s      -0.000054     -0.000343     -0.000076      0.000000
    196 O2    s      -0.000024     -0.000001     -0.000026      0.000000
    197 O2    s      -0.000056     -0.000095     -0.000111      0.000000
    198 O2    s       0.000003      0.000032      0.000002      0.000000
    199 O3    s      -0.000981      0.002522      0.001708      0.000000
    200 O2    s      -0.000010     -0.000018     -0.000042      0.000000
    201 O2    s       0.000028      0.000024     -0.000093      0.000000
    202 O2    s       0.000001      0.000020     -0.000005      0.000000
    203 O2    s      -0.000035     -0.000112     -0.000323      0.000000
    204 O2    s       0.000010     -0.000016      0.000099      0.000000
    205 O3    s       0.001307      0.000651     -0.002131      0.000000
    206 O3    s      -0.000046      0.000059      0.000212      0.000000
    207 O2    s       0.000025     -0.000028     -0.000011      0.000000
    208 O2    s       0.000037      0.000021      0.000075      0.000000
    209 O2    s       0.000070     -0.000027      0.000094      0.000000
    210 O2    s      -0.000100      0.000234     -0.000120      0.000000
    211 O2    s      -0.000048     -0.000034     -0.000058      0.000000
    212 O2    s       0.000185     -0.000902      0.001502      0.000000
    213 O2    s      -0.000045      0.000020     -0.000016      0.000000
    214 O2    s      -0.000084     -0.000270     -0.000628      0.000000
    215 O2    s      -0.000007      0.000051      0.000090      0.000000
    216 O2    s       0.000224     -0.000123     -0.000187      0.000000
    217 O3    s      -0.000103      0.000005      0.000397      0.000000
    218 O2    s      -0.000018      0.000017     -0.000008      0.000000
    219 O3    s       0.000485     -0.000377     -0.001145      0.000000
    220 O2    s       0.000080     -0.000018      0.000170      0.000000
    221 O2    s      -0.000536      0.000474      0.002009      0.000000
    222 O2    s      -0.000024      0.000067     -0.000123      0.000000
    223 O3    s      -0.000726      0.000822      0.000976      0.000000
    224 O3    s       0.000031      0.000141     -0.000044      0.000000
    225 O2    s       0.000007     -0.000035     -0.000005      0.000000
    226 O2    s      -0.000007      0.000012      0.000021      0.000000
    227 O2    s       0.000108      0.000028      0.000243      0.000000
    228 O2    s      -0.000073      0.000077      0.000175      0.000000
    229 O2    s      -0.000027      0.000072     -0.000137      0.000000
    230 O2    s      -0.000489     -0.000065      0.001266      0.000000
    231 O2    s      -0.000006      0.000011     -0.000039      0.000000
    232 O2    s      -0.000146      0.000000     -0.000474      0.000000
    233 O2    s       0.000053      0.000001     -0.000150      0.000000
    234 O2    s       0.000060     -0.000028      0.000347      0.000000
    235 O2    s      -0.000075      0.000002      0.000030      0.000000
    236 O2    s       0.000020      0.000000      0.000062      0.000000
    237 O2    s      -0.000035      0.000010      0.000196      0.000000
    238 O2    s      -0.000010      0.000017     -0.000083      0.000000
    239 O3    s      -0.000677     -0.000493      0.003766      0.000000
    240 O2    s      -0.000026      0.000007     -0.000046      0.000000
    241 O2    s      -0.000012     -0.000187      0.000486      0.000000
    242 O2    s      -0.000031      0.000005     -0.000054      0.000000
    243 O2    s       0.000008     -0.000024      0.000025      0.000000
    244 O2    s       0.000036     -0.000026     -0.000065      0.000000
    245 O2    s      -0.000008      0.000005      0.000015      0.000000
    246 O2    s      -0.000078     -0.000007     -0.000182      0.000000
    247 O2    s       0.000002      0.000037      0.000107      0.000000
    248 O2    s       0.000146     -0.000322      0.000441      0.000000
    249 O2    s       0.000001     -0.000025     -0.000076      0.000000
    250 O2    s      -0.000056      0.000014     -0.000115      0.000000
    251 O2    s       0.000024      0.000013      0.000000      0.000000
    252 O2    s       0.000062     -0.000004     -0.000133      0.000000
    253 O3    s       0.001225     -0.000589     -0.000762      0.000000
    254 O2    s       0.000012      0.000009     -0.000019      0.000000
    255 O2    s      -0.000011     -0.000020     -0.000050      0.000000
    256 O2    s       0.000022     -0.000008     -0.000068      0.000000
    257 O2    s      -0.000036      0.000074      0.000127      0.000000
    258 O2    s       0.000019      0.000001     -0.000318      0.000000
    259 O2    s      -0.000031     -0.000000      0.000164      0.000000
    260 O2    s       0.000065     -0.000018      0.000051      0.000000
    261 O2    s      -0.000037      0.000008     -0.000008      0.000000
    262 O2    s      -0.000043      0.000042     -0.000134      0.000000
    263 O2    s      -0.000006      0.000013     -0.000022      0.000000
    264 O2    s       0.000056     -0.000119      0.000038      0.000000
    265 O3    s      -0.000124     -0.001289     -0.000563      0.000000
    266 O2    s       0.000038     -0.000013      0.000113      0.000000
    267 O2    s      -0.000020     -0.000014     -0.000060      0.000000
    268 O2    s       0.000017     -0.000007     -0.000063      0.000000
    269 O2    s      -0.000058      0.000023      0.000024      0.000000
    270 O2    s      -0.000116      0.000036     -0.000179      0.000000
    271 O2    s       0.000054      0.000106     -0.000008      0.000000
    272 O2    s      -0.000105      0.000277      0.000335      0.000000
    273 O2    s      -0.000018     -0.000012      0.000021      0.000000
    274 O2    s      -0.000024     -0.000008      0.000007      0.000000
    275 O2    s      -0.000008      0.000009      0.000095      0.000000
    276 O2    s      -0.000288      0.000629     -0.000868      0.000000
    277 O2    s       0.000004     -0.000239     -0.000416      0.000000
    278 O2    s       0.000036      0.000013      0.000222      0.000000
    279 O2    s       0.000028     -0.000027      0.000016      0.000000
    280 O2    s      -0.000037      0.000004     -0.000021      0.000000
    281 O2    s      -0.000056      0.000028      0.000017      0.000000
    282 O2    s      -0.000055      0.000222     -0.000770      0.000000
    283 O2    s      -0.000006     -0.000006     -0.000016      0.000000
    284 O2    s       0.000280      0.000076      0.000838      0.000000
    285 O2    s       0.000008     -0.000008     -0.000071      0.000000
    286 O2    s      -0.000214      0.000028      0.000378      0.000000
    287 O2    s       0.000006     -0.000042      0.000066      0.000000
    288 O2    s      -0.000099      0.000003      0.000196      0.000000
    289 O2    s      -0.000251     -0.000105      0.000056      0.000000
    290 O2    s       0.000095      0.000039     -0.000012      0.000000
    291 O2    s      -0.000008      0.000023     -0.000028      0.000000
    292 O2    s       0.000003      0.000040     -0.000003      0.000000
    293 O2    s      -0.000042     -0.000010     -0.000023      0.000000
    294 O2    s       0.000062     -0.000042      0.000430      0.000000
    295 O2    s       0.000028      0.000060     -0.000010      0.000000
    296 O2    s      -0.000728      0.000993      0.000305      0.000000
    297 O2    s       0.000006     -0.000012     -0.000001      0.000000
    298 O2    s       0.000047     -0.000049      0.000265      0.000000
    299 O2    s       0.000064     -0.000007      0.000066      0.000000
    300 O2    s       0.000064      0.000078      0.000004      0.000000
    301 O2    s       0.000022     -0.000033      0.000164      0.000000
    302 O2    s       0.000001     -0.000007      0.000063      0.000000
    303 O2    s      -0.000113      0.000128     -0.001597      0.000000
    304 O2    s      -0.000023      0.000030      0.000107      0.000000
    305 O2    s       0.000056     -0.000126     -0.000417      0.000000
    306 O2    s       0.000016      0.000016     -0.000025      0.000000
    307 F     s      -0.000042     -0.000011     -0.000088      0.000000
    308 F     s       0.000031     -0.000013     -0.000115      0.000000
    309 F     s      -0.000050     -0.000207      0.000280      0.000000
    310 F     s      -0.000027      0.000009     -0.000015      0.000000
    311 F     s       0.000685      0.000182     -0.002036      0.000000
    312 F     s      -0.000024      0.000004      0.000062      0.000000
--------------------------------------------------------------------------------
  Maximum abs         0.003172      0.003423      0.008302      0.000000
--------------------------------------------------------------------------------


  Time to end of optimisation =       8.9183 seconds


  Peak dynamic memory used =      19.13 MB 


  Timing analysis for GULP :

--------------------------------------------------------------------------------
  Task / Subroutine                                          Time (Seconds)
--------------------------------------------------------------------------------
  Calculation of reciprocal space energy and derivatives          0.3232
  Calculation of real space energy and derivatives                7.4720
  Calculation of three-body energy and derivatives                0.8662
  Calculation of matrix inversion                                 0.1919
--------------------------------------------------------------------------------
  Total CPU time                                                  8.9183
--------------------------------------------------------------------------------


  Dump file written as out.res                                                 
  CIF file written as out.cif                                                 


  Job Finished at 12:40.16 30th November   2016                               

