********************************************************************************
*                       GENERAL UTILITY LATTICE PROGRAM                        *
*                                 Julian Gale                                  *
*                      Nanochemistry Research Institute                        *
*                           Department of Chemistry                            *
*                    Curtin University, Western Australia                      *
********************************************************************************
* Version = 4.2.0 * Last modified =  20th January 2014                         *
********************************************************************************
*  optimise     - perform optimisation run                                     *
*  conp         - constant pressure calculation                                *
*  qok          - running with non charge neutral cell is OK                   *
********************************************************************************

  Job Started  at 11:56.20 30th November   2016                               

  Number of CPUs =     1


  Total number of configurations input =   1

********************************************************************************
*  Input for Configuration =   1                                               *
********************************************************************************

  Formula = Ge3Si57O120F6                                               

  Number of irreducible atoms/shells =     312


  Total number atoms/shells =     312

  Dimensionality = 3               :  Bulk   


  Charge on solid   =  -6.000000 =>neutralising background added


  Cartesian lattice vectors (Angstroms) :

       11.975132    0.000000    0.000000
       -6.033418   10.374855    0.000000
       -0.135156   -0.179510   29.507244

  Cell parameters (Angstroms/Degrees):

  a =      11.9751    alpha =  90.1694
  b =      12.0017    beta  =  90.2624
  c =      29.5081    gamma = 120.1798

  Initial cell volume =        3665.987608 Angs**3

  Temperature of configuration =  0.000     K 

  Pressure of configuration =         0.000 GPa 

  Fractional coordinates of asymmetric unit :

--------------------------------------------------------------------------------
   No.  Atomic       x           y          z         Charge      Occupancy
        Label      (Frac)      (Frac)     (Frac)        (e)         (Frac)  
--------------------------------------------------------------------------------
      1 Ge    c    0.699600    0.375700    0.033890     4.00000    1.000000    
      2 Si    c    0.620800 *  0.321950 *  0.366672 *   4.00000    1.000000    
      3 Si    c    0.675987 *  0.298876 *  0.697968 *   4.00000    1.000000    
      4 Si    c    0.296716 *  0.620801 *  0.530614 *   4.00000    1.000000    
      5 Si    c    0.379189 *  0.677545 *  0.863847 *   4.00000    1.000000    
      6 Si    c    0.321270 *  0.702403 *  0.197003 *   4.00000    1.000000    
      7 Si    c    0.371800 *  0.696545 *  0.297847 *   4.00000    1.000000    
      8 Si    c    0.319772 *  0.618802 *  0.963329 *   4.00000    1.000000    
      9 Si    c    0.297039 *  0.676095 *  0.631180 *   4.00000    1.000000    
     10 Si    c    0.626841 *  0.299772 *  0.798923 *   4.00000    1.000000    
     11 Si    c    0.677221 *  0.382624 *  0.466711 *   4.00000    1.000000    
     12 Si    c    0.687721 *  0.318209 *  0.132665 *   4.00000    1.000000    
     13 Si    c    0.527566 *  0.413681 *  0.965659 *   4.00000    1.000000    
     14 Si    c    0.578985 *  0.110364 *  0.302160 *   4.00000    1.000000    
     15 Si    c    0.886340 *  0.469957 *  0.633268 *   4.00000    1.000000    
     16 Si    c    0.469145 *  0.585588 *  0.464789 *   4.00000    1.000000    
     17 Si    c    0.420857 *  0.885887 *  0.798096 *   4.00000    1.000000    
     18 Si    c    0.109736 *  0.532466 *  0.129881 *   4.00000    1.000000    
     19 Si    c    0.414858 *  0.528747 *  0.363142 *   4.00000    1.000000    
     20 Si    c    0.105440 *  0.581917 *  0.026756 *   4.00000    1.000000    
     21 Si    c    0.468125 *  0.887537 *  0.696426 *   4.00000    1.000000    
     22 Si    c    0.584394 *  0.468820 *  0.863935 *   4.00000    1.000000    
     23 Si    c    0.887071 *  0.417829 *  0.531751 *   4.00000    1.000000    
     24 Si    c    0.530198 *  0.111830 *  0.200800 *   4.00000    1.000000    
     25 Si    c    0.305236 *  0.402202 *  0.847658 *   4.00000    1.000000    
     26 Si    c    0.602016 *  0.903922 *  0.184967 *   4.00000    1.000000    
     27 Si    c    0.095003 *  0.697731 *  0.516907 *   4.00000    1.000000    
     28 Si    c    0.694559 *  0.596757 *  0.349361 *   4.00000    1.000000    
     29 Si    c    0.396496 *  0.096992 *  0.684001 *   4.00000    1.000000    
     30 Si    c    0.891193 *  0.295006 *  0.012228 *   4.00000    1.000000    
     31 Si    c    0.398407 *  0.306139 *  0.480698 *   4.00000    1.000000    
     32 Si    c    0.894595 *  0.602363 *  0.143088 *   4.00000    1.000000    
     33 Si    c    0.702316 *  0.097251 *  0.811648 *   4.00000    1.000000    
     34 Si    c    0.597693 *  0.694700 *  0.979601 *   4.00000    1.000000    
     35 Si    c    0.095994 *  0.398706 *  0.646684 *   4.00000    1.000000    
     36 Si    c    0.297297 *  0.899001 *  0.313212 *   4.00000    1.000000    
     37 Si    c    0.249208 *  0.338913 *  0.947195 *   4.00000    1.000000    
     38 Si    c    0.653331 *  0.908069 *  0.286008 *   4.00000    1.000000    
     39 Si    c    0.088187 *  0.748546 *  0.617433 *   4.00000    1.000000    
     40 Si    c    0.748080 *  0.662317 *  0.449405 *   4.00000    1.000000    
     41 Si    c    0.345800 *  0.088520 *  0.784878 *   4.00000    1.000000    
     42 Si    c    0.903581 *  0.250513 *  0.114747 *   4.00000    1.000000    
     43 Si    c    0.341048 *  0.252256 *  0.380209 *   4.00000    1.000000    
     44 Si    c    0.900404 *  0.660183 *  0.040768 *   4.00000    1.000000    
     45 Si    c    0.747838 *  0.090280 *  0.710754 *   4.00000    1.000000    
     46 Si    c    0.658100 *  0.746096 *  0.879449 *   4.00000    1.000000    
     47 Si    c    0.087751 *  0.340019 *  0.546085 *   4.00000    1.000000    
     48 Si    c    0.249639 *  0.910216 *  0.212535 *   4.00000    1.000000    
     49 Si    c    0.971035 *  0.120862 *  0.963844 *   4.00000    1.000000    
     50 Ge    c    0.875374 *  0.846912 *  0.298451 *   4.00000    1.000000    
     51 Si    c    0.149584 *  0.028273 *  0.631159 *   4.00000    1.000000    
     52 Si    c    0.029211 *  0.878714 *  0.465641 *   4.00000    1.000000    
     53 Ge    c    0.124095 *  0.149309 *  0.797550 *   4.00000    1.000000    
     54 Si    c    0.847301 *  0.973671 *  0.131213 *   4.00000    1.000000    
     55 Si    c    0.123876 *  0.971430 *  0.365044 *   4.00000    1.000000    
     56 Si    c    0.846675 *  0.881454 *  0.029908 *   4.00000    1.000000    
     57 Si    c    0.025262 *  0.148408 *  0.694794 *   4.00000    1.000000    
     58 Si    c    0.876482 *  0.023984 *  0.863463 *   4.00000    1.000000    
     59 Si    c    0.150851 *  0.123012 *  0.530617 *   4.00000    1.000000    
     60 Si    c    0.972120 *  0.853393 *  0.194682 *   4.00000    1.000000    
     61 O2    c    0.927169 *  0.004230 *  0.998519 *   0.87073    1.000000    
     62 O3    c    0.005704 *  0.938027 *  0.332616 *   1.33043    1.000000    
     63 O2    c    0.065075 *  0.070675 *  0.660328 *   0.87073    1.000000    
     64 O2    c    0.071595 *  0.002624 *  0.497167 *   0.87073    1.000000    
     65 O3    c    0.995646 *  0.059061 *  0.831981 *   1.33043    1.000000    
     66 O2    c    0.934568 *  0.936108 *  0.161679 *   0.87073    1.000000    
     67 O2    c    0.335436 *  0.573646 *  0.330143 *   0.87073    1.000000    
     68 O2    c    0.420795 *  0.762894 *  0.663584 *   0.87073    1.000000    
     69 O2    c    0.232872 *  0.655759 *  0.995668 *   0.87073    1.000000    
     70 O2    c    0.663866 *  0.421837 *  0.832121 *   0.87073    1.000000    
     71 O2    c    0.579738 *  0.239884 *  0.170721 *   0.87073    1.000000    
     72 O2    c    0.759959 *  0.342975 *  0.499594 *   0.87073    1.000000    
     73 O3    c    0.567119 *  0.334781 *  0.998233 *   1.33043    1.000000    
     74 O2    c    0.760971 *  0.421932 *  0.665425 *   0.87073    1.000000    
     75 O2    c    0.657586 *  0.234230 *  0.335159 *   0.87073    1.000000    
     76 O2    c    0.418845 *  0.660501 *  0.497308 *   0.87073    1.000000    
     77 O2    c    0.235057 *  0.582117 *  0.162554 *   0.87073    1.000000    
     78 O2    c    0.342844 *  0.762334 *  0.830692 *   0.87073    1.000000    
     79 O2    c    0.125483 *  0.211502 *  0.967723 *   0.87073    1.000000    
     80 O3    c    0.776809 *  0.910605 *  0.307634 *   1.33043    1.000000    
     81 O2    c    0.087881 *  0.874578 *  0.637348 *   0.87073    1.000000    
     82 O2    c    0.874271 *  0.789349 *  0.469621 *   0.87073    1.000000    
     83 O3    c    0.222385 *  0.085182 *  0.806566 *   1.33043    1.000000    
     84 O2    c    0.907074 *  0.127816 *  0.135944 *   0.87073    1.000000    
     85 O2    c    0.216640 *  0.124999 *  0.360169 *   0.87073    1.000000    
     86 O2    c    0.917049 *  0.797822 *  0.025171 *   0.87073    1.000000    
     87 O2    c    0.871271 *  0.089309 *  0.688911 *   0.87073    1.000000    
     88 O2    c    0.782933 *  0.870428 *  0.858815 *   0.87073    1.000000    
     89 O2    c    0.086106 *  0.212579 *  0.526421 *   0.87073    1.000000    
     90 O2    c    0.126458 *  0.912827 *  0.190804 *   0.87073    1.000000    
     91 O3    c    0.931888 *  0.868599 *  0.244192 *   1.33043    1.000000    
     92 O2    c    0.141132 *  0.065613 *  0.579920 *   0.87073    1.000000    
     93 O2    c    0.928047 *  0.062486 *  0.914257 *   0.87073    1.000000    
     94 O3    c    0.062053 *  0.124362 *  0.743731 *   1.33043    1.000000    
     95 O2    c    0.853179 *  0.933001 *  0.080433 *   0.87073    1.000000    
     96 O2    c    0.071786 *  0.929300 *  0.415326 *   0.87073    1.000000    
     97 O2    c    0.903590 *  0.204177 *  0.974571 *   0.87073    1.000000    
     98 O3    c    0.790569 *  0.685032 *  0.309921 *   1.33043    1.000000    
     99 O2    c    0.299801 *  0.099821 *  0.645785 *   0.87073    1.000000    
    100 O2    c    0.096691 *  0.795932 *  0.478798 *   0.87073    1.000000    
    101 O3    c    0.210281 *  0.312038 *  0.807781 *   1.33043    1.000000    
    102 O2    c    0.698103 *  0.902214 *  0.146717 *   0.87073    1.000000    
    103 O2    c    0.199847 *  0.896598 *  0.351603 *   0.87073    1.000000    
    104 O2    c    0.694837 *  0.794690 *  0.017884 *   0.87073    1.000000    
    105 O2    c    0.097456 *  0.301790 *  0.684778 *   0.87073    1.000000    
    106 O2    c    0.800520 *  0.098795 *  0.849959 *   0.87073    1.000000    
    107 O2    c    0.302469 *  0.208843 *  0.518950 *   0.87073    1.000000    
    108 O2    c    0.899993 *  0.701769 *  0.181603 *   0.87073    1.000000    
    109 O2    c    0.317789 *  0.641384 *  0.246762 *   0.87073    1.000000    
    110 O2    c    0.354642 *  0.677178 *  0.580988 *   0.87073    1.000000    
    111 O2    c    0.320209 *  0.678257 *  0.913624 *   0.87073    1.000000    
    112 O2    c    0.680352 *  0.356811 *  0.748479 *   0.87073    1.000000    
    113 O3    c    0.615375 *  0.304706 *  0.085710 *   1.33043    1.000000    
    114 O2    c    0.677265 *  0.323062 *  0.417005 *   0.87073    1.000000    
    115 O2    c    0.370268 *  0.328734 *  0.965623 *   0.87073    1.000000    
    116 O2    c    0.664301 *  0.040445 *  0.304324 *   0.87073    1.000000    
    117 O2    c    0.956003 *  0.626299 *  0.635833 *   0.87073    1.000000    
    118 O2    c    0.625865 *  0.673028 *  0.467439 *   0.87073    1.000000    
    119 O2    c    0.335280 *  0.955323 *  0.801471 *   0.87073    1.000000    
    120 O2    c    0.036477 *  0.376587 *  0.131454 *   0.87073    1.000000    
    121 O2    c    0.328994 *  0.372381 *  0.360945 *   0.87073    1.000000    
    122 O2    c    0.034129 *  0.666009 *  0.024862 *   0.87073    1.000000    
    123 O2    c    0.624307 *  0.957845 *  0.692758 *   0.87073    1.000000    
    124 O2    c    0.669372 *  0.624898 *  0.860979 *   0.87073    1.000000    
    125 O2    c    0.954943 *  0.329970 *  0.527719 *   0.87073    1.000000    
    126 O2    c    0.374053 *  0.042039 *  0.195627 *   0.87073    1.000000    
    127 O3    c    0.756591 *  0.285098 *  0.002895 *   1.33043    1.000000    
    128 O2    c    0.695462 *  0.463060 *  0.343458 *   0.87073    1.000000    
    129 O2    c    0.531435 *  0.230422 *  0.676134 *   0.87073    1.000000    
    130 O2    c    0.227849 *  0.695810 *  0.508915 *   0.87073    1.000000    
    131 O2    c    0.305212 *  0.535783 *  0.840502 *   0.87073    1.000000    
    132 O2    c    0.465561 *  0.771856 *  0.175688 *   0.87073    1.000000    
    133 O2    c    0.295630 *  0.763999 *  0.319539 *   0.87073    1.000000    
    134 O2    c    0.462665 *  0.693961 *  0.986559 *   0.87073    1.000000    
    135 O2    c    0.230246 *  0.533492 *  0.653755 *   0.87073    1.000000    
    136 O2    c    0.702874 *  0.231164 *  0.819921 *   0.87073    1.000000    
    137 O2    c    0.533763 *  0.309436 *  0.488670 *   0.87073    1.000000    
    138 O2    c    0.762561 *  0.467637 *  0.151283 *   0.87073    1.000000    
    139 O3    c    0.773613 *  0.546636 *  0.019551 *   1.33043    1.000000    
    140 O2    c    0.465025 *  0.248513 *  0.361195 *   0.87073    1.000000    
    141 O2    c    0.749331 *  0.217098 *  0.692033 *   0.87073    1.000000    
    142 O2    c    0.214294 *  0.464552 *  0.526152 *   0.87073    1.000000    
    143 O2    c    0.535140 *  0.751534 *  0.859866 *   0.87073    1.000000    
    144 O2    c    0.246029 *  0.782729 *  0.192739 *   0.87073    1.000000    
    145 O2    c    0.527146 *  0.779937 *  0.303862 *   0.87073    1.000000    
    146 O2    c    0.244341 *  0.462665 *  0.966860 *   0.87073    1.000000    
    147 O2    c    0.215087 *  0.749709 *  0.636454 *   0.87073    1.000000    
    148 O2    c    0.471500 *  0.215933 *  0.804222 *   0.87073    1.000000    
    149 O2    c    0.750898 *  0.538912 *  0.469664 *   0.87073    1.000000    
    150 O2    c    0.780618 *  0.254604 *  0.134199 *   0.87073    1.000000    
    151 O2    c    0.229035 *  0.321522 *  0.892626 *   0.87073    1.000000    
    152 O2    c    0.673822 *  0.904332 *  0.231675 *   0.87073    1.000000    
    153 O2    c    0.090381 *  0.767585 *  0.563209 *   0.87073    1.000000    
    154 O2    c    0.767458 *  0.678792 *  0.394927 *   0.87073    1.000000    
    155 O2    c    0.324157 *  0.094129 *  0.730620 *   0.87073    1.000000    
    156 O2    c    0.899337 *  0.233351 *  0.060643 *   0.87073    1.000000    
    157 O2    c    0.323708 *  0.234870 *  0.434382 *   0.87073    1.000000    
    158 O2    c    0.896555 *  0.669651 *  0.096016 *   0.87073    1.000000    
    159 O2    c    0.771854 *  0.094157 *  0.764955 *   0.87073    1.000000    
    160 O2    c    0.674632 *  0.764496 *  0.933780 *   0.87073    1.000000    
    161 O2    c    0.090211 *  0.323486 *  0.600273 *   0.87073    1.000000    
    162 O2    c    0.227506 *  0.905350 *  0.266752 *   0.87073    1.000000    
    163 O2    c    0.580153 *  0.555068 *  0.988742 *   0.87073    1.000000    
    164 O2    c    0.436329 *  0.023894 *  0.323593 *   0.87073    1.000000    
    165 O2    c    0.971533 *  0.413796 *  0.655974 *   0.87073    1.000000    
    166 O2    c    0.412527 *  0.445629 *  0.488271 *   0.87073    1.000000    
    167 O2    c    0.563875 *  0.970657 *  0.820208 *   0.87073    1.000000    
    168 O2    c    0.017617 *  0.582977 *  0.149521 *   0.87073    1.000000    
    169 O2    c    0.555736 *  0.584825 *  0.340002 *   0.87073    1.000000    
    170 O2    c    0.014665 *  0.439391 *  0.006283 *   0.87073    1.000000    
    171 O2    c    0.407874 *  0.970365 *  0.674709 *   0.87073    1.000000    
    172 O2    c    0.443588 *  0.412309 *  0.840073 *   0.87073    1.000000    
    173 O2    c    0.969064 *  0.558231 *  0.508213 *   0.87073    1.000000    
    174 O2    c    0.591637 *  0.031732 *  0.177534 *   0.87073    1.000000    
    175 O2    c    0.580121 *  0.164798 *  0.251801 *   0.87073    1.000000    
    176 O2    c    0.833429 *  0.416408 *  0.582375 *   0.87073    1.000000    
    177 O2    c    0.583355 *  0.417903 *  0.914827 *   0.87073    1.000000    
    178 O2    c    0.417986 *  0.832476 *  0.747078 *   0.87073    1.000000    
    179 O2    c    0.153276 *  0.580374 *  0.078486 *   0.87073    1.000000    
    180 O2    c    0.415820 *  0.584053 *  0.413726 *   0.87073    1.000000    
    181 F     c    0.448638 *  0.901896 *  0.248489 *   0.56000    1.000000    
    182 F     c    0.094902 *  0.546876 *  0.581340 *   0.56000    1.000000    
    183 F     c    0.446937 *  0.547728 *  0.912906 *   0.56000    1.000000    
    184 F     c    0.549081 *  0.096320 *  0.747383 *   0.56000    1.000000    
    185 F     c    0.852863 *  0.435191 *  0.070441 *   0.56000    1.000000    
    186 F     c    0.548799 *  0.455035 *  0.414191 *   0.56000    1.000000    
    187 O2    s    0.922961 *  0.003435 *  0.998182 *  -2.87073    1.000000    
    188 O3    s    0.007040 *  0.933599 *  0.333136 *  -3.33043    1.000000    
    189 O2    s    0.070265 *  0.074415 *  0.660802 *  -2.87073    1.000000    
    190 O2    s    0.075686 *  0.002186 *  0.497369 *  -2.87073    1.000000    
    191 O3    s    0.993867 *  0.063138 *  0.832395 *  -3.33043    1.000000    
    192 O2    s    0.929012 *  0.931265 *  0.161898 *  -2.87073    1.000000    
    193 O2    s    0.347127 *  0.581668 *  0.330151 *  -2.87073    1.000000    
    194 O2    s    0.412816 *  0.766713 *  0.663585 *  -2.87073    1.000000    
    195 O2    s    0.228150 *  0.644274 *  0.995686 *  -2.87073    1.000000    
    196 O2    s    0.652049 *  0.414069 *  0.831921 *  -2.87073    1.000000    
    197 O2    s    0.585774 *  0.234455 *  0.169929 *  -2.87073    1.000000    
    198 O2    s    0.764422 *  0.354841 *  0.499452 *  -2.87073    1.000000    
    199 O3    s    0.572905 *  0.346086 *  0.997515 *  -3.33043    1.000000    
    200 O2    s    0.765239 *  0.414381 *  0.665423 *  -2.87073    1.000000    
    201 O2    s    0.645602 *  0.230356 *  0.334970 *  -2.87073    1.000000    
    202 O2    s    0.411613 *  0.648782 *  0.497355 *  -2.87073    1.000000    
    203 O2    s    0.230569 *  0.588917 *  0.162584 *  -2.87073    1.000000    
    204 O2    s    0.354720 *  0.766438 *  0.830725 *  -2.87073    1.000000    
    205 O2    s    0.121552 *  0.214845 *  0.965210 *  -2.87073    1.000000    
    206 O3    s    0.772398 *  0.905066 *  0.304709 *  -3.33043    1.000000    
    207 O2    s    0.094418 *  0.877735 *  0.634662 *  -2.87073    1.000000    
    208 O2    s    0.877646 *  0.785692 *  0.467131 *  -2.87073    1.000000    
    209 O3    s    0.226739 *  0.090824 *  0.803638 *  -3.33043    1.000000    
    210 O2    s    0.900447 *  0.124424 *  0.133275 *  -2.87073    1.000000    
    211 O2    s    0.220013 *  0.122143 *  0.362818 *  -2.87073    1.000000    
    212 O2    s    0.907777 *  0.792924 *  0.027234 *  -2.87073    1.000000    
    213 O2    s    0.874651 *  0.095653 *  0.691773 *  -2.87073    1.000000    
    214 O2    s    0.779683 *  0.873703 *  0.861487 *  -2.87073    1.000000    
    215 O2    s    0.093128 *  0.216186 *  0.528859 *  -2.87073    1.000000    
    216 O2    s    0.123000 *  0.906274 *  0.193450 *  -2.87073    1.000000    
    217 O3    s    0.931311 *  0.865020 *  0.243530 *  -3.33043    1.000000    
    218 O2    s    0.143197 *  0.067980 *  0.580061 *  -2.87073    1.000000    
    219 O2    s    0.927176 *  0.064870 *  0.914242 *  -2.87073    1.000000    
    220 O3    s    0.063445 *  0.129170 *  0.743075 *  -3.33043    1.000000    
    221 O2    s    0.851776 *  0.931969 *  0.080676 *  -2.87073    1.000000    
    222 O2    s    0.072827 *  0.928294 *  0.415374 *  -2.87073    1.000000    
    223 O2    s    0.909736 *  0.204614 *  0.977381 *  -2.87073    1.000000    
    224 O3    s    0.788441 *  0.690021 *  0.312732 *  -3.33043    1.000000    
    225 O2    s    0.293626 *  0.091885 *  0.648125 *  -2.87073    1.000000    
    226 O2    s    0.089298 *  0.794691 *  0.481304 *  -2.87073    1.000000    
    227 O3    s    0.212161 *  0.307088 *  0.810725 *  -3.33043    1.000000    
    228 O2    s    0.704007 *  0.909958 *  0.149020 *  -2.87073    1.000000    
    229 O2    s    0.201957 *  0.904661 *  0.349024 *  -2.87073    1.000000    
    230 O2    s    0.701028 *  0.793717 *  0.015263 *  -2.87073    1.000000    
    231 O2    s    0.089881 *  0.295823 *  0.681962 *  -2.87073    1.000000    
    232 O2    s    0.798376 *  0.090799 *  0.847405 *  -2.87073    1.000000    
    233 O2    s    0.296319 *  0.209840 *  0.516223 *  -2.87073    1.000000    
    234 O2    s    0.906938 *  0.707338 *  0.179010 *  -2.87073    1.000000    
    235 O2    s    0.323498 *  0.653007 *  0.246820 *  -2.87073    1.000000    
    236 O2    s    0.342897 *  0.671291 *  0.580914 *  -2.87073    1.000000    
    237 O2    s    0.326092 *  0.672125 *  0.913650 *  -2.87073    1.000000    
    238 O2    s    0.674504 *  0.345168 *  0.748444 *  -2.87073    1.000000    
    239 O3    s    0.628338 *  0.310825 *  0.086971 *  -3.33043    1.000000    
    240 O2    s    0.671418 *  0.329057 *  0.416862 *  -2.87073    1.000000    
    241 O2    s    0.372979 *  0.338506 *  0.963583 *  -2.87073    1.000000    
    242 O2    s    0.654054 *  0.033859 *  0.302141 *  -2.87073    1.000000    
    243 O2    s    0.962673 *  0.623038 *  0.633637 *  -2.87073    1.000000    
    244 O2    s    0.622456 *  0.662945 *  0.465280 *  -2.87073    1.000000    
    245 O2    s    0.345508 *  0.962113 *  0.799327 *  -2.87073    1.000000    
    246 O2    s    0.030375 *  0.379801 *  0.129566 *  -2.87073    1.000000    
    247 O2    s    0.339094 *  0.376021 *  0.363185 *  -2.87073    1.000000    
    248 O2    s    0.028398 *  0.656559 *  0.026630 *  -2.87073    1.000000    
    249 O2    s    0.621167 *  0.964572 *  0.695054 *  -2.87073    1.000000    
    250 O2    s    0.659373 *  0.621448 *  0.863229 *  -2.87073    1.000000    
    251 O2    s    0.961791 *  0.340022 *  0.530046 *  -2.87073    1.000000    
    252 O2    s    0.376889 *  0.035149 *  0.197974 *  -2.87073    1.000000    
    253 O3    s    0.767030 *  0.292170 *  0.006015 *  -3.33043    1.000000    
    254 O2    s    0.687533 *  0.462362 *  0.346549 *  -2.87073    1.000000    
    255 O2    s    0.532265 *  0.223574 *  0.679233 *  -2.87073    1.000000    
    256 O2    s    0.220972 *  0.688294 *  0.512009 *  -2.87073    1.000000    
    257 O2    s    0.312974 *  0.536496 *  0.843750 *  -2.87073    1.000000    
    258 O2    s    0.464678 *  0.778257 *  0.178874 *  -2.87073    1.000000    
    259 O2    s    0.303616 *  0.771120 *  0.316600 *  -2.87073    1.000000    
    260 O2    s    0.461863 *  0.686325 *  0.983437 *  -2.87073    1.000000    
    261 O2    s    0.222977 *  0.533926 *  0.650666 *  -2.87073    1.000000    
    262 O2    s    0.695008 *  0.224256 *  0.816856 *  -2.87073    1.000000    
    263 O2    s    0.534242 *  0.316678 *  0.485525 *  -2.87073    1.000000    
    264 O2    s    0.769268 *  0.467383 *  0.148559 *  -2.87073    1.000000    
    265 O3    s    0.783059 *  0.548491 *  0.022723 *  -3.33043    1.000000    
    266 O2    s    0.467996 *  0.256767 *  0.363807 *  -2.87073    1.000000    
    267 O2    s    0.741379 *  0.211848 *  0.694656 *  -2.87073    1.000000    
    268 O2    s    0.209178 *  0.467413 *  0.528723 *  -2.87073    1.000000    
    269 O2    s    0.531998 *  0.742998 *  0.862398 *  -2.87073    1.000000    
    270 O2    s    0.254353 *  0.787970 *  0.195283 *  -2.87073    1.000000    
    271 O2    s    0.524239 *  0.784981 *  0.301313 *  -2.87073    1.000000    
    272 O2    s    0.252754 *  0.465908 *  0.964440 *  -2.87073    1.000000    
    273 O2    s    0.209685 *  0.741799 *  0.633856 *  -2.87073    1.000000    
    274 O2    s    0.474448 *  0.211009 *  0.801593 *  -2.87073    1.000000    
    275 O2    s    0.742781 *  0.535873 *  0.467186 *  -2.87073    1.000000    
    276 O2    s    0.784892 *  0.260635 *  0.131894 *  -2.87073    1.000000    
    277 O2    s    0.238682 *  0.331304 *  0.893704 *  -2.87073    1.000000    
    278 O2    s    0.664234 *  0.904597 *  0.232338 *  -2.87073    1.000000    
    279 O2    s    0.090617 *  0.758166 *  0.564070 *  -2.87073    1.000000    
    280 O2    s    0.758107 *  0.668881 *  0.395921 *  -2.87073    1.000000    
    281 O2    s    0.333865 *  0.093918 *  0.731281 *  -2.87073    1.000000    
    282 O2    s    0.898943 *  0.241306 *  0.061730 *  -2.87073    1.000000    
    283 O2    s    0.333456 *  0.244285 *  0.433497 *  -2.87073    1.000000    
    284 O2    s    0.896626 *  0.661217 *  0.095733 *  -2.87073    1.000000    
    285 O2    s    0.762229 *  0.094105 *  0.764116 *  -2.87073    1.000000    
    286 O2    s    0.664813 *  0.755224 *  0.932817 *  -2.87073    1.000000    
    287 O2    s    0.090550 *  0.333119 *  0.599345 *  -2.87073    1.000000    
    288 O2    s    0.236946 *  0.905173 *  0.265858 *  -2.87073    1.000000    
    289 O2    s    0.576456 *  0.556057 *  0.985379 *  -2.87073    1.000000    
    290 O2    s    0.436282 *  0.019294 *  0.320210 *  -2.87073    1.000000    
    291 O2    s    0.976177 *  0.418244 *  0.652600 *  -2.87073    1.000000    
    292 O2    s    0.417111 *  0.445197 *  0.484983 *  -2.87073    1.000000    
    293 O2    s    0.563875 *  0.975655 *  0.816942 *  -2.87073    1.000000    
    294 O2    s    0.014267 *  0.579501 *  0.146729 *  -2.87073    1.000000    
    295 O2    s    0.555784 *  0.580098 *  0.343403 *  -2.87073    1.000000    
    296 O2    s    0.011623 *  0.440023 *  0.009122 *  -2.87073    1.000000    
    297 O2    s    0.413087 *  0.975485 *  0.677964 *  -2.87073    1.000000    
    298 O2    s    0.443505 *  0.417246 *  0.843363 *  -2.87073    1.000000    
    299 O2    s    0.974290 *  0.558672 *  0.511601 *  -2.87073    1.000000    
    300 O2    s    0.586258 *  0.026162 *  0.180719 *  -2.87073    1.000000    
    301 O2    s    0.574702 *  0.153474 *  0.251725 *  -2.87073    1.000000    
    302 O2    s    0.844511 *  0.422114 *  0.582377 *  -2.87073    1.000000    
    303 O2    s    0.577902 *  0.422856 *  0.914572 *  -2.87073    1.000000    
    304 O2    s    0.423482 *  0.843678 *  0.747093 *  -2.87073    1.000000    
    305 O2    s    0.143824 *  0.575440 *  0.078703 *  -2.87073    1.000000    
    306 O2    s    0.421172 *  0.578543 *  0.413753 *  -2.87073    1.000000    
    307 F     s    0.448401 *  0.901525 *  0.248412 *  -1.56000    1.000000    
    308 F     s    0.095249 *  0.546977 *  0.581300 *  -1.56000    1.000000    
    309 F     s    0.446278 *  0.548051 *  0.912780 *  -1.56000    1.000000    
    310 F     s    0.549231 *  0.096699 *  0.747339 *  -1.56000    1.000000    
    311 F     s    0.843440 *  0.431501 *  0.068377 *  -1.56000    1.000000    
    312 F     s    0.549148 *  0.455014 *  0.414075 *  -1.56000    1.000000    
--------------------------------------------------------------------------------



********************************************************************************
*  General input information                                                   *
********************************************************************************

  Species output for all configurations : 

--------------------------------------------------------------------------------
  Species    Type    Atomic    Atomic    Charge       Radii (Angs)     Library
                     Number     Mass       (e)     Cova   Ionic  VDW   Symbol
--------------------------------------------------------------------------------
    Si       Core       14      28.09   4.000000   1.200  0.000  2.100          
    O1       Core        8      16.00   1.733957   0.730  0.000  1.360          
    O1       Shell       8       0.00  -3.733957   0.730  0.000  1.360          
    O2       Core        8      16.00   0.870733   0.730  0.000  1.360          
    O2       Shell       8       0.00  -2.870733   0.730  0.000  1.360          
    O3       Core        8      16.00   1.330431   0.730  0.000  1.360          
    O3       Shell       8       0.00  -3.330431   0.730  0.000  1.360          
    F        Core        9      19.00   0.560000   0.710  0.000  1.300          
    F        Shell       9       0.00  -1.560000   0.710  0.000  1.300          
    Ge       Core       32      72.61   4.000000   1.170  0.000  1.750          
--------------------------------------------------------------------------------


  Lattice summation method               =    Ewald          (3-D)
                                         =    Parry          (2-D)
                                         =    Saunders et al (1-D)
  Accuracy factor for lattice sums       =   12.000


  Time limit = Infinity

  Maximum range for interatomic potentials =        16.000000 Angstroms

  Taper potentials to zero over   1.0000 Angstroms using polynomial

  General interatomic potentials :

--------------------------------------------------------------------------------
Atom  Types   Potential         A         B         C         D     Cutoffs(Ang)
  1     2                                                            Min    Max 
--------------------------------------------------------------------------------
Si   c O1   s Buckingham    0.132E+04 0.318      10.1      0.00     0.000 16.000
Si   c O2   s Buckingham    0.132E+04 0.318      10.1      0.00     0.000 16.000
Si   c O3   s Buckingham    0.132E+04 0.318      10.1      0.00     0.000 16.000
Ge   c O1   s Buckingham    0.150E+04 0.326      16.8      0.00     0.000 16.000
Ge   c O2   s Buckingham    0.150E+04 0.326      16.8      0.00     0.000 16.000
Ge   c O3   s Buckingham    0.150E+04 0.326      16.8      0.00     0.000 16.000
O1   s O1   s Buckingham    0.228E+05 0.149      10.9      0.00     0.000 16.000
O1   s O2   s Buckingham    0.228E+05 0.149      10.9      0.00     0.000 16.000
O1   s O3   s Buckingham    0.228E+05 0.149      10.9      0.00     0.000 16.000
O2   s O2   s Buckingham    0.228E+05 0.149      10.9      0.00     0.000 16.000
O2   s O3   s Buckingham    0.228E+05 0.149      10.9      0.00     0.000 16.000
O3   s O3   s Buckingham    0.228E+05 0.149      10.9      0.00     0.000 16.000
Si   c F    s Buckingham     977.     0.282      0.00      0.00     0.000 16.000
Ge   c F    s Buckingham     681.     0.320      0.00      0.00     0.000 16.000
F    s F    s Buckingham     540.     0.262      0.00      0.00     0.000 16.000
O1   s F    s Buckingham    0.168E+04 0.268      0.00      0.00     0.000 16.000
O2   s F    s Buckingham    0.168E+04 0.268      0.00      0.00     0.000 16.000
O3   s F    s Buckingham    0.168E+04 0.268      0.00      0.00     0.000 16.000
O2   c O2   s Spring (c-s)   76.0      0.00      0.00      0.00     0.000  0.800
O3   c O3   s Spring (c-s)   128.      0.00      0.00      0.00     0.000  0.800
O1   c O1   s Spring (c-s)   180.      0.00      0.00      0.00     0.000  0.800
F    c F    s Spring (c-s)   33.5      0.00      0.00      0.00     0.000  0.800
--------------------------------------------------------------------------------

  General Three-body potentials :

  Harmonic form:

--------------------------------------------------------------------------------
Atom    Atom    Atom           Force Constants            Theta     Cutoffs  
  1       2       3     (eVrad**-2/eVrad**-3/eVrad**-4)   (deg)  1-2  1-3  2-3
--------------------------------------------------------------------------------
Si    c O1    s O1    s  1.261        0.0000    0.0000   109.470 0.00 0.00 0.00
                                                                 1.90 1.90 3.50
Si    c O1    s O2    s  1.261        0.0000    0.0000   109.470 0.00 0.00 0.00
                                                                 1.90 1.90 3.50
Si    c O2    s O2    s  1.261        0.0000    0.0000   109.470 0.00 0.00 0.00
                                                                 1.90 1.90 3.50
--------------------------------------------------------------------------------

********************************************************************************
*  Output for configuration   1                                                *
********************************************************************************


  Components of energy : 

--------------------------------------------------------------------------------
  Interatomic potentials     =        2060.44686115 eV
  Three-body potentials      =           0.44946385 eV
  Monopole - monopole (real) =       -6611.71209902 eV
  Monopole - monopole (recip)=       -3168.70326733 eV
  Monopole - monopole (total)=       -9780.41536635 eV
  Neutralising energy        =          -6.45463389 eV
--------------------------------------------------------------------------------
  Total lattice energy       =       -7725.97367523 eV
--------------------------------------------------------------------------------
  Total lattice energy       =         -745438.3573 kJ/(mole unit cells)
--------------------------------------------------------------------------------


  Number of variables =      939

  Maximum number of calculations  =          1000
  Maximum Hessian update interval =            10
  Maximum step size               =   1.000000000
  Maximum parameter tolerance     =   0.000010000
  Maximum function  tolerance     =   0.000010000
  Maximum gradient  tolerance     =   0.001000000
  Maximum gradient  component     =   0.010000000

  Symmetry not applied to optimisation

  Cell parameters to be optimised using strains

  Newton-Raphson optimiser to be used

  BFGS hessian update to be used

  Dumpfile to be written after every cycle

  Start of bulk optimisation :

  Cycle:      0 Energy:     -7725.973675  Gnorm:      0.006733  CPU:    1.058
  ** Hessian calculated **
  Cycle:      1 Energy:     -7726.075244  Gnorm:      0.006352  CPU:    3.369
  Cycle:      2 Energy:     -7726.079558  Gnorm:      0.002063  CPU:    4.794
  Cycle:      3 Energy:     -7726.080107  Gnorm:      0.000490  CPU:    6.219
  Cycle:      4 Energy:     -7726.080142  Gnorm:      0.000066  CPU:    7.644


  **** Optimisation achieved ****


  Final energy =   -7726.08014243 eV
  Final Gnorm  =       0.00001468

  Components of energy : 

--------------------------------------------------------------------------------
  Interatomic potentials     =        2060.76170189 eV
  Three-body potentials      =           0.45391631 eV
  Monopole - monopole (real) =       -6613.17193193 eV
  Monopole - monopole (recip)=       -3167.67129248 eV
  Monopole - monopole (total)=       -9780.84322442 eV
  Neutralising energy        =          -6.45253620 eV
--------------------------------------------------------------------------------
  Total lattice energy       =       -7726.08014243 eV
--------------------------------------------------------------------------------
  Total lattice energy       =         -745448.6298 kJ/(mole unit cells)
--------------------------------------------------------------------------------

  Final fractional coordinates of atoms :

--------------------------------------------------------------------------------
   No.  Atomic        x           y          z          Radius
        Label       (Frac)      (Frac)     (Frac)       (Angs) 
--------------------------------------------------------------------------------
     1  Ge    c     0.699600    0.375700    0.033890    0.000000
     2  Si    c     0.595896    0.305988    0.366147    0.000000
     3  Si    c     0.657976    0.285477    0.697563    0.000000
     4  Si    c     0.273339    0.606122    0.529736    0.000000
     5  Si    c     0.363411    0.663635    0.863296    0.000000
     6  Si    c     0.300205    0.689544    0.196675    0.000000
     7  Si    c     0.347462    0.681402    0.297598    0.000000
     8  Si    c     0.305748    0.606096    0.963048    0.000000
     9  Si    c     0.277884    0.663440    0.630450    0.000000
    10  Si    c     0.610218    0.286016    0.798717    0.000000
    11  Si    c     0.654054    0.368543    0.466193    0.000000
    12  Si    c     0.669001    0.305950    0.132101    0.000000
    13  Si    c     0.517587    0.403445    0.966130    0.000000
    14  Si    c     0.554132    0.094476    0.301667    0.000000
    15  Si    c     0.867424    0.457672    0.633034    0.000000
    16  Si    c     0.445137    0.570366    0.463901    0.000000
    17  Si    c     0.405172    0.872380    0.797504    0.000000
    18  Si    c     0.090694    0.518722    0.129931    0.000000
    19  Si    c     0.389447    0.511977    0.362312    0.000000
    20  Si    c     0.092800    0.572217    0.026759    0.000000
    21  Si    c     0.451304    0.874957    0.695482    0.000000
    22  Si    c     0.569948    0.456573    0.863673    0.000000
    23  Si    c     0.864663    0.404073    0.531361    0.000000
    24  Si    c     0.507838    0.098001    0.199881    0.000000
    25  Si    c     0.290776    0.389080    0.847463    0.000000
    26  Si    c     0.580056    0.890129    0.184450    0.000000
    27  Si    c     0.071917    0.683283    0.516399    0.000000
    28  Si    c     0.668594    0.579830    0.348387    0.000000
    29  Si    c     0.379083    0.084101    0.683258    0.000000
    30  Si    c     0.880565    0.285102    0.011107    0.000000
    31  Si    c     0.375137    0.291600    0.479929    0.000000
    32  Si    c     0.876514    0.589702    0.143259    0.000000
    33  Si    c     0.686167    0.083727    0.811151    0.000000
    34  Si    c     0.584004    0.683663    0.978978    0.000000
    35  Si    c     0.077171    0.386453    0.646208    0.000000
    36  Si    c     0.272771    0.883522    0.312611    0.000000
    37  Si    c     0.238431    0.327567    0.947352    0.000000
    38  Si    c     0.628619    0.892253    0.285832    0.000000
    39  Si    c     0.068507    0.735598    0.617048    0.000000
    40  Si    c     0.724118    0.647738    0.448389    0.000000
    41  Si    c     0.329882    0.074949    0.784408    0.000000
    42  Si    c     0.885285    0.237945    0.114254    0.000000
    43  Si    c     0.316125    0.236118    0.379425    0.000000
    44  Si    c     0.892715    0.657141    0.040975    0.000000
    45  Si    c     0.730478    0.077500    0.709997    0.000000
    46  Si    c     0.642626    0.733355    0.878569    0.000000
    47  Si    c     0.065366    0.325919    0.545490    0.000000
    48  Si    c     0.227735    0.896358    0.211632    0.000000
    49  Si    c     0.959725    0.110675    0.962922    0.000000
    50  Ge    c     0.849965    0.830093    0.298093    0.000000
    51  Si    c     0.131367    0.015527    0.630742    0.000000
    52  Si    c     0.005077    0.864119    0.465253    0.000000
    53  Ge    c     0.108771    0.136476    0.797115    0.000000
    54  Si    c     0.826312    0.960947    0.131111    0.000000
    55  Si    c     0.099197    0.955799    0.364486    0.000000
    56  Si    c     0.832352    0.873123    0.029698    0.000000
    57  Si    c     0.008191    0.136740    0.694411    0.000000
    58  Si    c     0.861290    0.010946    0.862868    0.000000
    59  Si    c     0.128100    0.108585    0.530095    0.000000
    60  Si    c     0.950263    0.839246    0.194631    0.000000
    61  O2    c     0.912982    0.995763    0.998464    0.000000
    62  O3    c     0.979493    0.920583    0.332656    0.000000
    63  O2    c     0.048294    0.058929    0.660163    0.000000
    64  O2    c     0.047328    0.987498    0.497056    0.000000
    65  O3    c     0.979857    0.045491    0.831241    0.000000
    66  O2    c     0.911813    0.921421    0.161667    0.000000
    67  O2    c     0.310119    0.557675    0.329537    0.000000
    68  O2    c     0.402554    0.750475    0.662461    0.000000
    69  O2    c     0.220090    0.644021    0.995693    0.000000
    70  O2    c     0.648140    0.408100    0.831864    0.000000
    71  O2    c     0.559428    0.226223    0.169613    0.000000
    72  O2    c     0.737122    0.329665    0.499344    0.000000
    73  O3    c     0.563422    0.330465    0.998390    0.000000
    74  O2    c     0.742525    0.409292    0.665334    0.000000
    75  O2    c     0.632356    0.217807    0.334789    0.000000
    76  O2    c     0.394873    0.645447    0.496223    0.000000
    77  O2    c     0.215363    0.568147    0.162717    0.000000
    78  O2    c     0.327246    0.748619    0.829990    0.000000
    79  O2    c     0.114052    0.199262    0.967306    0.000000
    80  O3    c     0.751597    0.893861    0.307492    0.000000
    81  O2    c     0.069425    0.862022    0.637033    0.000000
    82  O2    c     0.850056    0.774950    0.468491    0.000000
    83  O3    c     0.206282    0.071435    0.805980    0.000000
    84  O2    c     0.886682    0.114807    0.135991    0.000000
    85  O2    c     0.191930    0.109071    0.359331    0.000000
    86  O2    c     0.908072    0.794137    0.026067    0.000000
    87  O2    c     0.854352    0.077253    0.688275    0.000000
    88  O2    c     0.767527    0.857794    0.858185    0.000000
    89  O2    c     0.063121    0.198029    0.526084    0.000000
    90  O2    c     0.104392    0.899381    0.190174    0.000000
    91  O3    c     0.909131    0.853708    0.244101    0.000000
    92  O2    c     0.121093    0.052284    0.579495    0.000000
    93  O2    c     0.915009    0.050410    0.913589    0.000000
    94  O3    c     0.045936    0.113538    0.743390    0.000000
    95  O2    c     0.833767    0.922620    0.080133    0.000000
    96  O2    c     0.049102    0.915589    0.415090    0.000000
    97  O2    c     0.894490    0.196362    0.973205    0.000000
    98  O3    c     0.764234    0.668076    0.308825    0.000000
    99  O2    c     0.281751    0.086429    0.645072    0.000000
   100  O2    c     0.072081    0.780951    0.478353    0.000000
   101  O3    c     0.195149    0.298561    0.807789    0.000000
   102  O2    c     0.676993    0.889780    0.146274    0.000000
   103  O2    c     0.174917    0.880962    0.350829    0.000000
   104  O2    c     0.681897    0.784451    0.016895    0.000000
   105  O2    c     0.079673    0.289835    0.684261    0.000000
   106  O2    c     0.784799    0.085343    0.849442    0.000000
   107  O2    c     0.279224    0.194197    0.518096    0.000000
   108  O2    c     0.879653    0.687766    0.181809    0.000000
   109  O2    c     0.295300    0.627401    0.246339    0.000000
   110  O2    c     0.333060    0.663144    0.579923    0.000000
   111  O2    c     0.304239    0.664273    0.913129    0.000000
   112  O2    c     0.662639    0.342971    0.748154    0.000000
   113  O3    c     0.605300    0.299455    0.084327    0.000000
   114  O2    c     0.653440    0.308335    0.416498    0.000000
   115  O2    c     0.359844    0.318364    0.966096    0.000000
   116  O2    c     0.639545    0.024700    0.303797    0.000000
   117  O2    c     0.936753    0.613762    0.635685    0.000000
   118  O2    c     0.601694    0.658023    0.466351    0.000000
   119  O2    c     0.319624    0.941846    0.800866    0.000000
   120  O2    c     0.017311    0.363195    0.131630    0.000000
   121  O2    c     0.303608    0.355887    0.360051    0.000000
   122  O2    c     0.025313    0.660277    0.025482    0.000000
   123  O2    c     0.607376    0.945387    0.691662    0.000000
   124  O2    c     0.654201    0.612414    0.860166    0.000000
   125  O2    c     0.932346    0.316027    0.527337    0.000000
   126  O2    c     0.351837    0.028034    0.194455    0.000000
   127  O3    c     0.748108    0.279169    0.002180    0.000000
   128  O2    c     0.669965    0.446475    0.342557    0.000000
   129  O2    c     0.513730    0.217403    0.675475    0.000000
   130  O2    c     0.204431    0.681157    0.507981    0.000000
   131  O2    c     0.289621    0.522031    0.840002    0.000000
   132  O2    c     0.443948    0.758618    0.174998    0.000000
   133  O2    c     0.270612    0.748402    0.319034    0.000000
   134  O2    c     0.448880    0.682604    0.985982    0.000000
   135  O2    c     0.211421    0.520993    0.653025    0.000000
   136  O2    c     0.686469    0.217287    0.819538    0.000000
   137  O2    c     0.510666    0.295375    0.488061    0.000000
   138  O2    c     0.744811    0.455126    0.151102    0.000000
   139  O3    c     0.768203    0.543684    0.018507    0.000000
   140  O2    c     0.440229    0.232366    0.360638    0.000000
   141  O2    c     0.731828    0.204266    0.691299    0.000000
   142  O2    c     0.191146    0.450080    0.525190    0.000000
   143  O2    c     0.519247    0.738049    0.858976    0.000000
   144  O2    c     0.224066    0.769072    0.191727    0.000000
   145  O2    c     0.502510    0.764988    0.303991    0.000000
   146  O2    c     0.231487    0.450181    0.967089    0.000000
   147  O2    c     0.195626    0.736597    0.635800    0.000000
   148  O2    c     0.455076    0.201860    0.804067    0.000000
   149  O2    c     0.727179    0.524581    0.468776    0.000000
   150  O2    c     0.761899    0.242150    0.132984    0.000000
   151  O2    c     0.216678    0.309161    0.892791    0.000000
   152  O2    c     0.649919    0.888707    0.231471    0.000000
   153  O2    c     0.068701    0.753725    0.562752    0.000000
   154  O2    c     0.742177    0.662882    0.393769    0.000000
   155  O2    c     0.307730    0.081221    0.730126    0.000000
   156  O2    c     0.885233    0.222924    0.060008    0.000000
   157  O2    c     0.299872    0.220004    0.433699    0.000000
   158  O2    c     0.881129    0.659130    0.096203    0.000000
   159  O2    c     0.754826    0.080674    0.764237    0.000000
   160  O2    c     0.659607    0.752540    0.932892    0.000000
   161  O2    c     0.069745    0.310747    0.599748    0.000000
   162  O2    c     0.204637    0.891100    0.265858    0.000000
   163  O2    c     0.567571    0.545164    0.988546    0.000000
   164  O2    c     0.411782    0.007723    0.323102    0.000000
   165  O2    c     0.953331    0.402201    0.655730    0.000000
   166  O2    c     0.389306    0.430888    0.487587    0.000000
   167  O2    c     0.547999    0.957238    0.819668    0.000000
   168  O2    c     0.999009    0.569655    0.149614    0.000000
   169  O2    c     0.529692    0.567442    0.338845    0.000000
   170  O2    c     0.001551    0.430947    0.005728    0.000000
   171  O2    c     0.390933    0.957900    0.673927    0.000000
   172  O2    c     0.429205    0.399827    0.839731    0.000000
   173  O2    c     0.946014    0.544164    0.507724    0.000000
   174  O2    c     0.569616    0.017864    0.177132    0.000000
   175  O2    c     0.555298    0.149218    0.251234    0.000000
   176  O2    c     0.813035    0.403745    0.582233    0.000000
   177  O2    c     0.570453    0.407599    0.914681    0.000000
   178  O2    c     0.402508    0.819990    0.746287    0.000000
   179  O2    c     0.136794    0.567106    0.078722    0.000000
   180  O2    c     0.390873    0.567611    0.412849    0.000000
   181  F     c     0.424128    0.885884    0.247754    0.000000
   182  F     c     0.073923    0.533813    0.580564    0.000000
   183  F     c     0.431620    0.535742    0.912436    0.000000
   184  F     c     0.532854    0.083591    0.746670    0.000000
   185  F     c     0.844802    0.429539    0.070520    0.000000
   186  F     c     0.524390    0.439563    0.413185    0.000000
   187  O2    s     0.909015    0.994712    0.998027    0.000000
   188  O3    s     0.981150    0.916449    0.333085    0.000000
   189  O2    s     0.053327    0.062563    0.660578    0.000000
   190  O2    s     0.051558    0.987184    0.497181    0.000000
   191  O3    s     0.978135    0.049676    0.831722    0.000000
   192  O2    s     0.906487    0.916851    0.161859    0.000000
   193  O2    s     0.321927    0.565728    0.329561    0.000000
   194  O2    s     0.394649    0.754220    0.662521    0.000000
   195  O2    s     0.215155    0.632642    0.995720    0.000000
   196  O2    s     0.636370    0.400456    0.831659    0.000000
   197  O2    s     0.565377    0.220971    0.168901    0.000000
   198  O2    s     0.741577    0.341368    0.499168    0.000000
   199  O3    s     0.567984    0.341615    0.997379    0.000000
   200  O2    s     0.746824    0.401708    0.665283    0.000000
   201  O2    s     0.620453    0.214024    0.334570    0.000000
   202  O2    s     0.387732    0.633726    0.496302    0.000000
   203  O2    s     0.210724    0.575110    0.162673    0.000000
   204  O2    s     0.339064    0.752763    0.830039    0.000000
   205  O2    s     0.110008    0.202712    0.964830    0.000000
   206  O3    s     0.747201    0.888434    0.304531    0.000000
   207  O2    s     0.075851    0.865102    0.634333    0.000000
   208  O2    s     0.853449    0.771261    0.466099    0.000000
   209  O3    s     0.210680    0.077173    0.803089    0.000000
   210  O2    s     0.880203    0.111465    0.133246    0.000000
   211  O2    s     0.195276    0.106234    0.362002    0.000000
   212  O2    s     0.898454    0.788440    0.027978    0.000000
   213  O2    s     0.857681    0.083555    0.691150    0.000000
   214  O2    s     0.764326    0.861060    0.860837    0.000000
   215  O2    s     0.070212    0.201684    0.528468    0.000000
   216  O2    s     0.100959    0.892719    0.192851    0.000000
   217  O3    s     0.908449    0.850062    0.243414    0.000000
   218  O2    s     0.123047    0.054585    0.579625    0.000000
   219  O2    s     0.914147    0.052947    0.913612    0.000000
   220  O3    s     0.047293    0.118090    0.742708    0.000000
   221  O2    s     0.832753    0.921515    0.080385    0.000000
   222  O2    s     0.049753    0.914260    0.415091    0.000000
   223  O2    s     0.900186    0.196523    0.976158    0.000000
   224  O3    s     0.762265    0.673119    0.311686    0.000000
   225  O2    s     0.275650    0.078638    0.647435    0.000000
   226  O2    s     0.064879    0.779820    0.480866    0.000000
   227  O3    s     0.197057    0.293651    0.810681    0.000000
   228  O2    s     0.682821    0.897345    0.148605    0.000000
   229  O2    s     0.177112    0.889049    0.348283    0.000000
   230  O2    s     0.688096    0.783718    0.014412    0.000000
   231  O2    s     0.072072    0.283895    0.681455    0.000000
   232  O2    s     0.782701    0.077392    0.846905    0.000000
   233  O2    s     0.273119    0.195232    0.515401    0.000000
   234  O2    s     0.886684    0.693433    0.179178    0.000000
   235  O2    s     0.301048    0.639151    0.246454    0.000000
   236  O2    s     0.321383    0.657351    0.579924    0.000000
   237  O2    s     0.310320    0.658314    0.913176    0.000000
   238  O2    s     0.656848    0.331334    0.748125    0.000000
   239  O3    s     0.618010    0.304987    0.086174    0.000000
   240  O2    s     0.647563    0.314248    0.416359    0.000000
   241  O2    s     0.362245    0.327828    0.964035    0.000000
   242  O2    s     0.629309    0.018095    0.301651    0.000000
   243  O2    s     0.943419    0.610509    0.633458    0.000000
   244  O2    s     0.598357    0.647975    0.464220    0.000000
   245  O2    s     0.329796    0.948640    0.798738    0.000000
   246  O2    s     0.011303    0.366469    0.129650    0.000000
   247  O2    s     0.313756    0.359542    0.362304    0.000000
   248  O2    s     0.019196    0.650857    0.027157    0.000000
   249  O2    s     0.604165    0.951991    0.693995    0.000000
   250  O2    s     0.644296    0.609025    0.862463    0.000000
   251  O2    s     0.939210    0.326050    0.529634    0.000000
   252  O2    s     0.354787    0.021301    0.196837    0.000000
   253  O3    s     0.759186    0.286205    0.005307    0.000000
   254  O2    s     0.662069    0.445820    0.345680    0.000000
   255  O2    s     0.514503    0.210499    0.678584    0.000000
   256  O2    s     0.197598    0.673680    0.511125    0.000000
   257  O2    s     0.297475    0.522858    0.843274    0.000000
   258  O2    s     0.443209    0.765103    0.178240    0.000000
   259  O2    s     0.278721    0.755594    0.316117    0.000000
   260  O2    s     0.448081    0.674879    0.982888    0.000000
   261  O2    s     0.204153    0.521470    0.649966    0.000000
   262  O2    s     0.678613    0.210399    0.816483    0.000000
   263  O2    s     0.511133    0.302551    0.484910    0.000000
   264  O2    s     0.751562    0.455133    0.148411    0.000000
   265  O3    s     0.777489    0.545232    0.021893    0.000000
   266  O2    s     0.443150    0.240623    0.363227    0.000000
   267  O2    s     0.723856    0.198948    0.693949    0.000000
   268  O2    s     0.186068    0.452910    0.527808    0.000000
   269  O2    s     0.516257    0.729599    0.861546    0.000000
   270  O2    s     0.232444    0.774437    0.194345    0.000000
   271  O2    s     0.499645    0.769931    0.301374    0.000000
   272  O2    s     0.239950    0.453523    0.964629    0.000000
   273  O2    s     0.190275    0.728749    0.633226    0.000000
   274  O2    s     0.458039    0.197016    0.801400    0.000000
   275  O2    s     0.719100    0.521528    0.466322    0.000000
   276  O2    s     0.766324    0.248143    0.130823    0.000000
   277  O2    s     0.226316    0.319019    0.893810    0.000000
   278  O2    s     0.640464    0.889152    0.232084    0.000000
   279  O2    s     0.069010    0.744346    0.563623    0.000000
   280  O2    s     0.732951    0.653067    0.394819    0.000000
   281  O2    s     0.317387    0.080943    0.730746    0.000000
   282  O2    s     0.884775    0.230666    0.061053    0.000000
   283  O2    s     0.309555    0.229306    0.432771    0.000000
   284  O2    s     0.881727    0.651297    0.095844    0.000000
   285  O2    s     0.745232    0.080687    0.763435    0.000000
   286  O2    s     0.649850    0.743255    0.931962    0.000000
   287  O2    s     0.070047    0.320289    0.598808    0.000000
   288  O2    s     0.214046    0.890841    0.265015    0.000000
   289  O2    s     0.564107    0.546348    0.985212    0.000000
   290  O2    s     0.411725    0.003249    0.319703    0.000000
   291  O2    s     0.957854    0.406490    0.652332    0.000000
   292  O2    s     0.393798    0.430412    0.484268    0.000000
   293  O2    s     0.547988    0.962207    0.816406    0.000000
   294  O2    s     0.995604    0.566235    0.146823    0.000000
   295  O2    s     0.529842    0.562846    0.342297    0.000000
   296  O2    s     0.998939    0.431437    0.008584    0.000000
   297  O2    s     0.396100    0.962935    0.677171    0.000000
   298  O2    s     0.429038    0.404704    0.843038    0.000000
   299  O2    s     0.951279    0.544558    0.511126    0.000000
   300  O2    s     0.564201    0.012380    0.180268    0.000000
   301  O2    s     0.550152    0.138093    0.251107    0.000000
   302  O2    s     0.824059    0.409354    0.582177    0.000000
   303  O2    s     0.565152    0.412422    0.914356    0.000000
   304  O2    s     0.407833    0.831053    0.746300    0.000000
   305  O2    s     0.127430    0.562508    0.078854    0.000000
   306  O2    s     0.396307    0.562173    0.412880    0.000000
   307  F     s     0.423780    0.885363    0.247653    0.000000
   308  F     s     0.074264    0.533948    0.580493    0.000000
   309  F     s     0.430831    0.536113    0.912291    0.000000
   310  F     s     0.533031    0.084004    0.746612    0.000000
   311  F     s     0.834147    0.425710    0.067938    0.000000
   312  F     s     0.524735    0.439540    0.413042    0.000000
--------------------------------------------------------------------------------

  Final Cartesian lattice vectors (Angstroms) :

       11.980263    0.006359   -0.007364
       -6.030494   10.390142    0.008805
       -0.153453   -0.165410   29.470878


  Final cell parameters and derivatives :

--------------------------------------------------------------------------------
       a           11.980267 Angstrom     dE/de1(xx)     0.001012 eV/strain
       b           12.013408 Angstrom     dE/de2(yy)     0.000509 eV/strain
       c           29.471741 Angstrom     dE/de3(zz)     0.001735 eV/strain
       alpha       90.086372 Degrees      dE/de4(yz)    -0.000032 eV/strain
       beta        90.333714 Degrees      dE/de5(xz)     0.000203 eV/strain
       gamma      120.100713 Degrees      dE/de6(xy)     0.000169 eV/strain
--------------------------------------------------------------------------------

  Primitive cell volume =          3669.564155 Angs**3

  Density of cell =      1.743556 g/cm**3

  Non-primitive cell volume =          3669.564155 Angs**3


  Final internal derivatives :

--------------------------------------------------------------------------------
   No.  Atomic          a             b             c           Radius
        Label          (eV)          (eV)          (eV)        (eV/Angs)
--------------------------------------------------------------------------------
      1 Ge    c       0.000000      0.000000      0.000000      0.000000
      2 Si    c      -0.000002     -0.000002     -0.000053      0.000000
      3 Si    c       0.000003     -0.000062     -0.000035      0.000000
      4 Si    c      -0.000027     -0.000010      0.000041      0.000000
      5 Si    c      -0.000095     -0.000004     -0.000050      0.000000
      6 Si    c       0.000050     -0.000037      0.000150      0.000000
      7 Si    c       0.000021      0.000023     -0.000034      0.000000
      8 Si    c      -0.000063     -0.000074      0.000169      0.000000
      9 Si    c      -0.000000      0.000031      0.000126      0.000000
     10 Si    c       0.000009     -0.000074     -0.000031      0.000000
     11 Si    c      -0.000007      0.000027      0.000051      0.000000
     12 Si    c       0.000775     -0.000720      0.005877      0.000000
     13 Si    c      -0.001144      0.000519     -0.001227      0.000000
     14 Si    c      -0.000035     -0.000010     -0.000060      0.000000
     15 Si    c       0.000038     -0.000006     -0.000047      0.000000
     16 Si    c      -0.000005     -0.000005      0.000032      0.000000
     17 Si    c      -0.000016     -0.000002      0.000008      0.000000
     18 Si    c       0.000214     -0.000095      0.001134      0.000000
     19 Si    c       0.000018     -0.000018      0.000054      0.000000
     20 Si    c       0.000247     -0.000079     -0.000969      0.000000
     21 Si    c       0.000010      0.000069      0.000118      0.000000
     22 Si    c      -0.000080      0.000048     -0.000120      0.000000
     23 Si    c      -0.000016     -0.000010     -0.000056      0.000000
     24 Si    c      -0.000104      0.000139     -0.000084      0.000000
     25 Si    c      -0.000036      0.000103     -0.000085      0.000000
     26 Si    c      -0.000042      0.000015      0.000061      0.000000
     27 Si    c       0.000017     -0.000019     -0.000006      0.000000
     28 Si    c      -0.000014     -0.000027      0.000047      0.000000
     29 Si    c       0.000038     -0.000019     -0.000028      0.000000
     30 Si    c       0.000501     -0.000703     -0.001191      0.000000
     31 Si    c       0.000005      0.000011      0.000017      0.000000
     32 Si    c       0.000175     -0.000178      0.000917      0.000000
     33 Si    c      -0.000022      0.000019     -0.000038      0.000000
     34 Si    c      -0.000070      0.000042     -0.000138      0.000000
     35 Si    c       0.000007      0.000016     -0.000018      0.000000
     36 Si    c       0.000046     -0.000016     -0.000059      0.000000
     37 Si    c       0.000049      0.000051      0.000059      0.000000
     38 Si    c       0.000014     -0.000024     -0.000037      0.000000
     39 Si    c       0.000056     -0.000075      0.000026      0.000000
     40 Si    c       0.000034      0.000009      0.000033      0.000000
     41 Si    c      -0.000004      0.000011      0.000067      0.000000
     42 Si    c       0.000017      0.000019      0.002205      0.000000
     43 Si    c      -0.000012     -0.000018     -0.000053      0.000000
     44 Si    c       0.000603     -0.000095     -0.004688      0.000000
     45 Si    c      -0.000062      0.000029      0.000000      0.000000
     46 Si    c       0.000020     -0.000043     -0.000087      0.000000
     47 Si    c      -0.000019      0.000008     -0.000014      0.000000
     48 Si    c      -0.000019      0.000031     -0.000096      0.000000
     49 Si    c       0.000121     -0.000217     -0.000189      0.000000
     50 Ge    c      -0.000177      0.000136      0.000376      0.000000
     51 Si    c      -0.000006      0.000061     -0.000121      0.000000
     52 Si    c       0.000019     -0.000019      0.000073      0.000000
     53 Ge    c       0.000126     -0.000052     -0.000447      0.000000
     54 Si    c      -0.000022      0.000213      0.000513      0.000000
     55 Si    c       0.000165     -0.000005      0.000251      0.000000
     56 Si    c      -0.000049      0.000264     -0.000411      0.000000
     57 Si    c      -0.000014      0.000024     -0.000203      0.000000
     58 Si    c      -0.000063     -0.000062     -0.000417      0.000000
     59 Si    c      -0.000014      0.000119     -0.000067      0.000000
     60 Si    c      -0.000021      0.000024      0.000218      0.000000
     61 O2    c      -0.000059      0.000035      0.000273      0.000000
     62 O3    c      -0.000316      0.000042     -0.000435      0.000000
     63 O2    c       0.000028     -0.000019      0.000011      0.000000
     64 O2    c      -0.000057     -0.000123     -0.000196      0.000000
     65 O3    c      -0.000118     -0.000071      0.000343      0.000000
     66 O2    c       0.000031      0.000023     -0.000034      0.000000
     67 O2    c      -0.000045      0.000016     -0.000127      0.000000
     68 O2    c       0.000012     -0.000065     -0.000174      0.000000
     69 O2    c      -0.000037      0.000025      0.000072      0.000000
     70 O2    c      -0.000011      0.000012      0.000042      0.000000
     71 O2    c      -0.000149      0.000010      0.000219      0.000000
     72 O2    c       0.000010     -0.000001      0.000016      0.000000
     73 O3    c       0.000644     -0.001870      0.001955      0.000000
     74 O2    c      -0.000013      0.000015      0.000033      0.000000
     75 O2    c      -0.000009     -0.000010     -0.000022      0.000000
     76 O2    c      -0.000015     -0.000002      0.000005      0.000000
     77 O2    c      -0.000049     -0.000011     -0.000238      0.000000
     78 O2    c       0.000000      0.000010     -0.000031      0.000000
     79 O2    c       0.000100     -0.000080      0.000084      0.000000
     80 O3    c       0.000009     -0.000031     -0.000067      0.000000
     81 O2    c      -0.000011      0.000015      0.000049      0.000000
     82 O2    c      -0.000073     -0.000007     -0.000069      0.000000
     83 O3    c      -0.000053      0.000046     -0.000058      0.000000
     84 O2    c       0.000064     -0.000144      0.000052      0.000000
     85 O2    c      -0.000000      0.000002      0.000023      0.000000
     86 O2    c       0.000567     -0.000483      0.000023      0.000000
     87 O2    c       0.000022     -0.000010     -0.000037      0.000000
     88 O2    c       0.000040      0.000016     -0.000058      0.000000
     89 O2    c       0.000008     -0.000012      0.000003      0.000000
     90 O2    c       0.000091     -0.000014     -0.000064      0.000000
     91 O3    c       0.000289     -0.000066     -0.001463      0.000000
     92 O2    c       0.000081     -0.000115      0.000574      0.000000
     93 O2    c       0.000229      0.000108      0.001275      0.000000
     94 O3    c       0.000083     -0.000002      0.001071      0.000000
     95 O2    c       0.000146     -0.000017     -0.000144      0.000000
     96 O2    c       0.000008      0.000023     -0.000058      0.000000
     97 O2    c      -0.000042      0.000028      0.000116      0.000000
     98 O3    c      -0.000030     -0.000162      0.000008      0.000000
     99 O2    c      -0.000042      0.000008     -0.000075      0.000000
    100 O2    c      -0.000011      0.000007     -0.000010      0.000000
    101 O3    c      -0.000015      0.000006     -0.000040      0.000000
    102 O2    c      -0.000011      0.000015     -0.000079      0.000000
    103 O2    c       0.000001     -0.000020      0.000052      0.000000
    104 O2    c      -0.000210      0.000076      0.000008      0.000000
    105 O2    c      -0.000010      0.000017     -0.000017      0.000000
    106 O2    c      -0.000026      0.000044     -0.000024      0.000000
    107 O2    c      -0.000016     -0.000003      0.000058      0.000000
    108 O2    c      -0.000017      0.000081      0.000179      0.000000
    109 O2    c      -0.000026      0.000041     -0.000250      0.000000
    110 O2    c       0.000009     -0.000015     -0.000198      0.000000
    111 O2    c      -0.000021      0.000019     -0.000092      0.000000
    112 O2    c      -0.000004      0.000003     -0.000004      0.000000
    113 O3    c      -0.002683     -0.000077     -0.002566      0.000000
    114 O2    c       0.000011     -0.000006     -0.000049      0.000000
    115 O2    c       0.000088     -0.000040      0.000136      0.000000
    116 O2    c      -0.000023      0.000038      0.000047      0.000000
    117 O2    c       0.000009      0.000015     -0.000005      0.000000
    118 O2    c      -0.000013      0.000010      0.000011      0.000000
    119 O2    c      -0.000005      0.000012     -0.000008      0.000000
    120 O2    c       0.000122      0.000053      0.000063      0.000000
    121 O2    c      -0.000007      0.000002      0.000001      0.000000
    122 O2    c      -0.000651      0.000818      0.000112      0.000000
    123 O2    c       0.000007      0.000014     -0.000000      0.000000
    124 O2    c      -0.000019     -0.000026     -0.000030      0.000000
    125 O2    c       0.000015     -0.000005      0.000021      0.000000
    126 O2    c      -0.000038      0.000001     -0.000044      0.000000
    127 O3    c      -0.000308     -0.000152     -0.000763      0.000000
    128 O2    c      -0.000006     -0.000018      0.000012      0.000000
    129 O2    c       0.000004     -0.000014      0.000028      0.000000
    130 O2    c      -0.000036      0.000016     -0.000013      0.000000
    131 O2    c       0.000009     -0.000025      0.000058      0.000000
    132 O2    c       0.000002      0.000018     -0.000049      0.000000
    133 O2    c      -0.000035      0.000039      0.000030      0.000000
    134 O2    c      -0.000035      0.000038      0.000017      0.000000
    135 O2    c      -0.000009     -0.000022      0.000011      0.000000
    136 O2    c      -0.000018      0.000005     -0.000039      0.000000
    137 O2    c       0.000020     -0.000002      0.000003      0.000000
    138 O2    c       0.000045      0.000066      0.000697      0.000000
    139 O3    c       0.000134     -0.001402     -0.000596      0.000000
    140 O2    c      -0.000006      0.000002      0.000002      0.000000
    141 O2    c      -0.000019      0.000007      0.000018      0.000000
    142 O2    c      -0.000018     -0.000018      0.000022      0.000000
    143 O2    c       0.000020      0.000026     -0.000102      0.000000
    144 O2    c      -0.000056      0.000074     -0.000054      0.000000
    145 O2    c      -0.000017     -0.000005      0.000039      0.000000
    146 O2    c      -0.000009      0.000029      0.000065      0.000000
    147 O2    c      -0.000020      0.000018     -0.000017      0.000000
    148 O2    c      -0.000018     -0.000009     -0.000007      0.000000
    149 O2    c      -0.000002     -0.000007     -0.000011      0.000000
    150 O2    c      -0.000104      0.000015      0.000336      0.000000
    151 O2    c      -0.000060     -0.000027      0.000238      0.000000
    152 O2    c      -0.000028      0.000003     -0.000008      0.000000
    153 O2    c      -0.000007      0.000002     -0.000057      0.000000
    154 O2    c       0.000006      0.000017     -0.000069      0.000000
    155 O2    c      -0.000021      0.000009      0.000033      0.000000
    156 O2    c       0.000017     -0.000171     -0.002897      0.000000
    157 O2    c      -0.000012      0.000005     -0.000026      0.000000
    158 O2    c       0.000006      0.000207      0.006757      0.000000
    159 O2    c       0.000005      0.000001     -0.000018      0.000000
    160 O2    c      -0.000001      0.000006      0.000031      0.000000
    161 O2    c       0.000001      0.000005     -0.000012      0.000000
    162 O2    c       0.000016      0.000002     -0.000012      0.000000
    163 O2    c      -0.000206      0.000031     -0.000373      0.000000
    164 O2    c       0.000003     -0.000019     -0.000024      0.000000
    165 O2    c       0.000026     -0.000012     -0.000008      0.000000
    166 O2    c      -0.000007      0.000025     -0.000006      0.000000
    167 O2    c       0.000017      0.000008      0.000013      0.000000
    168 O2    c      -0.000090      0.000058      0.000134      0.000000
    169 O2    c      -0.000013      0.000013     -0.000018      0.000000
    170 O2    c       0.000128      0.000051     -0.000277      0.000000
    171 O2    c      -0.000002      0.000010      0.000021      0.000000
    172 O2    c       0.000061     -0.000041      0.000000      0.000000
    173 O2    c       0.000000     -0.000008     -0.000003      0.000000
    174 O2    c       0.000073     -0.000083     -0.000205      0.000000
    175 O2    c      -0.000032     -0.000004      0.000080      0.000000
    176 O2    c       0.000006      0.000002     -0.000007      0.000000
    177 O2    c       0.000027     -0.000056     -0.000654      0.000000
    178 O2    c      -0.000004      0.000006      0.000038      0.000000
    179 O2    c       0.000240      0.000057      0.000418      0.000000
    180 O2    c      -0.000006     -0.000004     -0.000025      0.000000
    181 F     c       0.000030      0.000011     -0.000061      0.000000
    182 F     c       0.000008      0.000004      0.000028      0.000000
    183 F     c      -0.000004     -0.000008      0.000038      0.000000
    184 F     c      -0.000001     -0.000007     -0.000012      0.000000
    185 F     c       0.000835     -0.000088      0.000849      0.000000
    186 F     c      -0.000003      0.000000      0.000009      0.000000
    187 O2    s      -0.000061      0.000088     -0.000420      0.000000
    188 O3    s       0.000151     -0.000005      0.000222      0.000000
    189 O2    s       0.000037     -0.000002     -0.000046      0.000000
    190 O2    s      -0.000006      0.000048      0.000021      0.000000
    191 O3    s       0.000125      0.000018     -0.000369      0.000000
    192 O2    s       0.000003     -0.000096      0.000222      0.000000
    193 O2    s       0.000013     -0.000009      0.000037      0.000000
    194 O2    s      -0.000006      0.000035      0.000012      0.000000
    195 O2    s       0.000084     -0.000016     -0.000357      0.000000
    196 O2    s       0.000016      0.000022      0.000055      0.000000
    197 O2    s      -0.000049     -0.000255      0.000777      0.000000
    198 O2    s       0.000003      0.000007      0.000030      0.000000
    199 O3    s      -0.000045      0.001600     -0.000597      0.000000
    200 O2    s       0.000010     -0.000012      0.000042      0.000000
    201 O2    s      -0.000011      0.000010      0.000031      0.000000
    202 O2    s      -0.000012      0.000002      0.000005      0.000000
    203 O2    s       0.000060     -0.000079      0.000025      0.000000
    204 O2    s       0.000010     -0.000002     -0.000013      0.000000
    205 O2    s      -0.000050      0.000056     -0.000051      0.000000
    206 O3    s      -0.000039      0.000018      0.000023      0.000000
    207 O2    s       0.000014      0.000010     -0.000013      0.000000
    208 O2    s       0.000033      0.000004      0.000027      0.000000
    209 O3    s       0.000011     -0.000011     -0.000022      0.000000
    210 O2    s       0.000080     -0.000082      0.000496      0.000000
    211 O2    s       0.000015      0.000016     -0.000060      0.000000
    212 O2    s      -0.000319      0.000209     -0.000649      0.000000
    213 O2    s      -0.000028      0.000000      0.000025      0.000000
    214 O2    s      -0.000093     -0.000016      0.000100      0.000000
    215 O2    s      -0.000041      0.000036      0.000034      0.000000
    216 O2    s      -0.000048     -0.000008      0.000194      0.000000
    217 O3    s      -0.000139      0.000034      0.000651      0.000000
    218 O2    s      -0.000023      0.000063      0.000010      0.000000
    219 O2    s      -0.000148     -0.000014     -0.000320      0.000000
    220 O3    s      -0.000038     -0.000012     -0.000540      0.000000
    221 O2    s      -0.000143     -0.000017      0.000197      0.000000
    222 O2    s      -0.000008     -0.000013      0.000115      0.000000
    223 O2    s      -0.000090      0.000054     -0.000079      0.000000
    224 O3    s      -0.000000      0.000041     -0.000029      0.000000
    225 O2    s      -0.000032      0.000009     -0.000008      0.000000
    226 O2    s       0.000005     -0.000021      0.000066      0.000000
    227 O3    s      -0.000001     -0.000010     -0.000110      0.000000
    228 O2    s      -0.000018     -0.000066      0.000093      0.000000
    229 O2    s       0.000032     -0.000013     -0.000054      0.000000
    230 O2    s      -0.000101      0.000025     -0.000199      0.000000
    231 O2    s       0.000010      0.000014     -0.000053      0.000000
    232 O2    s      -0.000071      0.000006     -0.000007      0.000000
    233 O2    s       0.000037      0.000004     -0.000081      0.000000
    234 O2    s      -0.000034     -0.000062     -0.000210      0.000000
    235 O2    s      -0.000030      0.000035      0.000032      0.000000
    236 O2    s      -0.000020     -0.000005      0.000083      0.000000
    237 O2    s       0.000058     -0.000048     -0.000015      0.000000
    238 O2    s       0.000010     -0.000007      0.000014      0.000000
    239 O3    s       0.001799      0.000303      0.000234      0.000000
    240 O2    s      -0.000015      0.000009      0.000004      0.000000
    241 O2    s      -0.000196      0.000119     -0.000091      0.000000
    242 O2    s       0.000028      0.000006      0.000032      0.000000
    243 O2    s      -0.000002     -0.000009     -0.000007      0.000000
    244 O2    s       0.000005     -0.000011     -0.000025      0.000000
    245 O2    s       0.000016     -0.000005     -0.000032      0.000000
    246 O2    s       0.000199      0.000079      0.000066      0.000000
    247 O2    s       0.000011     -0.000020     -0.000003      0.000000
    248 O2    s       0.000576     -0.000541     -0.000603      0.000000
    249 O2    s       0.000023     -0.000016     -0.000009      0.000000
    250 O2    s       0.000038     -0.000030      0.000061      0.000000
    251 O2    s      -0.000008      0.000013      0.000024      0.000000
    252 O2    s       0.000069     -0.000017      0.000109      0.000000
    253 O3    s       0.000219      0.000262      0.000801      0.000000
    254 O2    s       0.000007     -0.000003      0.000008      0.000000
    255 O2    s      -0.000001      0.000014      0.000002      0.000000
    256 O2    s       0.000003     -0.000005      0.000012      0.000000
    257 O2    s      -0.000032      0.000054     -0.000140      0.000000
    258 O2    s       0.000055     -0.000039     -0.000015      0.000000
    259 O2    s      -0.000026     -0.000033      0.000052      0.000000
    260 O2    s       0.000050     -0.000023     -0.000006      0.000000
    261 O2    s      -0.000014      0.000023     -0.000086      0.000000
    262 O2    s       0.000016      0.000005      0.000011      0.000000
    263 O2    s      -0.000008     -0.000001     -0.000016      0.000000
    264 O2    s      -0.000177      0.000550     -0.001143      0.000000
    265 O3    s      -0.001139      0.000341      0.000925      0.000000
    266 O2    s       0.000005      0.000004      0.000039      0.000000
    267 O2    s       0.000014      0.000005     -0.000004      0.000000
    268 O2    s      -0.000002      0.000010     -0.000019      0.000000
    269 O2    s      -0.000002     -0.000027      0.000104      0.000000
    270 O2    s      -0.000035      0.000002      0.000138      0.000000
    271 O2    s       0.000052     -0.000040      0.000032      0.000000
    272 O2    s      -0.000017      0.000028     -0.000082      0.000000
    273 O2    s       0.000004     -0.000028     -0.000040      0.000000
    274 O2    s       0.000020     -0.000018     -0.000033      0.000000
    275 O2    s       0.000002      0.000009      0.000005      0.000000
    276 O2    s      -0.000134     -0.000289      0.000972      0.000000
    277 O2    s       0.000020     -0.000059     -0.000104      0.000000
    278 O2    s       0.000016     -0.000040     -0.000041      0.000000
    279 O2    s       0.000001     -0.000028      0.000005      0.000000
    280 O2    s      -0.000014     -0.000024      0.000057      0.000000
    281 O2    s       0.000036     -0.000011      0.000013      0.000000
    282 O2    s      -0.000199      0.000344     -0.000324      0.000000
    283 O2    s       0.000015     -0.000009      0.000021      0.000000
    284 O2    s      -0.000087      0.000046     -0.001677      0.000000
    285 O2    s      -0.000025      0.000009     -0.000036      0.000000
    286 O2    s       0.000041     -0.000012     -0.000041      0.000000
    287 O2    s      -0.000002      0.000013      0.000018      0.000000
    288 O2    s      -0.000010     -0.000005      0.000008      0.000000
    289 O2    s       0.000398     -0.000243      0.000485      0.000000
    290 O2    s      -0.000013      0.000031      0.000042      0.000000
    291 O2    s      -0.000004      0.000015     -0.000023      0.000000
    292 O2    s       0.000004     -0.000001      0.000001      0.000000
    293 O2    s      -0.000005     -0.000002     -0.000029      0.000000
    294 O2    s      -0.000107     -0.000020     -0.000733      0.000000
    295 O2    s       0.000016     -0.000031     -0.000006      0.000000
    296 O2    s      -0.000208     -0.000358      0.000109      0.000000
    297 O2    s       0.000002     -0.000007     -0.000034      0.000000
    298 O2    s       0.000045      0.000014      0.000026      0.000000
    299 O2    s       0.000000      0.000013      0.000047      0.000000
    300 O2    s      -0.000042      0.000018      0.000370      0.000000
    301 O2    s      -0.000008     -0.000036     -0.000018      0.000000
    302 O2    s       0.000015      0.000005      0.000045      0.000000
    303 O2    s       0.000190      0.000112      0.000127      0.000000
    304 O2    s       0.000018     -0.000002      0.000048      0.000000
    305 O2    s      -0.000191     -0.000108      0.000209      0.000000
    306 O2    s      -0.000005      0.000008      0.000036      0.000000
    307 F     s      -0.000089     -0.000028      0.000016      0.000000
    308 F     s      -0.000016     -0.000004     -0.000033      0.000000
    309 F     s       0.000002      0.000039     -0.000062      0.000000
    310 F     s       0.000008      0.000019      0.000028      0.000000
    311 F     s       0.000012      0.000017      0.001031      0.000000
    312 F     s       0.000004      0.000001     -0.000019      0.000000
--------------------------------------------------------------------------------
  Maximum abs         0.002683      0.001870      0.006757      0.000000
--------------------------------------------------------------------------------


  Time to end of optimisation =       9.0700 seconds


  Peak dynamic memory used =      19.13 MB 


  Timing analysis for GULP :

--------------------------------------------------------------------------------
  Task / Subroutine                                          Time (Seconds)
--------------------------------------------------------------------------------
  Calculation of reciprocal space energy and derivatives          0.3181
  Calculation of real space energy and derivatives                7.6916
  Calculation of three-body energy and derivatives                0.8290
  Calculation of matrix inversion                                 0.1920
--------------------------------------------------------------------------------
  Total CPU time                                                  9.0701
--------------------------------------------------------------------------------


  Dump file written as out.res                                                 
  CIF file written as out.cif                                                 


  Job Finished at 11:56.29 30th November   2016                               

