********************************************************************************
*                       GENERAL UTILITY LATTICE PROGRAM                        *
*                                 Julian Gale                                  *
*                      Nanochemistry Research Institute                        *
*                           Department of Chemistry                            *
*                    Curtin University, Western Australia                      *
********************************************************************************
* Version = 4.2.0 * Last modified =  20th January 2014                         *
********************************************************************************
*  optimise     - perform optimisation run                                     *
*  conp         - constant pressure calculation                                *
*  qok          - running with non charge neutral cell is OK                   *
********************************************************************************

  Job Started  at 11:11.40 30th November   2016                               

  Number of CPUs =     1


  Total number of configurations input =   1

********************************************************************************
*  Input for Configuration =   1                                               *
********************************************************************************

  Formula = Ge3Si57O120F6                                               

  Number of irreducible atoms/shells =     312


  Total number atoms/shells =     312

  Dimensionality = 3               :  Bulk   


  Charge on solid   =  -6.000000 =>neutralising background added


  Cartesian lattice vectors (Angstroms) :

       11.976886    0.000000    0.000000
       -6.062842   10.379359    0.000000
       -0.235361   -0.235196   29.473151

  Cell parameters (Angstroms/Degrees):

  a =      11.9769    alpha =  90.1640
  b =      12.0204    beta  =  90.4575
  c =      29.4750    gamma = 120.2903

  Initial cell volume =        3663.878130 Angs**3

  Temperature of configuration =  0.000     K 

  Pressure of configuration =         0.000 GPa 

  Fractional coordinates of asymmetric unit :

--------------------------------------------------------------------------------
   No.  Atomic       x           y          z         Charge      Occupancy
        Label      (Frac)      (Frac)     (Frac)        (e)         (Frac)  
--------------------------------------------------------------------------------
      1 Ge    c    0.699600    0.375700    0.033890     4.00000    1.000000    
      2 Si    c    0.620285 *  0.323996 *  0.365581 *   4.00000    1.000000    
      3 Si    c    0.680905 *  0.297855 *  0.699354 *   4.00000    1.000000    
      4 Si    c    0.297746 *  0.623366 *  0.530473 *   4.00000    1.000000    
      5 Si    c    0.373629 *  0.675994 *  0.863764 *   4.00000    1.000000    
      6 Si    c    0.321475 *  0.704701 *  0.197568 *   4.00000    1.000000    
      7 Si    c    0.377585 *  0.700511 *  0.298118 *   4.00000    1.000000    
      8 Si    c    0.322356 *  0.624661 *  0.964333 *   4.00000    1.000000    
      9 Si    c    0.301261 *  0.674345 *  0.631781 *   4.00000    1.000000    
     10 Si    c    0.620192 *  0.299157 *  0.798793 *   4.00000    1.000000    
     11 Si    c    0.675018 *  0.381793 *  0.466158 *   4.00000    1.000000    
     12 Si    c    0.689162 *  0.318328 *  0.132855 *   4.00000    1.000000    
     13 Si    c    0.529758 *  0.419256 *  0.966806 *   4.00000    1.000000    
     14 Si    c    0.584388 *  0.111227 *  0.302392 *   4.00000    1.000000    
     15 Si    c    0.887523 *  0.465280 *  0.632788 *   4.00000    1.000000    
     16 Si    c    0.467937 *  0.584857 *  0.465051 *   4.00000    1.000000    
     17 Si    c    0.413787 *  0.885633 *  0.798864 *   4.00000    1.000000    
     18 Si    c    0.110079 *  0.532955 *  0.130225 *   4.00000    1.000000    
     19 Si    c    0.415562 *  0.528657 *  0.363149 *   4.00000    1.000000    
     20 Si    c    0.106255 *  0.582869 *  0.026939 *   4.00000    1.000000    
     21 Si    c    0.471119 *  0.884714 *  0.697777 *   4.00000    1.000000    
     22 Si    c    0.578736 *  0.466957 *  0.864849 *   4.00000    1.000000    
     23 Si    c    0.886742 *  0.419190 *  0.530914 *   4.00000    1.000000    
     24 Si    c    0.530201 *  0.112959 *  0.200986 *   4.00000    1.000000    
     25 Si    c    0.298227 *  0.398709 *  0.850870 *   4.00000    1.000000    
     26 Si    c    0.601076 *  0.906014 *  0.184485 *   4.00000    1.000000    
     27 Si    c    0.096036 *  0.700695 *  0.517604 *   4.00000    1.000000    
     28 Si    c    0.696539 *  0.600525 *  0.349797 *   4.00000    1.000000    
     29 Si    c    0.403617 *  0.094573 *  0.681516 *   4.00000    1.000000    
     30 Si    c    0.891751 *  0.295956 *  0.011943 *   4.00000    1.000000    
     31 Si    c    0.396820 *  0.305172 *  0.479959 *   4.00000    1.000000    
     32 Si    c    0.895575 *  0.603230 *  0.143293 *   4.00000    1.000000    
     33 Si    c    0.693952 *  0.097352 *  0.816002 *   4.00000    1.000000    
     34 Si    c    0.601131 *  0.701502 *  0.978926 *   4.00000    1.000000    
     35 Si    c    0.098488 *  0.396041 *  0.644866 *   4.00000    1.000000    
     36 Si    c    0.302472 *  0.901545 *  0.314439 *   4.00000    1.000000    
     37 Si    c    0.250476 *  0.344548 *  0.951210 *   4.00000    1.000000    
     38 Si    c    0.660216 *  0.910450 *  0.285146 *   4.00000    1.000000    
     39 Si    c    0.090185 *  0.743657 *  0.618908 *   4.00000    1.000000    
     40 Si    c    0.746748 *  0.661165 *  0.450481 *   4.00000    1.000000    
     41 Si    c    0.339758 *  0.087493 *  0.781221 *   4.00000    1.000000    
     42 Si    c    0.904810 *  0.250711 *  0.114729 *   4.00000    1.000000    
     43 Si    c    0.338893 *  0.251129 *  0.379155 *   4.00000    1.000000    
     44 Si    c    0.900816 *  0.660089 *  0.040830 *   4.00000    1.000000    
     45 Si    c    0.748907 *  0.088123 *  0.716135 *   4.00000    1.000000    
     46 Si    c    0.653752 *  0.744886 *  0.877981 *   4.00000    1.000000    
     47 Si    c    0.088408 *  0.342147 *  0.543772 *   4.00000    1.000000    
     48 Si    c    0.249835 *  0.911975 *  0.213989 *   4.00000    1.000000    
     49 Si    c    0.975520 *  0.122767 *  0.966713 *   4.00000    1.000000    
     50 Si    c    0.876936 *  0.846328 *  0.298645 *   4.00000    1.000000    
     51 Ge    c    0.150511 *  0.026307 *  0.631434 *   4.00000    1.000000    
     52 Si    c    0.027987 *  0.878562 *  0.464787 *   4.00000    1.000000    
     53 Si    c    0.124652 *  0.151549 *  0.797878 *   4.00000    1.000000    
     54 Si    c    0.847544 *  0.973346 *  0.132905 *   4.00000    1.000000    
     55 Si    c    0.122193 *  0.968810 *  0.363997 *   4.00000    1.000000    
     56 Si    c    0.849630 *  0.882609 *  0.031676 *   4.00000    1.000000    
     57 Si    c    0.027832 *  0.150718 *  0.697297 *   4.00000    1.000000    
     58 Ge    c    0.877544 *  0.026498 *  0.864222 *   4.00000    1.000000    
     59 Si    c    0.147731 *  0.124554 *  0.528767 *   4.00000    1.000000    
     60 Si    c    0.969589 *  0.851407 *  0.197190 *   4.00000    1.000000    
     61 O2    c    0.932704 *  0.010862 *  0.003396 *   0.87073    1.000000    
     62 O2    c    0.001986 *  0.927369 *  0.330187 *   0.87073    1.000000    
     63 O3    c    0.059338 *  0.064826 *  0.665128 *   1.33043    1.000000    
     64 O2    c    0.070956 *  0.005124 *  0.494502 *   0.87073    1.000000    
     65 O3    c    0.003676 *  0.065984 *  0.828513 *   1.33043    1.000000    
     66 O2    c    0.930932 *  0.937190 *  0.166444 *   0.87073    1.000000    
     67 O2    c    0.339286 *  0.576717 *  0.329995 *   0.87073    1.000000    
     68 O2    c    0.424612 *  0.759314 *  0.665072 *   0.87073    1.000000    
     69 O2    c    0.234578 *  0.660688 *  0.996465 *   0.87073    1.000000    
     70 O2    c    0.655788 *  0.419891 *  0.832212 *   0.87073    1.000000    
     71 O2    c    0.581100 *  0.241348 *  0.171065 *   0.87073    1.000000    
     72 O2    c    0.759640 *  0.343265 *  0.498618 *   0.87073    1.000000    
     73 O3    c    0.566845 *  0.337642 *  0.999052 *   1.33043    1.000000    
     74 O2    c    0.764971 *  0.418204 *  0.665995 *   0.87073    1.000000    
     75 O2    c    0.660232 *  0.237500 *  0.334724 *   0.87073    1.000000    
     76 O2    c    0.419428 *  0.661856 *  0.497167 *   0.87073    1.000000    
     77 O2    c    0.235255 *  0.583841 *  0.163239 *   0.87073    1.000000    
     78 O2    c    0.335257 *  0.760306 *  0.830871 *   0.87073    1.000000    
     79 O2    c    0.128944 *  0.218820 *  0.973142 *   0.87073    1.000000    
     80 O2    c    0.787049 *  0.910093 *  0.304710 *   0.87073    1.000000    
     81 O3    c    0.086700 *  0.863937 *  0.640355 *   1.33043    1.000000    
     82 O2    c    0.873658 *  0.788092 *  0.470565 *   0.87073    1.000000    
     83 O2    c    0.215936 *  0.089002 *  0.801573 *   0.87073    1.000000    
     84 O2    c    0.909083 *  0.128003 *  0.135513 *   0.87073    1.000000    
     85 O2    c    0.212331 *  0.123085 *  0.359298 *   0.87073    1.000000    
     86 O2    c    0.917309 *  0.797294 *  0.024894 *   0.87073    1.000000    
     87 O2    c    0.873299 *  0.088515 *  0.695395 *   0.87073    1.000000    
     88 O3    c    0.777067 *  0.863884 *  0.855669 *   1.33043    1.000000    
     89 O2    c    0.086524 *  0.216783 *  0.522329 *   0.87073    1.000000    
     90 O2    c    0.124308 *  0.913921 *  0.193797 *   0.87073    1.000000    
     91 O2    c    0.925379 *  0.855905 *  0.247740 *   0.87073    1.000000    
     92 O3    c    0.126842 *  0.065734 *  0.577846 *   1.33043    1.000000    
     93 O3    c    0.941533 *  0.057978 *  0.917984 *   1.33043    1.000000    
     94 O2    c    0.076427 *  0.145306 *  0.747042 *   0.87073    1.000000    
     95 O2    c    0.855436 *  0.924808 *  0.083556 *   0.87073    1.000000    
     96 O2    c    0.066444 *  0.924392 *  0.413664 *   0.87073    1.000000    
     97 O2    c    0.903375 *  0.203789 *  0.974312 *   0.87073    1.000000    
     98 O2    c    0.794605 *  0.695653 *  0.311349 *   0.87073    1.000000    
     99 O3    c    0.313979 *  0.101188 *  0.641866 *   1.33043    1.000000    
    100 O2    c    0.097821 *  0.799167 *  0.479583 *   0.87073    1.000000    
    101 O2    c    0.201255 *  0.301632 *  0.812126 *   0.87073    1.000000    
    102 O2    c    0.696896 *  0.904834 *  0.146155 *   0.87073    1.000000    
    103 O2    c    0.205194 *  0.900360 *  0.352668 *   0.87073    1.000000    
    104 O2    c    0.698824 *  0.801372 *  0.017267 *   0.87073    1.000000    
    105 O2    c    0.100892 *  0.300290 *  0.682753 *   0.87073    1.000000    
    106 O3    c    0.790633 *  0.103134 *  0.855339 *   1.33043    1.000000    
    107 O2    c    0.300967 *  0.208438 *  0.518442 *   0.87073    1.000000    
    108 O2    c    0.899995 *  0.702143 *  0.181780 *   0.87073    1.000000    
    109 O2    c    0.320567 *  0.644597 *  0.247254 *   0.87073    1.000000    
    110 O2    c    0.357168 *  0.677899 *  0.581068 *   0.87073    1.000000    
    111 O2    c    0.318360 *  0.678991 *  0.914013 *   0.87073    1.000000    
    112 O2    c    0.680487 *  0.357333 *  0.749128 *   0.87073    1.000000    
    113 O3    c    0.616528 *  0.303975 *  0.085766 *   1.33043    1.000000    
    114 O2    c    0.676360 *  0.324885 *  0.416085 *   0.87073    1.000000    
    115 O2    c    0.372718 *  0.334751 *  0.968177 *   0.87073    1.000000    
    116 O2    c    0.671304 *  0.042098 *  0.304741 *   0.87073    1.000000    
    117 O2    c    0.957277 *  0.620555 *  0.636033 *   0.87073    1.000000    
    118 O2    c    0.624786 *  0.672305 *  0.468125 *   0.87073    1.000000    
    119 O2    c    0.327763 *  0.955435 *  0.800294 *   0.87073    1.000000    
    120 O2    c    0.037491 *  0.377156 *  0.131787 *   0.87073    1.000000    
    121 O2    c    0.328223 *  0.372216 *  0.360139 *   0.87073    1.000000    
    122 O2    c    0.034380 *  0.666137 *  0.024988 *   0.87073    1.000000    
    123 O2    c    0.627703 *  0.955225 *  0.696636 *   0.87073    1.000000    
    124 O2    c    0.663435 *  0.622052 *  0.860907 *   0.87073    1.000000    
    125 O2    c    0.955322 *  0.332575 *  0.526111 *   0.87073    1.000000    
    126 O2    c    0.373577 *  0.043959 *  0.196587 *   0.87073    1.000000    
    127 O3    c    0.757025 *  0.285964 *  0.002529 *   1.33043    1.000000    
    128 O2    c    0.695282 *  0.466062 *  0.342643 *   0.87073    1.000000    
    129 O2    c    0.538584 *  0.228437 *  0.675929 *   0.87073    1.000000    
    130 O2    c    0.228941 *  0.698950 *  0.509329 *   0.87073    1.000000    
    131 O2    c    0.298580 *  0.531914 *  0.841683 *   0.87073    1.000000    
    132 O2    c    0.464939 *  0.773361 *  0.175642 *   0.87073    1.000000    
    133 O2    c    0.302147 *  0.767473 *  0.320671 *   0.87073    1.000000    
    134 O2    c    0.466869 *  0.702005 *  0.986529 *   0.87073    1.000000    
    135 O2    c    0.233292 *  0.530152 *  0.652731 *   0.87073    1.000000    
    136 O2    c    0.693441 *  0.230862 *  0.821879 *   0.87073    1.000000    
    137 O2    c    0.531533 *  0.306928 *  0.488073 *   0.87073    1.000000    
    138 O2    c    0.763944 *  0.467966 *  0.151248 *   0.87073    1.000000    
    139 O3    c    0.773592 *  0.546558 *  0.019603 *   1.33043    1.000000    
    140 O2    c    0.463837 *  0.249364 *  0.359858 *   0.87073    1.000000    
    141 O2    c    0.754678 *  0.216317 *  0.696851 *   0.87073    1.000000    
    142 O2    c    0.214957 *  0.467765 *  0.524710 *   0.87073    1.000000    
    143 O2    c    0.529339 *  0.749144 *  0.858671 *   0.87073    1.000000    
    144 O2    c    0.245917 *  0.784873 *  0.193686 *   0.87073    1.000000    
    145 O2    c    0.534026 *  0.783328 *  0.303530 *   0.87073    1.000000    
    146 O2    c    0.248408 *  0.469553 *  0.970480 *   0.87073    1.000000    
    147 O2    c    0.218100 *  0.745840 *  0.637752 *   0.87073    1.000000    
    148 O2    c    0.464021 *  0.216123 *  0.800707 *   0.87073    1.000000    
    149 O2    c    0.748337 *  0.537629 *  0.470854 *   0.87073    1.000000    
    150 O2    c    0.782114 *  0.254817 *  0.134401 *   0.87073    1.000000    
    151 O2    c    0.224538 *  0.325671 *  0.896879 *   0.87073    1.000000    
    152 O2    c    0.676364 *  0.909928 *  0.230807 *   0.87073    1.000000    
    153 O2    c    0.094689 *  0.770029 *  0.564636 *   0.87073    1.000000    
    154 O2    c    0.766887 *  0.676734 *  0.396215 *   0.87073    1.000000    
    155 O2    c    0.321727 *  0.086126 *  0.726551 *   0.87073    1.000000    
    156 O2    c    0.900320 *  0.234641 *  0.060498 *   0.87073    1.000000    
    157 O2    c    0.321853 *  0.233678 *  0.433407 *   0.87073    1.000000    
    158 O2    c    0.897724 *  0.670288 *  0.096146 *   0.87073    1.000000    
    159 O2    c    0.766983 *  0.088876 *  0.770722 *   0.87073    1.000000    
    160 O2    c    0.674811 *  0.770622 *  0.932399 *   0.87073    1.000000    
    161 O2    c    0.093131 *  0.322767 *  0.597917 *   0.87073    1.000000    
    162 O2    c    0.232016 *  0.908577 *  0.268273 *   0.87073    1.000000    
    163 O2    c    0.585252 *  0.562656 *  0.988451 *   0.87073    1.000000    
    164 O2    c    0.442949 *  0.025178 *  0.324697 *   0.87073    1.000000    
    165 O2    c    0.972465 *  0.407630 *  0.654341 *   0.87073    1.000000    
    166 O2    c    0.411363 *  0.444596 *  0.488224 *   0.87073    1.000000    
    167 O2    c    0.553883 *  0.971177 *  0.823444 *   0.87073    1.000000    
    168 O2    c    0.018617 *  0.584003 *  0.149837 *   0.87073    1.000000    
    169 O2    c    0.556936 *  0.586139 *  0.340399 *   0.87073    1.000000    
    170 O2    c    0.015722 *  0.440431 *  0.005906 *   0.87073    1.000000    
    171 O2    c    0.415910 *  0.968333 *  0.673238 *   0.87073    1.000000    
    172 O2    c    0.435415 *  0.407623 *  0.842742 *   0.87073    1.000000    
    173 O2    c    0.968857 *  0.561587 *  0.508817 *   0.87073    1.000000    
    174 O2    c    0.588644 *  0.032095 *  0.176570 *   0.87073    1.000000    
    175 O2    c    0.583502 *  0.164259 *  0.251960 *   0.87073    1.000000    
    176 O2    c    0.832544 *  0.413643 *  0.581769 *   0.87073    1.000000    
    177 O2    c    0.582299 *  0.418880 *  0.915845 *   0.87073    1.000000    
    178 O2    c    0.415425 *  0.832061 *  0.748176 *   0.87073    1.000000    
    179 O2    c    0.153451 *  0.580322 *  0.078784 *   0.87073    1.000000    
    180 O2    c    0.415024 *  0.582832 *  0.413796 *   0.87073    1.000000    
    181 F     c    0.450846 *  0.903175 *  0.248838 *   0.56000    1.000000    
    182 F     c    0.095819 *  0.546784 *  0.581015 *   0.56000    1.000000    
    183 F     c    0.447033 *  0.551122 *  0.914170 *   0.56000    1.000000    
    184 F     c    0.547673 *  0.093939 *  0.748325 *   0.56000    1.000000    
    185 F     c    0.854040 *  0.435779 *  0.070291 *   0.56000    1.000000    
    186 F     c    0.546399 *  0.452954 *  0.414451 *   0.56000    1.000000    
    187 O2    s    0.927946 *  0.008660 *  0.002553 *  -2.87073    1.000000    
    188 O2    s    0.001317 *  0.922860 *  0.330403 *  -2.87073    1.000000    
    189 O3    s    0.063885 *  0.070714 *  0.665651 *  -3.33043    1.000000    
    190 O2    s    0.074569 *  0.003932 *  0.494894 *  -2.87073    1.000000    
    191 O3    s    0.005741 *  0.071799 *  0.828313 *  -3.33043    1.000000    
    192 O2    s    0.926118 *  0.931738 *  0.166181 *  -2.87073    1.000000    
    193 O2    s    0.350961 *  0.584528 *  0.330081 *  -2.87073    1.000000    
    194 O2    s    0.416721 *  0.763327 *  0.664966 *  -2.87073    1.000000    
    195 O2    s    0.229957 *  0.648968 *  0.996418 *  -2.87073    1.000000    
    196 O2    s    0.644157 *  0.412108 *  0.832060 *  -2.87073    1.000000    
    197 O2    s    0.586904 *  0.235679 *  0.170274 *  -2.87073    1.000000    
    198 O2    s    0.763954 *  0.355157 *  0.498565 *  -2.87073    1.000000    
    199 O3    s    0.573253 *  0.349083 *  0.998384 *  -3.33043    1.000000    
    200 O2    s    0.769046 *  0.410663 *  0.666000 *  -2.87073    1.000000    
    201 O2    s    0.648286 *  0.233205 *  0.334521 *  -2.87073    1.000000    
    202 O2    s    0.412050 *  0.650064 *  0.497268 *  -2.87073    1.000000    
    203 O2    s    0.230740 *  0.590590 *  0.163227 *  -2.87073    1.000000    
    204 O2    s    0.347155 *  0.764565 *  0.830929 *  -2.87073    1.000000    
    205 O2    s    0.125191 *  0.221673 *  0.970199 *  -2.87073    1.000000    
    206 O2    s    0.783380 *  0.903381 *  0.302083 *  -2.87073    1.000000    
    207 O3    s    0.092310 *  0.865176 *  0.637473 *  -3.33043    1.000000    
    208 O2    s    0.876863 *  0.784517 *  0.467899 *  -2.87073    1.000000    
    209 O2    s    0.219412 *  0.095514 *  0.799012 *  -2.87073    1.000000    
    210 O2    s    0.902187 *  0.124491 *  0.133111 *  -2.87073    1.000000    
    211 O2    s    0.215827 *  0.119926 *  0.361831 *  -2.87073    1.000000    
    212 O2    s    0.908363 *  0.792665 *  0.027188 *  -2.87073    1.000000    
    213 O2    s    0.876704 *  0.095203 *  0.697787 *  -2.87073    1.000000    
    214 O3    s    0.773013 *  0.865431 *  0.858590 *  -3.33043    1.000000    
    215 O2    s    0.093116 *  0.220122 *  0.525199 *  -2.87073    1.000000    
    216 O2    s    0.120809 *  0.907067 *  0.196222 *  -2.87073    1.000000    
    217 O2    s    0.924908 *  0.854305 *  0.247751 *  -2.87073    1.000000    
    218 O3    s    0.131182 *  0.068715 *  0.577141 *  -3.33043    1.000000    
    219 O3    s    0.939656 *  0.062222 *  0.918573 *  -3.33043    1.000000    
    220 O2    s    0.076349 *  0.146658 *  0.747112 *  -2.87073    1.000000    
    221 O2    s    0.853874 *  0.925777 *  0.083513 *  -2.87073    1.000000    
    222 O2    s    0.068466 *  0.924286 *  0.413754 *  -2.87073    1.000000    
    223 O2    s    0.909865 *  0.204635 *  0.977343 *  -2.87073    1.000000    
    224 O2    s    0.793372 *  0.701989 *  0.313905 *  -2.87073    1.000000    
    225 O3    s    0.309066 *  0.094386 *  0.644790 *  -3.33043    1.000000    
    226 O2    s    0.090206 *  0.797536 *  0.481894 *  -2.87073    1.000000    
    227 O2    s    0.203110 *  0.295650 *  0.814642 *  -2.87073    1.000000    
    228 O2    s    0.703023 *  0.912256 *  0.148723 *  -2.87073    1.000000    
    229 O2    s    0.206443 *  0.907719 *  0.349924 *  -2.87073    1.000000    
    230 O2    s    0.704879 *  0.799845 *  0.014903 *  -2.87073    1.000000    
    231 O2    s    0.092934 *  0.294503 *  0.680302 *  -2.87073    1.000000    
    232 O3    s    0.788439 *  0.096364 *  0.852288 *  -3.33043    1.000000    
    233 O2    s    0.294846 *  0.209621 *  0.515606 *  -2.87073    1.000000    
    234 O2    s    0.906937 *  0.707821 *  0.179444 *  -2.87073    1.000000    
    235 O2    s    0.326342 *  0.656276 *  0.247289 *  -2.87073    1.000000    
    236 O2    s    0.345526 *  0.672019 *  0.581058 *  -2.87073    1.000000    
    237 O2    s    0.324311 *  0.673152 *  0.914052 *  -2.87073    1.000000    
    238 O2    s    0.674448 *  0.345429 *  0.749094 *  -2.87073    1.000000    
    239 O3    s    0.629453 *  0.310208 *  0.087063 *  -3.33043    1.000000    
    240 O2    s    0.670397 *  0.330674 *  0.415996 *  -2.87073    1.000000    
    241 O2    s    0.375268 *  0.344584 *  0.966115 *  -2.87073    1.000000    
    242 O2    s    0.661269 *  0.035500 *  0.302473 *  -2.87073    1.000000    
    243 O2    s    0.963930 *  0.617090 *  0.633852 *  -2.87073    1.000000    
    244 O2    s    0.621421 *  0.662169 *  0.465947 *  -2.87073    1.000000    
    245 O2    s    0.337909 *  0.961968 *  0.798141 *  -2.87073    1.000000    
    246 O2    s    0.031347 *  0.380321 *  0.129874 *  -2.87073    1.000000    
    247 O2    s    0.338239 *  0.375652 *  0.362420 *  -2.87073    1.000000    
    248 O2    s    0.028632 *  0.656718 *  0.026774 *  -2.87073    1.000000    
    249 O2    s    0.624062 *  0.961772 *  0.698804 *  -2.87073    1.000000    
    250 O2    s    0.653384 *  0.618566 *  0.863149 *  -2.87073    1.000000    
    251 O2    s    0.962239 *  0.342534 *  0.528481 *  -2.87073    1.000000    
    252 O2    s    0.376534 *  0.037059 *  0.198880 *  -2.87073    1.000000    
    253 O3    s    0.767444 *  0.292914 *  0.005649 *  -3.33043    1.000000    
    254 O2    s    0.687722 *  0.465560 *  0.345770 *  -2.87073    1.000000    
    255 O2    s    0.539190 *  0.221481 *  0.679025 *  -2.87073    1.000000    
    256 O2    s    0.222177 *  0.691355 *  0.512396 *  -2.87073    1.000000    
    257 O2    s    0.306243 *  0.532838 *  0.844952 *  -2.87073    1.000000    
    258 O2    s    0.464254 *  0.780049 *  0.178864 *  -2.87073    1.000000    
    259 O2    s    0.309900 *  0.774655 *  0.317659 *  -2.87073    1.000000    
    260 O2    s    0.465702 *  0.694024 *  0.983438 *  -2.87073    1.000000    
    261 O2    s    0.226191 *  0.530979 *  0.649696 *  -2.87073    1.000000    
    262 O2    s    0.685836 *  0.223827 *  0.818803 *  -2.87073    1.000000    
    263 O2    s    0.532107 *  0.314475 *  0.484931 *  -2.87073    1.000000    
    264 O2    s    0.770619 *  0.467742 *  0.148559 *  -2.87073    1.000000    
    265 O3    s    0.783098 *  0.548455 *  0.022762 *  -3.33043    1.000000    
    266 O2    s    0.466669 *  0.257392 *  0.362491 *  -2.87073    1.000000    
    267 O2    s    0.746116 *  0.211017 *  0.699195 *  -2.87073    1.000000    
    268 O2    s    0.209840 *  0.470477 *  0.527357 *  -2.87073    1.000000    
    269 O2    s    0.526168 *  0.740860 *  0.861255 *  -2.87073    1.000000    
    270 O2    s    0.254228 *  0.790112 *  0.196230 *  -2.87073    1.000000    
    271 O2    s    0.531374 *  0.788557 *  0.301008 *  -2.87073    1.000000    
    272 O2    s    0.256410 *  0.472467 *  0.967805 *  -2.87073    1.000000    
    273 O2    s    0.212970 *  0.737982 *  0.635101 *  -2.87073    1.000000    
    274 O2    s    0.467174 *  0.210880 *  0.798376 *  -2.87073    1.000000    
    275 O2    s    0.740380 *  0.534730 *  0.468172 *  -2.87073    1.000000    
    276 O2    s    0.786319 *  0.260784 *  0.132091 *  -2.87073    1.000000    
    277 O2    s    0.234722 *  0.335138 *  0.897750 *  -2.87073    1.000000    
    278 O2    s    0.666687 *  0.909563 *  0.231713 *  -2.87073    1.000000    
    279 O2    s    0.094431 *  0.760206 *  0.565236 *  -2.87073    1.000000    
    280 O2    s    0.757331 *  0.667048 *  0.397045 *  -2.87073    1.000000    
    281 O2    s    0.331739 *  0.087038 *  0.727625 *  -2.87073    1.000000    
    282 O2    s    0.899898 *  0.242389 *  0.061605 *  -2.87073    1.000000    
    283 O2    s    0.331515 *  0.243034 *  0.432518 *  -2.87073    1.000000    
    284 O2    s    0.897678 *  0.661774 *  0.095880 *  -2.87073    1.000000    
    285 O2    s    0.757835 *  0.089566 *  0.769615 *  -2.87073    1.000000    
    286 O2    s    0.665086 *  0.760957 *  0.931636 *  -2.87073    1.000000    
    287 O2    s    0.093230 *  0.332411 *  0.597112 *  -2.87073    1.000000    
    288 O2    s    0.241272 *  0.908207 *  0.267292 *  -2.87073    1.000000    
    289 O2    s    0.581044 *  0.563160 *  0.985177 *  -2.87073    1.000000    
    290 O2    s    0.442652 *  0.020686 *  0.321238 *  -2.87073    1.000000    
    291 O2    s    0.977327 *  0.412625 *  0.651018 *  -2.87073    1.000000    
    292 O2    s    0.415896 *  0.444278 *  0.484905 *  -2.87073    1.000000    
    293 O2    s    0.554304 *  0.975947 *  0.820082 *  -2.87073    1.000000    
    294 O2    s    0.015164 *  0.580463 *  0.147031 *  -2.87073    1.000000    
    295 O2    s    0.557196 *  0.581510 *  0.343785 *  -2.87073    1.000000    
    296 O2    s    0.012605 *  0.441007 *  0.008778 *  -2.87073    1.000000    
    297 O2    s    0.420474 *  0.973297 *  0.676660 *  -2.87073    1.000000    
    298 O2    s    0.435681 *  0.413046 *  0.845967 *  -2.87073    1.000000    
    299 O2    s    0.974149 *  0.561741 *  0.512061 *  -2.87073    1.000000    
    300 O2    s    0.583780 *  0.026748 *  0.179946 *  -2.87073    1.000000    
    301 O2    s    0.577935 *  0.153201 *  0.251896 *  -2.87073    1.000000    
    302 O2    s    0.843845 *  0.419553 *  0.581792 *  -2.87073    1.000000    
    303 O2    s    0.576687 *  0.424018 *  0.915600 *  -2.87073    1.000000    
    304 O2    s    0.421010 *  0.842999 *  0.748165 *  -2.87073    1.000000    
    305 O2    s    0.144067 *  0.575544 *  0.078992 *  -2.87073    1.000000    
    306 O2    s    0.420505 *  0.577453 *  0.413845 *  -2.87073    1.000000    
    307 F     s    0.450569 *  0.902729 *  0.248752 *  -1.56000    1.000000    
    308 F     s    0.096078 *  0.546893 *  0.580984 *  -1.56000    1.000000    
    309 F     s    0.446537 *  0.551537 *  0.914082 *  -1.56000    1.000000    
    310 F     s    0.547831 *  0.094232 *  0.748275 *  -1.56000    1.000000    
    311 F     s    0.844603 *  0.432072 *  0.068229 *  -1.56000    1.000000    
    312 F     s    0.546610 *  0.452751 *  0.414402 *  -1.56000    1.000000    
--------------------------------------------------------------------------------



********************************************************************************
*  General input information                                                   *
********************************************************************************

  Species output for all configurations : 

--------------------------------------------------------------------------------
  Species    Type    Atomic    Atomic    Charge       Radii (Angs)     Library
                     Number     Mass       (e)     Cova   Ionic  VDW   Symbol
--------------------------------------------------------------------------------
    Si       Core       14      28.09   4.000000   1.200  0.000  2.100          
    O1       Core        8      16.00   1.733957   0.730  0.000  1.360          
    O1       Shell       8       0.00  -3.733957   0.730  0.000  1.360          
    O2       Core        8      16.00   0.870733   0.730  0.000  1.360          
    O2       Shell       8       0.00  -2.870733   0.730  0.000  1.360          
    O3       Core        8      16.00   1.330431   0.730  0.000  1.360          
    O3       Shell       8       0.00  -3.330431   0.730  0.000  1.360          
    F        Core        9      19.00   0.560000   0.710  0.000  1.300          
    F        Shell       9       0.00  -1.560000   0.710  0.000  1.300          
    Ge       Core       32      72.61   4.000000   1.170  0.000  1.750          
--------------------------------------------------------------------------------


  Lattice summation method               =    Ewald          (3-D)
                                         =    Parry          (2-D)
                                         =    Saunders et al (1-D)
  Accuracy factor for lattice sums       =   12.000


  Time limit = Infinity

  Maximum range for interatomic potentials =        16.000000 Angstroms

  Taper potentials to zero over   1.0000 Angstroms using polynomial

  General interatomic potentials :

--------------------------------------------------------------------------------
Atom  Types   Potential         A         B         C         D     Cutoffs(Ang)
  1     2                                                            Min    Max 
--------------------------------------------------------------------------------
Si   c O1   s Buckingham    0.132E+04 0.318      10.1      0.00     0.000 16.000
Si   c O2   s Buckingham    0.132E+04 0.318      10.1      0.00     0.000 16.000
Si   c O3   s Buckingham    0.132E+04 0.318      10.1      0.00     0.000 16.000
Ge   c O1   s Buckingham    0.150E+04 0.326      16.8      0.00     0.000 16.000
Ge   c O2   s Buckingham    0.150E+04 0.326      16.8      0.00     0.000 16.000
Ge   c O3   s Buckingham    0.150E+04 0.326      16.8      0.00     0.000 16.000
O1   s O1   s Buckingham    0.228E+05 0.149      10.9      0.00     0.000 16.000
O1   s O2   s Buckingham    0.228E+05 0.149      10.9      0.00     0.000 16.000
O1   s O3   s Buckingham    0.228E+05 0.149      10.9      0.00     0.000 16.000
O2   s O2   s Buckingham    0.228E+05 0.149      10.9      0.00     0.000 16.000
O2   s O3   s Buckingham    0.228E+05 0.149      10.9      0.00     0.000 16.000
O3   s O3   s Buckingham    0.228E+05 0.149      10.9      0.00     0.000 16.000
Si   c F    s Buckingham     977.     0.282      0.00      0.00     0.000 16.000
Ge   c F    s Buckingham     681.     0.320      0.00      0.00     0.000 16.000
F    s F    s Buckingham     540.     0.262      0.00      0.00     0.000 16.000
O1   s F    s Buckingham    0.168E+04 0.268      0.00      0.00     0.000 16.000
O2   s F    s Buckingham    0.168E+04 0.268      0.00      0.00     0.000 16.000
O3   s F    s Buckingham    0.168E+04 0.268      0.00      0.00     0.000 16.000
O2   c O2   s Spring (c-s)   76.0      0.00      0.00      0.00     0.000  0.800
O3   c O3   s Spring (c-s)   128.      0.00      0.00      0.00     0.000  0.800
O1   c O1   s Spring (c-s)   180.      0.00      0.00      0.00     0.000  0.800
F    c F    s Spring (c-s)   33.5      0.00      0.00      0.00     0.000  0.800
--------------------------------------------------------------------------------

  General Three-body potentials :

  Harmonic form:

--------------------------------------------------------------------------------
Atom    Atom    Atom           Force Constants            Theta     Cutoffs  
  1       2       3     (eVrad**-2/eVrad**-3/eVrad**-4)   (deg)  1-2  1-3  2-3
--------------------------------------------------------------------------------
Si    c O1    s O1    s  1.261        0.0000    0.0000   109.470 0.00 0.00 0.00
                                                                 1.90 1.90 3.50
Si    c O1    s O2    s  1.261        0.0000    0.0000   109.470 0.00 0.00 0.00
                                                                 1.90 1.90 3.50
Si    c O2    s O2    s  1.261        0.0000    0.0000   109.470 0.00 0.00 0.00
                                                                 1.90 1.90 3.50
--------------------------------------------------------------------------------

********************************************************************************
*  Output for configuration   1                                                *
********************************************************************************


  Components of energy : 

--------------------------------------------------------------------------------
  Interatomic potentials     =        2060.56186948 eV
  Three-body potentials      =           0.43741710 eV
  Monopole - monopole (real) =       -6611.23728540 eV
  Monopole - monopole (recip)=       -3169.31395114 eV
  Monopole - monopole (total)=       -9780.55123654 eV
  Neutralising energy        =          -6.45587241 eV
--------------------------------------------------------------------------------
  Total lattice energy       =       -7726.00782236 eV
--------------------------------------------------------------------------------
  Total lattice energy       =         -745441.6520 kJ/(mole unit cells)
--------------------------------------------------------------------------------


  Number of variables =      939

  Maximum number of calculations  =          1000
  Maximum Hessian update interval =            10
  Maximum step size               =   1.000000000
  Maximum parameter tolerance     =   0.000010000
  Maximum function  tolerance     =   0.000010000
  Maximum gradient  tolerance     =   0.001000000
  Maximum gradient  component     =   0.010000000

  Symmetry not applied to optimisation

  Cell parameters to be optimised using strains

  Newton-Raphson optimiser to be used

  BFGS hessian update to be used

  Dumpfile to be written after every cycle

  Start of bulk optimisation :

  Cycle:      0 Energy:     -7726.007822  Gnorm:      0.010790  CPU:    1.051
  ** Hessian calculated **
  Cycle:      1 Energy:     -7726.135438  Gnorm:      0.007703  CPU:    3.301
  Cycle:      2 Energy:     -7726.144699  Gnorm:      0.003348  CPU:    4.762
  Cycle:      3 Energy:     -7726.145462  Gnorm:      0.000876  CPU:    6.153
  Cycle:      4 Energy:     -7726.145558  Gnorm:      0.000131  CPU:    7.544
  Cycle:      5 Energy:     -7726.145559  Gnorm:      0.000042  CPU:    8.935


  **** Optimisation achieved ****


  Final energy =   -7726.14555873 eV
  Final Gnorm  =       0.00001007

  Components of energy : 

--------------------------------------------------------------------------------
  Interatomic potentials     =        2061.13335570 eV
  Three-body potentials      =           0.44045473 eV
  Monopole - monopole (real) =       -6612.63242913 eV
  Monopole - monopole (recip)=       -3168.63245001 eV
  Monopole - monopole (total)=       -9781.26487913 eV
  Neutralising energy        =          -6.45449002 eV
--------------------------------------------------------------------------------
  Total lattice energy       =       -7726.14555873 eV
--------------------------------------------------------------------------------
  Total lattice energy       =         -745454.9415 kJ/(mole unit cells)
--------------------------------------------------------------------------------

  Final fractional coordinates of atoms :

--------------------------------------------------------------------------------
   No.  Atomic        x           y          z          Radius
        Label       (Frac)      (Frac)     (Frac)       (Angs) 
--------------------------------------------------------------------------------
     1  Ge    c     0.699600    0.375700    0.033890    0.000000
     2  Si    c     0.594716    0.307140    0.364592    0.000000
     3  Si    c     0.660518    0.283392    0.698579    0.000000
     4  Si    c     0.273328    0.608208    0.528800    0.000000
     5  Si    c     0.353597    0.659804    0.862263    0.000000
     6  Si    c     0.298539    0.691425    0.196560    0.000000
     7  Si    c     0.351951    0.683969    0.297126    0.000000
     8  Si    c     0.306114    0.612266    0.963223    0.000000
     9  Si    c     0.281118    0.660865    0.630196    0.000000
    10  Si    c     0.599269    0.283137    0.798146    0.000000
    11  Si    c     0.650440    0.366578    0.465168    0.000000
    12  Si    c     0.667965    0.305226    0.132002    0.000000
    13  Si    c     0.519565    0.410179    0.967175    0.000000
    14  Si    c     0.558710    0.094547    0.301479    0.000000
    15  Si    c     0.867033    0.451851    0.632133    0.000000
    16  Si    c     0.442238    0.568381    0.463332    0.000000
    17  Si    c     0.393184    0.869205    0.797275    0.000000
    18  Si    c     0.088983    0.519491    0.129506    0.000000
    19  Si    c     0.389321    0.510561    0.361504    0.000000
    20  Si    c     0.091967    0.573940    0.026319    0.000000
    21  Si    c     0.451857    0.871294    0.696026    0.000000
    22  Si    c     0.560781    0.453075    0.864187    0.000000
    23  Si    c     0.863101    0.404920    0.530084    0.000000
    24  Si    c     0.506177    0.098475    0.199820    0.000000
    25  Si    c     0.279698    0.383066    0.850303    0.000000
    26  Si    c     0.577601    0.892070    0.183300    0.000000
    27  Si    c     0.071895    0.685943    0.516580    0.000000
    28  Si    c     0.670230    0.582868    0.348212    0.000000
    29  Si    c     0.383622    0.080728    0.680130    0.000000
    30  Si    c     0.880047    0.286027    0.010092    0.000000
    31  Si    c     0.371857    0.289362    0.478550    0.000000
    32  Si    c     0.874829    0.590265    0.142662    0.000000
    33  Si    c     0.672753    0.080903    0.815127    0.000000
    34  Si    c     0.585544    0.691590    0.977186    0.000000
    35  Si    c     0.078583    0.382979    0.643637    0.000000
    36  Si    c     0.276949    0.884853    0.313340    0.000000
    37  Si    c     0.238882    0.333942    0.951214    0.000000
    38  Si    c     0.634370    0.893811    0.284232    0.000000
    39  Si    c     0.069364    0.729810    0.618013    0.000000
    40  Si    c     0.721372    0.645395    0.448891    0.000000
    41  Si    c     0.319484    0.071474    0.779997    0.000000
    42  Si    c     0.884447    0.238048    0.113561    0.000000
    43  Si    c     0.313050    0.233671    0.377751    0.000000
    44  Si    c     0.891149    0.657644    0.040263    0.000000
    45  Si    c     0.729190    0.074235    0.715154    0.000000
    46  Si    c     0.634139    0.730507    0.875944    0.000000
    47  Si    c     0.064958    0.327554    0.542475    0.000000
    48  Si    c     0.225980    0.897536    0.212730    0.000000
    49  Si    c     0.963533    0.113340    0.964810    0.000000
    50  Si    c     0.850649    0.829027    0.297524    0.000000
    51  Ge    c     0.129873    0.012266    0.630243    0.000000
    52  Si    c     0.002250    0.863094    0.463690    0.000000
    53  Si    c     0.105187    0.136201    0.796741    0.000000
    54  Si    c     0.824953    0.960756    0.131937    0.000000
    55  Si    c     0.096390    0.951721    0.362741    0.000000
    56  Si    c     0.833412    0.875151    0.030467    0.000000
    57  Si    c     0.008911    0.137855    0.696120    0.000000
    58  Ge    c     0.858223    0.011664    0.863022    0.000000
    59  Si    c     0.122938    0.108928    0.527493    0.000000
    60  Si    c     0.945696    0.837079    0.196245    0.000000
    61  O2    c     0.916960    0.002993    0.002261    0.000000
    62  O2    c     0.975705    0.909433    0.329068    0.000000
    63  O3    c     0.038663    0.051390    0.663637    0.000000
    64  O2    c     0.044956    0.989894    0.493157    0.000000
    65  O3    c     0.981864    0.049949    0.826217    0.000000
    66  O2    c     0.907286    0.922843    0.165326    0.000000
    67  O2    c     0.312994    0.559119    0.328471    0.000000
    68  O2    c     0.405498    0.746602    0.663003    0.000000
    69  O2    c     0.219830    0.649640    0.995652    0.000000
    70  O2    c     0.635872    0.403789    0.831546    0.000000
    71  O2    c     0.558613    0.227187    0.169769    0.000000
    72  O2    c     0.735434    0.329124    0.498007    0.000000
    73  O3    c     0.562852    0.334764    0.999215    0.000000
    74  O2    c     0.745007    0.404583    0.665574    0.000000
    75  O2    c     0.634446    0.220156    0.333967    0.000000
    76  O2    c     0.394119    0.646052    0.495130    0.000000
    77  O2    c     0.213305    0.569704    0.162722    0.000000
    78  O2    c     0.314421    0.743162    0.828981    0.000000
    79  O2    c     0.116656    0.206958    0.972594    0.000000
    80  O2    c     0.760568    0.892403    0.303949    0.000000
    81  O3    c     0.067112    0.850363    0.639614    0.000000
    82  O2    c     0.847820    0.772424    0.469008    0.000000
    83  O2    c     0.195524    0.072586    0.800491    0.000000
    84  O2    c     0.887079    0.115092    0.134854    0.000000
    85  O2    c     0.186716    0.105735    0.357889    0.000000
    86  O2    c     0.906248    0.794023    0.024899    0.000000
    87  O2    c     0.854443    0.075641    0.694828    0.000000
    88  O3    c     0.758259    0.849611    0.854039    0.000000
    89  O2    c     0.061913    0.201431    0.521346    0.000000
    90  O2    c     0.100381    0.900039    0.192824    0.000000
    91  O2    c     0.899634    0.840521    0.246585    0.000000
    92  O3    c     0.103762    0.049229    0.576451    0.000000
    93  O3    c     0.927928    0.047595    0.916208    0.000000
    94  O2    c     0.060899    0.133926    0.745506    0.000000
    95  O2    c     0.833967    0.914892    0.082278    0.000000
    96  O2    c     0.040939    0.908228    0.412487    0.000000
    97  O2    c     0.893678    0.196901    0.972034    0.000000
    98  O2    c     0.768285    0.678102    0.309712    0.000000
    99  O3    c     0.293459    0.087639    0.640578    0.000000
   100  O2    c     0.072380    0.784216    0.478699    0.000000
   101  O2    c     0.181265    0.284940    0.812191    0.000000
   102  O2    c     0.674202    0.892196    0.145004    0.000000
   103  O2    c     0.179305    0.883192    0.351502    0.000000
   104  O2    c     0.684153    0.793008    0.014973    0.000000
   105  O2    c     0.081543    0.287145    0.681423    0.000000
   106  O3    c     0.769080    0.086264    0.854681    0.000000
   107  O2    c     0.276012    0.192747    0.517046    0.000000
   108  O2    c     0.877230    0.688023    0.181081    0.000000
   109  O2    c     0.296612    0.629921    0.246061    0.000000
   110  O2    c     0.334847    0.663320    0.579168    0.000000
   111  O2    c     0.298956    0.664030    0.912595    0.000000
   112  O2    c     0.659399    0.341719    0.748456    0.000000
   113  O3    c     0.604520    0.297826    0.084016    0.000000
   114  O2    c     0.651567    0.309132    0.415156    0.000000
   115  O2    c     0.361841    0.326147    0.968676    0.000000
   116  O2    c     0.645693    0.025494    0.303639    0.000000
   117  O2    c     0.936850    0.606907    0.635373    0.000000
   118  O2    c     0.598979    0.655962    0.466280    0.000000
   119  O2    c     0.307118    0.938980    0.798722    0.000000
   120  O2    c     0.016137    0.364041    0.131154    0.000000
   121  O2    c     0.302072    0.354377    0.358453    0.000000
   122  O2    c     0.024107    0.661346    0.025201    0.000000
   123  O2    c     0.608499    0.942052    0.695077    0.000000
   124  O2    c     0.644188    0.607837    0.859163    0.000000
   125  O2    c     0.931601    0.318284    0.525167    0.000000
   126  O2    c     0.349615    0.029470    0.195149    0.000000
   127  O3    c     0.747224    0.279887    0.001387    0.000000
   128  O2    c     0.669349    0.448658    0.341274    0.000000
   129  O2    c     0.518610    0.214458    0.674767    0.000000
   130  O2    c     0.204473    0.683992    0.507737    0.000000
   131  O2    c     0.278657    0.515411    0.840674    0.000000
   132  O2    c     0.441492    0.760160    0.174222    0.000000
   133  O2    c     0.275980    0.750529    0.319485    0.000000
   134  O2    c     0.451075    0.691596    0.984952    0.000000
   135  O2    c     0.213571    0.516836    0.651242    0.000000
   136  O2    c     0.671962    0.214036    0.821147    0.000000
   137  O2    c     0.506833    0.291708    0.486931    0.000000
   138  O2    c     0.743780    0.454950    0.150504    0.000000
   139  O3    c     0.767139    0.543238    0.017859    0.000000
   140  O2    c     0.438278    0.231947    0.358750    0.000000
   141  O2    c     0.735061    0.202607    0.696004    0.000000
   142  O2    c     0.190741    0.452785    0.522934    0.000000
   143  O2    c     0.509254    0.733693    0.856435    0.000000
   144  O2    c     0.221904    0.770676    0.192288    0.000000
   145  O2    c     0.508171    0.767270    0.302786    0.000000
   146  O2    c     0.233847    0.457584    0.970266    0.000000
   147  O2    c     0.197650    0.731847    0.636426    0.000000
   148  O2    c     0.443178    0.199645    0.799858    0.000000
   149  O2    c     0.723130    0.522154    0.469447    0.000000
   150  O2    c     0.761107    0.241644    0.132686    0.000000
   151  O2    c     0.209876    0.312435    0.897038    0.000000
   152  O2    c     0.651139    0.893793    0.229864    0.000000
   153  O2    c     0.072059    0.755611    0.563680    0.000000
   154  O2    c     0.740713    0.659773    0.394523    0.000000
   155  O2    c     0.301742    0.071451    0.725281    0.000000
   156  O2    c     0.884113    0.223882    0.059195    0.000000
   157  O2    c     0.296527    0.217262    0.432098    0.000000
   158  O2    c     0.878673    0.659077    0.095537    0.000000
   159  O2    c     0.746271    0.073511    0.769820    0.000000
   160  O2    c     0.657113    0.759423    0.930234    0.000000
   161  O2    c     0.071918    0.309444    0.596657    0.000000
   162  O2    c     0.207609    0.893429    0.267044    0.000000
   163  O2    c     0.572348    0.554683    0.987390    0.000000
   164  O2    c     0.417462    0.007791    0.323763    0.000000
   165  O2    c     0.952885    0.394805    0.653425    0.000000
   166  O2    c     0.386125    0.428509    0.486716    0.000000
   167  O2    c     0.532764    0.954686    0.822166    0.000000
   168  O2    c     0.997860    0.571064    0.148988    0.000000
   169  O2    c     0.530424    0.567896    0.338556    0.000000
   170  O2    c     0.000777    0.432587    0.004893    0.000000
   171  O2    c     0.396443    0.955004    0.671569    0.000000
   172  O2    c     0.417072    0.392621    0.842219    0.000000
   173  O2    c     0.944524    0.547177    0.507937    0.000000
   174  O2    c     0.565512    0.018385    0.175637    0.000000
   175  O2    c     0.557775    0.148386    0.251054    0.000000
   176  O2    c     0.810747    0.400057    0.581205    0.000000
   177  O2    c     0.567530    0.408684    0.915394    0.000000
   178  O2    c     0.395875    0.817422    0.746366    0.000000
   179  O2    c     0.135639    0.567839    0.078336    0.000000
   180  O2    c     0.388718    0.565079    0.412036    0.000000
   181  F     c     0.425468    0.887432    0.247461    0.000000
   182  F     c     0.074203    0.533063    0.579612    0.000000
   183  F     c     0.429668    0.539927    0.913099    0.000000
   184  F     c     0.527351    0.078846    0.746947    0.000000
   185  F     c     0.844643    0.429914    0.070227    0.000000
   186  F     c     0.520471    0.435912    0.412779    0.000000
   187  O2    s     0.912476    0.000547    0.001331    0.000000
   188  O2    s     0.975110    0.905104    0.329279    0.000000
   189  O3    s     0.043433    0.057266    0.664214    0.000000
   190  O2    s     0.048678    0.988592    0.493579    0.000000
   191  O3    s     0.984485    0.055996    0.826228    0.000000
   192  O2    s     0.902505    0.917569    0.165076    0.000000
   193  O2    s     0.324755    0.567048    0.328585    0.000000
   194  O2    s     0.397480    0.750400    0.662968    0.000000
   195  O2    s     0.214980    0.637971    0.995645    0.000000
   196  O2    s     0.624347    0.396216    0.831386    0.000000
   197  O2    s     0.564429    0.221722    0.169008    0.000000
   198  O2    s     0.739745    0.340863    0.497883    0.000000
   199  O3    s     0.567889    0.345968    0.998185    0.000000
   200  O2    s     0.749011    0.397000    0.665505    0.000000
   201  O2    s     0.622544    0.215962    0.333716    0.000000
   202  O2    s     0.386816    0.634229    0.495283    0.000000
   203  O2    s     0.208721    0.576660    0.162624    0.000000
   204  O2    s     0.326389    0.747627    0.829104    0.000000
   205  O2    s     0.112757    0.209937    0.969590    0.000000
   206  O2    s     0.756984    0.885860    0.301251    0.000000
   207  O3    s     0.072490    0.851501    0.636689    0.000000
   208  O2    s     0.851070    0.768861    0.466387    0.000000
   209  O2    s     0.199061    0.079250    0.797933    0.000000
   210  O2    s     0.880281    0.111608    0.132366    0.000000
   211  O2    s     0.190172    0.102609    0.360424    0.000000
   212  O2    s     0.896981    0.788599    0.027057    0.000000
   213  O2    s     0.857751    0.082229    0.697125    0.000000
   214  O3    s     0.754149    0.851182    0.856963    0.000000
   215  O2    s     0.068599    0.204803    0.524144    0.000000
   216  O2    s     0.096895    0.893085    0.195219    0.000000
   217  O2    s     0.899353    0.838848    0.246615    0.000000
   218  O3    s     0.108123    0.052547    0.575750    0.000000
   219  O3    s     0.925811    0.051565    0.916894    0.000000
   220  O2    s     0.059941    0.134644    0.745657    0.000000
   221  O2    s     0.832868    0.915792    0.082240    0.000000
   222  O2    s     0.042929    0.908120    0.412573    0.000000
   223  O2    s     0.899631    0.197439    0.975241    0.000000
   224  O2    s     0.767081    0.684456    0.312322    0.000000
   225  O3    s     0.288584    0.080798    0.643479    0.000000
   226  O2    s     0.064842    0.782558    0.480984    0.000000
   227  O2    s     0.183366    0.279216    0.814536    0.000000
   228  O2    s     0.680269    0.899479    0.147572    0.000000
   229  O2    s     0.180614    0.890615    0.348748    0.000000
   230  O2    s     0.690236    0.791558    0.012795    0.000000
   231  O2    s     0.073568    0.281424    0.678991    0.000000
   232  O3    s     0.767141    0.079714    0.851597    0.000000
   233  O2    s     0.269929    0.193940    0.514203    0.000000
   234  O2    s     0.884299    0.693791    0.178705    0.000000
   235  O2    s     0.302412    0.641690    0.246163    0.000000
   236  O2    s     0.323217    0.657501    0.579223    0.000000
   237  O2    s     0.305150    0.658367    0.912662    0.000000
   238  O2    s     0.653441    0.329860    0.748394    0.000000
   239  O3    s     0.617272    0.303529    0.085933    0.000000
   240  O2    s     0.645560    0.314842    0.415053    0.000000
   241  O2    s     0.363928    0.335457    0.966561    0.000000
   242  O2    s     0.635632    0.018893    0.301398    0.000000
   243  O2    s     0.943446    0.603458    0.633178    0.000000
   244  O2    s     0.595709    0.645868    0.464144    0.000000
   245  O2    s     0.317294    0.945577    0.796605    0.000000
   246  O2    s     0.010113    0.367232    0.129158    0.000000
   247  O2    s     0.312113    0.357850    0.360766    0.000000
   248  O2    s     0.017934    0.651903    0.026828    0.000000
   249  O2    s     0.604787    0.948449    0.697277    0.000000
   250  O2    s     0.634295    0.604449    0.861480    0.000000
   251  O2    s     0.938533    0.328192    0.527497    0.000000
   252  O2    s     0.352668    0.022689    0.197474    0.000000
   253  O3    s     0.758361    0.286848    0.004520    0.000000
   254  O2    s     0.661808    0.448198    0.344408    0.000000
   255  O2    s     0.519132    0.207458    0.677870    0.000000
   256  O2    s     0.197753    0.676409    0.510854    0.000000
   257  O2    s     0.286461    0.516525    0.843929    0.000000
   258  O2    s     0.440960    0.766844    0.177502    0.000000
   259  O2    s     0.283863    0.757784    0.316513    0.000000
   260  O2    s     0.449902    0.683466    0.981897    0.000000
   261  O2    s     0.206430    0.517683    0.648238    0.000000
   262  O2    s     0.664446    0.207109    0.818066    0.000000
   263  O2    s     0.507414    0.299184    0.483771    0.000000
   264  O2    s     0.750500    0.455015    0.147857    0.000000
   265  O3    s     0.776584    0.545137    0.021279    0.000000
   266  O2    s     0.441053    0.240013    0.361357    0.000000
   267  O2    s     0.726413    0.197202    0.698341    0.000000
   268  O2    s     0.185649    0.455446    0.525629    0.000000
   269  O2    s     0.506288    0.725516    0.859112    0.000000
   270  O2    s     0.230313    0.776047    0.194880    0.000000
   271  O2    s     0.505539    0.772390    0.300212    0.000000
   272  O2    s     0.241940    0.460594    0.967552    0.000000
   273  O2    s     0.192522    0.724048    0.633805    0.000000
   274  O2    s     0.446404    0.194524    0.797517    0.000000
   275  O2    s     0.715213    0.519230    0.466789    0.000000
   276  O2    s     0.765509    0.247636    0.130517    0.000000
   277  O2    s     0.220066    0.322014    0.897770    0.000000
   278  O2    s     0.641583    0.893613    0.230725    0.000000
   279  O2    s     0.071824    0.745796    0.564287    0.000000
   280  O2    s     0.731252    0.650168    0.395399    0.000000
   281  O2    s     0.311725    0.072306    0.726347    0.000000
   282  O2    s     0.883748    0.231482    0.060244    0.000000
   283  O2    s     0.306160    0.226557    0.431163    0.000000
   284  O2    s     0.879440    0.651351    0.095210    0.000000
   285  O2    s     0.737171    0.074249    0.768707    0.000000
   286  O2    s     0.647403    0.749567    0.929559    0.000000
   287  O2    s     0.071911    0.318988    0.595837    0.000000
   288  O2    s     0.216826    0.892980    0.266084    0.000000
   289  O2    s     0.568223    0.555243    0.984200    0.000000
   290  O2    s     0.417150    0.003462    0.320292    0.000000
   291  O2    s     0.957612    0.399712    0.650095    0.000000
   292  O2    s     0.390642    0.428178    0.483385    0.000000
   293  O2    s     0.533257    0.959490    0.818821    0.000000
   294  O2    s     0.994317    0.567494    0.146219    0.000000
   295  O2    s     0.530745    0.563364    0.341983    0.000000
   296  O2    s     0.998181    0.432968    0.007737    0.000000
   297  O2    s     0.400961    0.959887    0.675010    0.000000
   298  O2    s     0.417257    0.398071    0.845409    0.000000
   299  O2    s     0.949877    0.547269    0.511168    0.000000
   300  O2    s     0.560504    0.012990    0.178964    0.000000
   301  O2    s     0.552395    0.137430    0.250933    0.000000
   302  O2    s     0.821985    0.405897    0.581163    0.000000
   303  O2    s     0.562066    0.413602    0.915059    0.000000
   304  O2    s     0.401371    0.828286    0.746387    0.000000
   305  O2    s     0.126239    0.563338    0.078454    0.000000
   306  O2    s     0.394298    0.559781    0.412102    0.000000
   307  F     s     0.425111    0.886917    0.247340    0.000000
   308  F     s     0.074518    0.533215    0.579552    0.000000
   309  F     s     0.429103    0.540512    0.913001    0.000000
   310  F     s     0.527503    0.079134    0.746876    0.000000
   311  F     s     0.833598    0.425896    0.067561    0.000000
   312  F     s     0.520648    0.435676    0.412704    0.000000
--------------------------------------------------------------------------------

  Final Cartesian lattice vectors (Angstroms) :

       11.976715    0.002216   -0.007133
       -6.060835   10.395349    0.012226
       -0.252955   -0.211164   29.443950


  Final cell parameters and derivatives :

--------------------------------------------------------------------------------
       a           11.976717 Angstrom     dE/de1(xx)    -0.000015 eV/strain
       b           12.033169 Angstrom     dE/de2(yy)     0.000403 eV/strain
       c           29.445793 Angstrom     dE/de3(zz)    -0.000174 eV/strain
       alpha       90.048838 Degrees      dE/de4(yz)     0.000078 eV/strain
       beta        90.526407 Degrees      dE/de5(xz)     0.000045 eV/strain
       gamma      120.233028 Degrees      dE/de6(xy)    -0.000169 eV/strain
--------------------------------------------------------------------------------

  Primitive cell volume =          3666.232761 Angs**3

  Density of cell =      1.745141 g/cm**3

  Non-primitive cell volume =          3666.232761 Angs**3


  Final internal derivatives :

--------------------------------------------------------------------------------
   No.  Atomic          a             b             c           Radius
        Label          (eV)          (eV)          (eV)        (eV/Angs)
--------------------------------------------------------------------------------
      1 Ge    c       0.000000      0.000000      0.000000      0.000000
      2 Si    c      -0.000012      0.000020     -0.000014      0.000000
      3 Si    c      -0.000031     -0.000018      0.000319      0.000000
      4 Si    c      -0.000041     -0.000065     -0.000388      0.000000
      5 Si    c       0.000117     -0.000109     -0.000045      0.000000
      6 Si    c      -0.000005      0.000054     -0.000500      0.000000
      7 Si    c       0.000003      0.000126      0.000029      0.000000
      8 Si    c      -0.000015     -0.000011     -0.000030      0.000000
      9 Si    c      -0.000068     -0.000024      0.000288      0.000000
     10 Si    c      -0.000032      0.000003     -0.000149      0.000000
     11 Si    c      -0.000017      0.000019     -0.000040      0.000000
     12 Si    c      -0.000655      0.000113     -0.001445      0.000000
     13 Si    c      -0.000190     -0.000146     -0.000682      0.000000
     14 Si    c       0.000016     -0.000009      0.000052      0.000000
     15 Si    c      -0.000016      0.000050      0.000291      0.000000
     16 Si    c       0.000023     -0.000045      0.000082      0.000000
     17 Si    c       0.000028     -0.000001     -0.000005      0.000000
     18 Si    c       0.000104      0.000005     -0.000023      0.000000
     19 Si    c       0.000028     -0.000040     -0.000063      0.000000
     20 Si    c      -0.000045      0.000011      0.000188      0.000000
     21 Si    c       0.000007      0.000001      0.000025      0.000000
     22 Si    c      -0.000270      0.000099     -0.000037      0.000000
     23 Si    c       0.000083     -0.000002     -0.000378      0.000000
     24 Si    c      -0.000080     -0.000184     -0.000069      0.000000
     25 Si    c       0.000089     -0.000051      0.000068      0.000000
     26 Si    c      -0.000107      0.000060     -0.000133      0.000000
     27 Si    c      -0.000024     -0.000051     -0.000219      0.000000
     28 Si    c       0.000018     -0.000034     -0.000121      0.000000
     29 Si    c      -0.000052      0.000043      0.000096      0.000000
     30 Si    c       0.000211     -0.000204     -0.000536      0.000000
     31 Si    c      -0.000029      0.000027      0.000041      0.000000
     32 Si    c      -0.000032     -0.000064     -0.000205      0.000000
     33 Si    c      -0.000003     -0.000019     -0.000074      0.000000
     34 Si    c      -0.000150      0.000230     -0.000118      0.000000
     35 Si    c      -0.000000      0.000060      0.000125      0.000000
     36 Si    c       0.000005      0.000014      0.000177      0.000000
     37 Si    c       0.000048      0.000025     -0.000371      0.000000
     38 Si    c      -0.000003      0.000006      0.000038      0.000000
     39 Si    c      -0.000029      0.000002      0.000214      0.000000
     40 Si    c       0.000055     -0.000030      0.000136      0.000000
     41 Si    c       0.000037      0.000023     -0.000044      0.000000
     42 Si    c       0.000065     -0.000001      0.000011      0.000000
     43 Si    c      -0.000028      0.000005     -0.000102      0.000000
     44 Si    c       0.000048      0.000222      0.000155      0.000000
     45 Si    c       0.000069     -0.000074      0.000145      0.000000
     46 Si    c      -0.000101      0.000048     -0.000334      0.000000
     47 Si    c      -0.000004      0.000027     -0.000329      0.000000
     48 Si    c       0.000060      0.000011     -0.000199      0.000000
     49 Si    c       0.000403      0.000260      0.000635      0.000000
     50 Si    c       0.000000      0.000073      0.000190      0.000000
     51 Ge    c      -0.000112      0.000068      0.000673      0.000000
     52 Si    c       0.000056      0.000035      0.000078      0.000000
     53 Si    c      -0.001146      0.000127     -0.000138      0.000000
     54 Si    c       0.000091     -0.000100     -0.000182      0.000000
     55 Si    c       0.000043      0.000018     -0.000193      0.000000
     56 Si    c       0.000237     -0.000083      0.000209      0.000000
     57 Si    c       0.000377     -0.000457      0.001355      0.000000
     58 Ge    c       0.001136      0.000047      0.000341      0.000000
     59 Si    c       0.000003     -0.000040      0.000213      0.000000
     60 Si    c       0.000051     -0.000013     -0.000272      0.000000
     61 O2    c      -0.000150      0.000169      0.000059      0.000000
     62 O2    c      -0.000037     -0.000002     -0.000052      0.000000
     63 O3    c       0.000055      0.000220      0.000301      0.000000
     64 O2    c       0.000008     -0.000084     -0.000063      0.000000
     65 O3    c       0.000236      0.000704     -0.000122      0.000000
     66 O2    c      -0.000019      0.000014     -0.000102      0.000000
     67 O2    c       0.000045     -0.000144      0.000221      0.000000
     68 O2    c       0.000084      0.000043      0.000205      0.000000
     69 O2    c       0.000079      0.000033     -0.000043      0.000000
     70 O2    c       0.000160     -0.000111     -0.000184      0.000000
     71 O2    c      -0.000023      0.000169     -0.000338      0.000000
     72 O2    c       0.000013     -0.000050     -0.000009      0.000000
     73 O3    c      -0.000084     -0.000269      0.000206      0.000000
     74 O2    c       0.000040      0.000097     -0.000284      0.000000
     75 O2    c       0.000051     -0.000048     -0.000051      0.000000
     76 O2    c      -0.000005      0.000032     -0.000015      0.000000
     77 O2    c      -0.000008      0.000017     -0.000040      0.000000
     78 O2    c      -0.000012      0.000002      0.000003      0.000000
     79 O2    c      -0.000463     -0.000226      0.000166      0.000000
     80 O2    c      -0.000005      0.000022     -0.000114      0.000000
     81 O3    c      -0.000014      0.000071      0.000065      0.000000
     82 O2    c      -0.000069     -0.000013     -0.000044      0.000000
     83 O2    c       0.000253     -0.000142      0.000081      0.000000
     84 O2    c       0.000024     -0.000001      0.000064      0.000000
     85 O2    c       0.000012      0.000012     -0.000073      0.000000
     86 O2    c      -0.000115      0.000263      0.000079      0.000000
     87 O2    c       0.000238      0.000002      0.000198      0.000000
     88 O3    c      -0.000109     -0.000215      0.000032      0.000000
     89 O2    c       0.000026     -0.000044     -0.000035      0.000000
     90 O2    c      -0.000008      0.000019     -0.000062      0.000000
     91 O2    c      -0.000009      0.000037      0.000051      0.000000
     92 O3    c      -0.000124      0.000254     -0.001602      0.000000
     93 O3    c      -0.000927     -0.000375     -0.006998      0.000000
     94 O2    c      -0.000146      0.000120      0.000190      0.000000
     95 O2    c      -0.000093      0.000171      0.000681      0.000000
     96 O2    c      -0.000030     -0.000018      0.000264      0.000000
     97 O2    c      -0.000116      0.000114      0.000079      0.000000
     98 O2    c      -0.000002     -0.000091      0.000053      0.000000
     99 O3    c       0.000016      0.000014      0.000037      0.000000
    100 O2    c      -0.000015      0.000033     -0.000012      0.000000
    101 O2    c       0.000121     -0.000203      0.000314      0.000000
    102 O2    c       0.000042     -0.000027     -0.000128      0.000000
    103 O2    c      -0.000004      0.000007     -0.000033      0.000000
    104 O2    c      -0.000085      0.000040     -0.000066      0.000000
    105 O2    c       0.000026      0.000001     -0.000072      0.000000
    106 O3    c       0.000084     -0.000111     -0.000040      0.000000
    107 O2    c       0.000008     -0.000011     -0.000065      0.000000
    108 O2    c       0.000008      0.000043     -0.000014      0.000000
    109 O2    c       0.000020     -0.000088      0.000239      0.000000
    110 O2    c       0.000104      0.000008      0.000039      0.000000
    111 O2    c      -0.000029      0.000026     -0.000067      0.000000
    112 O2    c      -0.000000      0.000010     -0.000035      0.000000
    113 O3    c      -0.000048     -0.000096     -0.000749      0.000000
    114 O2    c       0.000038     -0.000031      0.000055      0.000000
    115 O2    c       0.000216     -0.000130      0.000053      0.000000
    116 O2    c       0.000026     -0.000025     -0.000094      0.000000
    117 O2    c      -0.000001     -0.000009      0.000052      0.000000
    118 O2    c      -0.000038      0.000019      0.000101      0.000000
    119 O2    c       0.000030     -0.000028      0.000018      0.000000
    120 O2    c      -0.000001     -0.000028     -0.000087      0.000000
    121 O2    c       0.000006      0.000010      0.000009      0.000000
    122 O2    c       0.000190     -0.000034     -0.000027      0.000000
    123 O2    c      -0.000005     -0.000013     -0.000002      0.000000
    124 O2    c      -0.000002      0.000031     -0.000086      0.000000
    125 O2    c      -0.000034      0.000019     -0.000088      0.000000
    126 O2    c      -0.000011     -0.000015      0.000034      0.000000
    127 O3    c      -0.000374     -0.000005     -0.000221      0.000000
    128 O2    c       0.000012      0.000001     -0.000059      0.000000
    129 O2    c      -0.000026      0.000032     -0.000050      0.000000
    130 O2    c       0.000083     -0.000043     -0.000034      0.000000
    131 O2    c       0.000018      0.000001      0.000012      0.000000
    132 O2    c      -0.000041      0.000001     -0.000022      0.000000
    133 O2    c       0.000033     -0.000050      0.000024      0.000000
    134 O2    c       0.000068      0.000017      0.000045      0.000000
    135 O2    c       0.000012      0.000023     -0.000006      0.000000
    136 O2    c       0.000019     -0.000000      0.000057      0.000000
    137 O2    c       0.000040     -0.000028     -0.000007      0.000000
    138 O2    c      -0.000023      0.000047     -0.000075      0.000000
    139 O3    c       0.000112      0.000135     -0.000038      0.000000
    140 O2    c       0.000028     -0.000026     -0.000085      0.000000
    141 O2    c      -0.000024      0.000050     -0.000005      0.000000
    142 O2    c       0.000002      0.000032     -0.000065      0.000000
    143 O2    c      -0.000025     -0.000003     -0.000007      0.000000
    144 O2    c       0.000033     -0.000023     -0.000044      0.000000
    145 O2    c       0.000020     -0.000005     -0.000102      0.000000
    146 O2    c      -0.000045      0.000074      0.000146      0.000000
    147 O2    c       0.000040     -0.000009      0.000124      0.000000
    148 O2    c      -0.000018      0.000074      0.000206      0.000000
    149 O2    c       0.000009      0.000002      0.000031      0.000000
    150 O2    c       0.000212     -0.000192      0.000080      0.000000
    151 O2    c      -0.000023     -0.000040     -0.000143      0.000000
    152 O2    c       0.000083     -0.000029      0.000123      0.000000
    153 O2    c      -0.000032      0.000084      0.000038      0.000000
    154 O2    c       0.000030      0.000030     -0.000023      0.000000
    155 O2    c      -0.000023      0.000034     -0.000126      0.000000
    156 O2    c       0.000064     -0.000186      0.001121      0.000000
    157 O2    c      -0.000005     -0.000013     -0.000018      0.000000
    158 O2    c       0.000005      0.000043      0.000286      0.000000
    159 O2    c       0.000062     -0.000040     -0.000071      0.000000
    160 O2    c       0.000039      0.000126      0.000312      0.000000
    161 O2    c       0.000047     -0.000088      0.000047      0.000000
    162 O2    c      -0.000061      0.000035     -0.000099      0.000000
    163 O2    c      -0.000025      0.000163      0.000141      0.000000
    164 O2    c      -0.000004      0.000023      0.000091      0.000000
    165 O2    c      -0.000032      0.000011      0.000047      0.000000
    166 O2    c       0.000001      0.000001     -0.000027      0.000000
    167 O2    c      -0.000031     -0.000015      0.000017      0.000000
    168 O2    c       0.000016      0.000014      0.000037      0.000000
    169 O2    c      -0.000048      0.000020     -0.000015      0.000000
    170 O2    c       0.000089     -0.000106      0.000131      0.000000
    171 O2    c       0.000008     -0.000016      0.000009      0.000000
    172 O2    c       0.000008      0.000020     -0.000038      0.000000
    173 O2    c       0.000008     -0.000022      0.000011      0.000000
    174 O2    c      -0.000054      0.000050     -0.000025      0.000000
    175 O2    c       0.000024      0.000066      0.000228      0.000000
    176 O2    c      -0.000094      0.000004      0.000050      0.000000
    177 O2    c       0.000026     -0.000131      0.000789      0.000000
    178 O2    c       0.000007     -0.000017     -0.000007      0.000000
    179 O2    c       0.000027      0.000013     -0.000005      0.000000
    180 O2    c      -0.000026      0.000028     -0.000001      0.000000
    181 F     c       0.000000      0.000010     -0.000087      0.000000
    182 F     c      -0.000011     -0.000002     -0.000056      0.000000
    183 F     c       0.000027     -0.000072     -0.000088      0.000000
    184 F     c      -0.000002      0.000015      0.000017      0.000000
    185 F     c      -0.000126      0.000088      0.000042      0.000000
    186 F     c       0.000015     -0.000010      0.000006      0.000000
    187 O2    s       0.000194     -0.000309     -0.000443      0.000000
    188 O2    s      -0.000003      0.000038     -0.000015      0.000000
    189 O3    s      -0.000209      0.000073      0.000588      0.000000
    190 O2    s      -0.000025      0.000036      0.000110      0.000000
    191 O3    s      -0.000024     -0.000015     -0.000276      0.000000
    192 O2    s      -0.000018     -0.000015     -0.000027      0.000000
    193 O2    s      -0.000024      0.000036      0.000028      0.000000
    194 O2    s       0.000012     -0.000035     -0.000012      0.000000
    195 O2    s      -0.000020     -0.000093      0.000021      0.000000
    196 O2    s      -0.000042      0.000032     -0.000165      0.000000
    197 O2    s       0.000128     -0.000015      0.000196      0.000000
    198 O2    s      -0.000021      0.000005      0.000043      0.000000
    199 O3    s      -0.000020      0.000185     -0.000646      0.000000
    200 O2    s      -0.000008     -0.000005      0.000030      0.000000
    201 O2    s      -0.000014      0.000015     -0.000044      0.000000
    202 O2    s       0.000042     -0.000014      0.000058      0.000000
    203 O2    s      -0.000019      0.000006      0.000120      0.000000
    204 O2    s      -0.000031      0.000030     -0.000044      0.000000
    205 O2    s       0.000210      0.000103     -0.000630      0.000000
    206 O2    s      -0.000023      0.000043      0.000252      0.000000
    207 O3    s      -0.000065      0.000014      0.000065      0.000000
    208 O2    s       0.000030      0.000035      0.000117      0.000000
    209 O2    s      -0.000456      0.000128     -0.000190      0.000000
    210 O2    s      -0.000027      0.000045     -0.000055      0.000000
    211 O2    s      -0.000015      0.000021      0.000093      0.000000
    212 O2    s      -0.000091     -0.000146      0.000054      0.000000
    213 O2    s       0.000286     -0.000105     -0.000184      0.000000
    214 O3    s       0.000261      0.000267     -0.000104      0.000000
    215 O2    s       0.000043     -0.000065     -0.000027      0.000000
    216 O2    s       0.000001      0.000004      0.000079      0.000000
    217 O2    s       0.000047     -0.000030     -0.000097      0.000000
    218 O3    s       0.000047     -0.000119      0.000800      0.000000
    219 O3    s       0.000204     -0.000012      0.003153      0.000000
    220 O2    s      -0.000086     -0.000043      0.000501      0.000000
    221 O2    s      -0.000016     -0.000141     -0.000030      0.000000
    222 O2    s       0.000019     -0.000002      0.000016      0.000000
    223 O2    s      -0.000077      0.000202      0.000262      0.000000
    224 O2    s       0.000019      0.000004     -0.000025      0.000000
    225 O3    s       0.000031     -0.000029     -0.000137      0.000000
    226 O2    s      -0.000012      0.000018     -0.000143      0.000000
    227 O2    s      -0.000311     -0.000095     -0.000567      0.000000
    228 O2    s       0.000041      0.000008     -0.000116      0.000000
    229 O2    s       0.000002     -0.000025      0.000128      0.000000
    230 O2    s       0.000143     -0.000136      0.000256      0.000000
    231 O2    s      -0.000030     -0.000154      0.000493      0.000000
    232 O3    s       0.000333     -0.000191      0.000166      0.000000
    233 O2    s      -0.000027      0.000003      0.000146      0.000000
    234 O2    s       0.000012     -0.000064      0.000091      0.000000
    235 O2    s      -0.000018      0.000057     -0.000307      0.000000
    236 O2    s      -0.000040     -0.000012     -0.000072      0.000000
    237 O2    s       0.000003      0.000010      0.000077      0.000000
    238 O2    s       0.000011      0.000019      0.000093      0.000000
    239 O3    s       0.000345      0.000211      0.000395      0.000000
    240 O2    s      -0.000006     -0.000003     -0.000007      0.000000
    241 O2    s       0.000078      0.000035      0.000400      0.000000
    242 O2    s       0.000004     -0.000015      0.000134      0.000000
    243 O2    s      -0.000031      0.000011     -0.000042      0.000000
    244 O2    s       0.000017      0.000001     -0.000091      0.000000
    245 O2    s      -0.000055     -0.000005      0.000032      0.000000
    246 O2    s      -0.000079      0.000033     -0.000040      0.000000
    247 O2    s      -0.000018      0.000030     -0.000017      0.000000
    248 O2    s      -0.000237     -0.000119      0.000056      0.000000
    249 O2    s      -0.000005     -0.000043     -0.000102      0.000000
    250 O2    s       0.000108      0.000056     -0.000049      0.000000
    251 O2    s      -0.000007     -0.000034      0.000089      0.000000
    252 O2    s      -0.000055      0.000040     -0.000039      0.000000
    253 O3    s       0.000187     -0.000027     -0.000295      0.000000
    254 O2    s      -0.000006      0.000025      0.000031      0.000000
    255 O2    s      -0.000007     -0.000035     -0.000104      0.000000
    256 O2    s       0.000001      0.000017      0.000001      0.000000
    257 O2    s      -0.000093      0.000044     -0.000217      0.000000
    258 O2    s       0.000033     -0.000093      0.000060      0.000000
    259 O2    s      -0.000021     -0.000000      0.000047      0.000000
    260 O2    s      -0.000022     -0.000032      0.000024      0.000000
    261 O2    s      -0.000002     -0.000032      0.000044      0.000000
    262 O2    s       0.000026     -0.000032      0.000020      0.000000
    263 O2    s      -0.000021     -0.000001      0.000094      0.000000
    264 O2    s       0.000077     -0.000150     -0.000043      0.000000
    265 O3    s      -0.000141      0.000027      0.000166      0.000000
    266 O2    s       0.000001      0.000009      0.000052      0.000000
    267 O2    s       0.000047     -0.000035     -0.000124      0.000000
    268 O2    s       0.000057     -0.000034      0.000036      0.000000
    269 O2    s      -0.000018      0.000075     -0.000020      0.000000
    270 O2    s       0.000015     -0.000056      0.000103      0.000000
    271 O2    s       0.000029      0.000050      0.000128      0.000000
    272 O2    s      -0.000024      0.000060      0.000018      0.000000
    273 O2    s      -0.000031      0.000012     -0.000097      0.000000
    274 O2    s       0.000067     -0.000072     -0.000181      0.000000
    275 O2    s      -0.000020      0.000024     -0.000013      0.000000
    276 O2    s      -0.000104      0.000249     -0.000347      0.000000
    277 O2    s       0.000033      0.000013      0.000171      0.000000
    278 O2    s      -0.000020     -0.000002      0.000140      0.000000
    279 O2    s      -0.000008     -0.000038      0.000024      0.000000
    280 O2    s      -0.000035     -0.000014      0.000006      0.000000
    281 O2    s       0.000061     -0.000098      0.000086      0.000000
    282 O2    s      -0.000054      0.000189     -0.000536      0.000000
    283 O2    s      -0.000006     -0.000001      0.000055      0.000000
    284 O2    s       0.000045      0.000045     -0.000823      0.000000
    285 O2    s      -0.000146      0.000087      0.000278      0.000000
    286 O2    s      -0.000001     -0.000179     -0.000028      0.000000
    287 O2    s      -0.000027      0.000051      0.000101      0.000000
    288 O2    s       0.000027     -0.000005     -0.000080      0.000000
    289 O2    s      -0.000014     -0.000131     -0.000114      0.000000
    290 O2    s       0.000033      0.000007     -0.000023      0.000000
    291 O2    s      -0.000012      0.000002      0.000031      0.000000
    292 O2    s       0.000006     -0.000008      0.000067      0.000000
    293 O2    s       0.000034      0.000007     -0.000006      0.000000
    294 O2    s       0.000013     -0.000065     -0.000097      0.000000
    295 O2    s       0.000011      0.000007      0.000018      0.000000
    296 O2    s      -0.000190      0.000287      0.000057      0.000000
    297 O2    s      -0.000000     -0.000014     -0.000037      0.000000
    298 O2    s      -0.000048     -0.000072     -0.000064      0.000000
    299 O2    s      -0.000059      0.000040     -0.000058      0.000000
    300 O2    s       0.000072      0.000038     -0.000045      0.000000
    301 O2    s       0.000009     -0.000019      0.000031      0.000000
    302 O2    s       0.000022      0.000006      0.000099      0.000000
    303 O2    s      -0.000045      0.000133      0.000117      0.000000
    304 O2    s      -0.000019      0.000009      0.000000      0.000000
    305 O2    s      -0.000056     -0.000020     -0.000053      0.000000
    306 O2    s       0.000021     -0.000014     -0.000075      0.000000
    307 F     s       0.000004     -0.000033      0.000185      0.000000
    308 F     s       0.000026      0.000008      0.000142      0.000000
    309 F     s       0.000001      0.000121      0.000293      0.000000
    310 F     s      -0.000003     -0.000037      0.000004      0.000000
    311 F     s      -0.000187     -0.000077     -0.000411      0.000000
    312 F     s      -0.000023      0.000026      0.000010      0.000000
--------------------------------------------------------------------------------
  Maximum abs         0.001146      0.000704      0.006998      0.000000
--------------------------------------------------------------------------------


  Time to end of optimisation =      10.3268 seconds


  Peak dynamic memory used =      19.13 MB 


  Timing analysis for GULP :

--------------------------------------------------------------------------------
  Task / Subroutine                                          Time (Seconds)
--------------------------------------------------------------------------------
  Calculation of reciprocal space energy and derivatives          0.3577
  Calculation of real space energy and derivatives                8.7525
  Calculation of three-body energy and derivatives                0.9830
  Calculation of matrix inversion                                 0.1920
--------------------------------------------------------------------------------
  Total CPU time                                                 10.3268
--------------------------------------------------------------------------------


  Dump file written as out.res                                                 
  CIF file written as out.cif                                                 


  Job Finished at 11:11.50 30th November   2016                               

