********************************************************************************
*                       GENERAL UTILITY LATTICE PROGRAM                        *
*                                 Julian Gale                                  *
*                      Nanochemistry Research Institute                        *
*                           Department of Chemistry                            *
*                    Curtin University, Western Australia                      *
********************************************************************************
* Version = 4.2.0 * Last modified =  20th January 2014                         *
********************************************************************************
*  optimise     - perform optimisation run                                     *
*  conp         - constant pressure calculation                                *
*  qok          - running with non charge neutral cell is OK                   *
********************************************************************************

  Job Started  at 10:11.55 30th November   2016                               

  Number of CPUs =     1


  Total number of configurations input =   1

********************************************************************************
*  Input for Configuration =   1                                               *
********************************************************************************

  Formula = Ge3Si57O120F6                                               

  Number of irreducible atoms/shells =     312


  Total number atoms/shells =     312

  Dimensionality = 3               :  Bulk   


  Charge on solid   =  -6.000000 =>neutralising background added


  Cartesian lattice vectors (Angstroms) :

       11.949122    0.000000    0.000000
       -6.061414   10.396254    0.000000
       -0.100226   -0.287063   29.484353

  Cell parameters (Angstroms/Degrees):

  a =      11.9491    alpha =  90.3838
  b =      12.0342    beta  =  90.1948
  c =      29.4859    gamma = 120.2438

  Initial cell volume =        3662.726350 Angs**3

  Temperature of configuration =  0.000     K 

  Pressure of configuration =         0.000 GPa 

  Fractional coordinates of asymmetric unit :

--------------------------------------------------------------------------------
   No.  Atomic       x           y          z         Charge      Occupancy
        Label      (Frac)      (Frac)     (Frac)        (e)         (Frac)  
--------------------------------------------------------------------------------
      1 Ge    c    0.699600    0.375700    0.033890     4.00000    1.000000    
      2 Si    c    0.616650 *  0.319717 *  0.364941 *   4.00000    1.000000    
      3 Si    c    0.675695 *  0.301411 *  0.696884 *   4.00000    1.000000    
      4 Si    c    0.291294 *  0.620494 *  0.528757 *   4.00000    1.000000    
      5 Si    c    0.378602 *  0.678782 *  0.860706 *   4.00000    1.000000    
      6 Si    c    0.311889 *  0.701215 *  0.197276 *   4.00000    1.000000    
      7 Si    c    0.371163 *  0.695842 *  0.297013 *   4.00000    1.000000    
      8 Si    c    0.316187 *  0.621880 *  0.960176 *   4.00000    1.000000    
      9 Si    c    0.296218 *  0.679044 *  0.629169 *   4.00000    1.000000    
     10 Si    c    0.620713 *  0.300773 *  0.797613 *   4.00000    1.000000    
     11 Si    c    0.670939 *  0.379397 *  0.465493 *   4.00000    1.000000    
     12 Si    c    0.676745 *  0.320879 *  0.132980 *   4.00000    1.000000    
     13 Si    c    0.530487 *  0.418211 *  0.965514 *   4.00000    1.000000    
     14 Si    c    0.578949 *  0.106521 *  0.301647 *   4.00000    1.000000    
     15 Si    c    0.885649 *  0.473059 *  0.632119 *   4.00000    1.000000    
     16 Si    c    0.461736 *  0.580839 *  0.463458 *   4.00000    1.000000    
     17 Si    c    0.415073 *  0.887771 *  0.795622 *   4.00000    1.000000    
     18 Si    c    0.102778 *  0.536891 *  0.128427 *   4.00000    1.000000    
     19 Si    c    0.409800 *  0.523926 *  0.361673 *   4.00000    1.000000    
     20 Si    c    0.101501 *  0.574848 *  0.025300 *   4.00000    1.000000    
     21 Si    c    0.468747 *  0.891345 *  0.693934 *   4.00000    1.000000    
     22 Si    c    0.584622 *  0.473973 *  0.863329 *   4.00000    1.000000    
     23 Si    c    0.882440 *  0.418278 *  0.530439 *   4.00000    1.000000    
     24 Si    c    0.523008 *  0.112535 *  0.200587 *   4.00000    1.000000    
     25 Si    c    0.303042 *  0.401386 *  0.845954 *   4.00000    1.000000    
     26 Si    c    0.590142 *  0.903110 *  0.182262 *   4.00000    1.000000    
     27 Si    c    0.090275 *  0.697859 *  0.515123 *   4.00000    1.000000    
     28 Si    c    0.691263 *  0.594926 *  0.349349 *   4.00000    1.000000    
     29 Si    c    0.397181 *  0.099125 *  0.680915 *   4.00000    1.000000    
     30 Si    c    0.884544 *  0.285740 *  0.013459 *   4.00000    1.000000    
     31 Si    c    0.391385 *  0.302109 *  0.478414 *   4.00000    1.000000    
     32 Si    c    0.885001 *  0.606101 *  0.139765 *   4.00000    1.000000    
     33 Si    c    0.696501 *  0.099009 *  0.810108 *   4.00000    1.000000    
     34 Si    c    0.592120 *  0.696915 *  0.978026 *   4.00000    1.000000    
     35 Si    c    0.095962 *  0.401988 *  0.644943 *   4.00000    1.000000    
     36 Si    c    0.296640 *  0.897394 *  0.314963 *   4.00000    1.000000    
     37 Si    c    0.252150 *  0.345566 *  0.946070 *   4.00000    1.000000    
     38 Si    c    0.654139 *  0.905744 *  0.282335 *   4.00000    1.000000    
     39 Si    c    0.086669 *  0.751186 *  0.615832 *   4.00000    1.000000    
     40 Si    c    0.741844 *  0.658147 *  0.449727 *   4.00000    1.000000    
     41 Si    c    0.338886 *  0.089376 *  0.781424 *   4.00000    1.000000    
     42 Si    c    0.894034 *  0.253882 *  0.117057 *   4.00000    1.000000    
     43 Si    c    0.334216 *  0.247227 *  0.377699 *   4.00000    1.000000    
     44 Si    c    0.897059 *  0.656677 *  0.036638 *   4.00000    1.000000    
     45 Si    c    0.748387 *  0.093927 *  0.709742 *   4.00000    1.000000    
     46 Si    c    0.660136 *  0.752110 *  0.878444 *   4.00000    1.000000    
     47 Si    c    0.083448 *  0.340286 *  0.544289 *   4.00000    1.000000    
     48 Si    c    0.243831 *  0.909459 *  0.214873 *   4.00000    1.000000    
     49 Si    c    0.975105 *  0.124834 *  0.960408 *   4.00000    1.000000    
     50 Si    c    0.870661 *  0.840691 *  0.298515 *   4.00000    1.000000    
     51 Si    c    0.148346 *  0.030762 *  0.629898 *   4.00000    1.000000    
     52 Si    c    0.022372 *  0.877193 *  0.464626 *   4.00000    1.000000    
     53 Si    c    0.121445 *  0.151787 *  0.795120 *   4.00000    1.000000    
     54 Ge    c    0.844092 *  0.978208 *  0.132449 *   4.00000    1.000000    
     55 Si    c    0.116072 *  0.966067 *  0.363855 *   4.00000    1.000000    
     56 Ge    c    0.848660 *  0.882619 *  0.026274 *   4.00000    1.000000    
     57 Si    c    0.028707 *  0.154800 *  0.694373 *   4.00000    1.000000    
     58 Si    c    0.878180 *  0.031577 *  0.859851 *   4.00000    1.000000    
     59 Si    c    0.144348 *  0.122195 *  0.529331 *   4.00000    1.000000    
     60 Si    c    0.965195 *  0.851227 *  0.197113 *   4.00000    1.000000    
     61 O3    c    0.940126 *  0.002036 *  0.989093 *   1.33043    1.000000    
     62 O2    c    0.994198 *  0.922858 *  0.330722 *   0.87073    1.000000    
     63 O2    c    0.067441 *  0.073696 *  0.661255 *   0.87073    1.000000    
     64 O2    c    0.064099 *  0.000167 *  0.496568 *   0.87073    1.000000    
     65 O2    c    0.995859 *  0.069646 *  0.825620 *   0.87073    1.000000    
     66 O3    c    0.934145 *  0.944609 *  0.169540 *   1.33043    1.000000    
     67 O2    c    0.333862 *  0.572282 *  0.328631 *   0.87073    1.000000    
     68 O2    c    0.421365 *  0.766314 *  0.661221 *   0.87073    1.000000    
     69 O2    c    0.224746 *  0.652557 *  0.992604 *   0.87073    1.000000    
     70 O2    c    0.659996 *  0.423040 *  0.830953 *   0.87073    1.000000    
     71 O2    c    0.569513 *  0.241973 *  0.171494 *   0.87073    1.000000    
     72 O2    c    0.754475 *  0.341158 *  0.498552 *   0.87073    1.000000    
     73 O3    c    0.566597 *  0.336803 *  0.997521 *   1.33043    1.000000    
     74 O2    c    0.761287 *  0.425142 *  0.664905 *   0.87073    1.000000    
     75 O2    c    0.656146 *  0.232055 *  0.334273 *   0.87073    1.000000    
     76 O2    c    0.412770 *  0.657990 *  0.495292 *   0.87073    1.000000    
     77 O2    c    0.224378 *  0.582672 *  0.162570 *   0.87073    1.000000    
     78 O2    c    0.340463 *  0.761899 *  0.827346 *   0.87073    1.000000    
     79 O2    c    0.127609 *  0.221528 *  0.967040 *   0.87073    1.000000    
     80 O2    c    0.780110 *  0.904542 *  0.302315 *   0.87073    1.000000    
     81 O2    c    0.086450 *  0.877311 *  0.635649 *   0.87073    1.000000    
     82 O2    c    0.867659 *  0.786043 *  0.469848 *   0.87073    1.000000    
     83 O2    c    0.211711 *  0.088287 *  0.801231 *   0.87073    1.000000    
     84 O3    c    0.900995 *  0.140293 *  0.141540 *   1.33043    1.000000    
     85 O2    c    0.207939 *  0.119440 *  0.357600 *   0.87073    1.000000    
     86 O3    c    0.920047 *  0.790697 *  0.018541 *   1.33043    1.000000    
     87 O2    c    0.874123 *  0.093620 *  0.689277 *   0.87073    1.000000    
     88 O2    c    0.787482 *  0.876941 *  0.858325 *   0.87073    1.000000    
     89 O2    c    0.080563 *  0.212370 *  0.524584 *   0.87073    1.000000    
     90 O2    c    0.119394 *  0.910565 *  0.194114 *   0.87073    1.000000    
     91 O2    c    0.920565 *  0.846545 *  0.248253 *   0.87073    1.000000    
     92 O2    c    0.134273 *  0.068351 *  0.579253 *   0.87073    1.000000    
     93 O2    c    0.939820 *  0.083052 *  0.908600 *   0.87073    1.000000    
     94 O2    c    0.071105 *  0.140418 *  0.744200 *   0.87073    1.000000    
     95 O1    c    0.875611 *  0.948801 *  0.079430 *   1.73396    1.000000    
     96 O2    c    0.062090 *  0.929088 *  0.414153 *   0.87073    1.000000    
     97 O2    c    0.893783 *  0.190690 *  0.976971 *   0.87073    1.000000    
     98 O2    c    0.789340 *  0.690573 *  0.311174 *   0.87073    1.000000    
     99 O2    c    0.300478 *  0.101550 *  0.642458 *   0.87073    1.000000    
    100 O2    c    0.091519 *  0.795526 *  0.476992 *   0.87073    1.000000    
    101 O2    c    0.204913 *  0.303179 *  0.807385 *   0.87073    1.000000    
    102 O3    c    0.679834 *  0.898271 *  0.142690 *   1.33043    1.000000    
    103 O2    c    0.198612 *  0.895912 *  0.353351 *   0.87073    1.000000    
    104 O3    c    0.684164 *  0.794393 *  0.017557 *   1.33043    1.000000    
    105 O2    c    0.099339 *  0.306283 *  0.682840 *   0.87073    1.000000    
    106 O2    c    0.794112 *  0.098530 *  0.848247 *   0.87073    1.000000    
    107 O2    c    0.295764 *  0.205623 *  0.516854 *   0.87073    1.000000    
    108 O2    c    0.889224 *  0.705713 *  0.177649 *   0.87073    1.000000    
    109 O2    c    0.311666 *  0.639670 *  0.246462 *   0.87073    1.000000    
    110 O2    c    0.352189 *  0.678835 *  0.578750 *   0.87073    1.000000    
    111 O2    c    0.315775 *  0.678546 *  0.910030 *   0.87073    1.000000    
    112 O2    c    0.676846 *  0.358036 *  0.747423 *   0.87073    1.000000    
    113 O3    c    0.608435 *  0.306735 *  0.085204 *   1.33043    1.000000    
    114 O2    c    0.673361 *  0.322375 *  0.415431 *   0.87073    1.000000    
    115 O2    c    0.372448 *  0.334551 *  0.964533 *   0.87073    1.000000    
    116 O2    c    0.665575 *  0.036954 *  0.302619 *   0.87073    1.000000    
    117 O2    c    0.954966 *  0.629056 *  0.634607 *   0.87073    1.000000    
    118 O2    c    0.618637 *  0.668595 *  0.466745 *   0.87073    1.000000    
    119 O2    c    0.328169 *  0.956926 *  0.799110 *   0.87073    1.000000    
    120 O2    c    0.027005 *  0.382697 *  0.131101 *   0.87073    1.000000    
    121 O2    c    0.323227 *  0.367694 *  0.358505 *   0.87073    1.000000    
    122 O2    c    0.029065 *  0.656652 *  0.023545 *   0.87073    1.000000    
    123 O2    c    0.625606 *  0.961364 *  0.691020 *   0.87073    1.000000    
    124 O2    c    0.670377 *  0.630050 *  0.860072 *   0.87073    1.000000    
    125 O2    c    0.950108 *  0.330392 *  0.526472 *   0.87073    1.000000    
    126 O2    c    0.366200 *  0.041553 *  0.197036 *   0.87073    1.000000    
    127 O3    c    0.751302 *  0.279055 *  0.003794 *   1.33043    1.000000    
    128 O2    c    0.691325 *  0.461239 *  0.341822 *   0.87073    1.000000    
    129 O2    c    0.531848 *  0.233286 *  0.674053 *   0.87073    1.000000    
    130 O2    c    0.223101 *  0.695616 *  0.506797 *   0.87073    1.000000    
    131 O2    c    0.306009 *  0.535968 *  0.837557 *   0.87073    1.000000    
    132 O2    c    0.454046 *  0.770184 *  0.174429 *   0.87073    1.000000    
    133 O2    c    0.296679 *  0.763407 *  0.320305 *   0.87073    1.000000    
    134 O2    c    0.458393 *  0.699692 *  0.983935 *   0.87073    1.000000    
    135 O2    c    0.230275 *  0.537040 *  0.651758 *   0.87073    1.000000    
    136 O2    c    0.695862 *  0.231760 *  0.818952 *   0.87073    1.000000    
    137 O2    c    0.526357 *  0.304306 *  0.486741 *   0.87073    1.000000    
    138 O2    c    0.753619 *  0.471878 *  0.149879 *   0.87073    1.000000    
    139 O3    c    0.770019 *  0.541176 *  0.015753 *   1.33043    1.000000    
    140 O2    c    0.459945 *  0.245090 *  0.358953 *   0.87073    1.000000    
    141 O2    c    0.750257 *  0.220571 *  0.691038 *   0.87073    1.000000    
    142 O2    c    0.209389 *  0.464462 *  0.524043 *   0.87073    1.000000    
    143 O2    c    0.535891 *  0.755368 *  0.858180 *   0.87073    1.000000    
    144 O2    c    0.236299 *  0.781057 *  0.194518 *   0.87073    1.000000    
    145 O2    c    0.528068 *  0.778122 *  0.300642 *   0.87073    1.000000    
    146 O2    c    0.243993 *  0.467279 *  0.965199 *   0.87073    1.000000    
    147 O2    c    0.214178 *  0.752629 *  0.634663 *   0.87073    1.000000    
    148 O2    c    0.464058 *  0.216161 *  0.801662 *   0.87073    1.000000    
    149 O2    c    0.743439 *  0.535033 *  0.470211 *   0.87073    1.000000    
    150 O2    c    0.770232 *  0.258843 *  0.135280 *   0.87073    1.000000    
    151 O2    c    0.230877 *  0.327822 *  0.891757 *   0.87073    1.000000    
    152 O2    c    0.670704 *  0.907834 *  0.227720 *   0.87073    1.000000    
    153 O2    c    0.087044 *  0.768574 *  0.561530 *   0.87073    1.000000    
    154 O2    c    0.762499 *  0.672273 *  0.395494 *   0.87073    1.000000    
    155 O2    c    0.321420 *  0.092216 *  0.727142 *   0.87073    1.000000    
    156 O2    c    0.886243 *  0.225227 *  0.062963 *   0.87073    1.000000    
    157 O2    c    0.316470 *  0.230406 *  0.431934 *   0.87073    1.000000    
    158 O2    c    0.881600 *  0.668283 *  0.091987 *   0.87073    1.000000    
    159 O2    c    0.768230 *  0.096144 *  0.763974 *   0.87073    1.000000    
    160 O2    c    0.676300 *  0.770708 *  0.933139 *   0.87073    1.000000    
    161 O2    c    0.088432 *  0.325824 *  0.598515 *   0.87073    1.000000    
    162 O2    c    0.226579 *  0.906495 *  0.269186 *   0.87073    1.000000    
    163 O2    c    0.578519 *  0.559620 *  0.988003 *   0.87073    1.000000    
    164 O2    c    0.438168 *  0.020009 *  0.324721 *   0.87073    1.000000    
    165 O2    c    0.971603 *  0.417395 *  0.654457 *   0.87073    1.000000    
    166 O2    c    0.404968 *  0.440938 *  0.486588 *   0.87073    1.000000    
    167 O2    c    0.557290 *  0.972937 *  0.818474 *   0.87073    1.000000    
    168 O2    c    0.011766 *  0.592265 *  0.145151 *   0.87073    1.000000    
    169 O2    c    0.551975 *  0.581282 *  0.339352 *   0.87073    1.000000    
    170 O2    c    0.010454 *  0.428916 *  0.007495 *   0.87073    1.000000    
    171 O2    c    0.410908 *  0.974481 *  0.671027 *   0.87073    1.000000    
    172 O2    c    0.443430 *  0.415656 *  0.839242 *   0.87073    1.000000    
    173 O2    c    0.964028 *  0.558118 *  0.506711 *   0.87073    1.000000    
    174 O2    c    0.580178 *  0.031247 *  0.175330 *   0.87073    1.000000    
    175 O2    c    0.576929 *  0.161124 *  0.251653 *   0.87073    1.000000    
    176 O2    c    0.830891 *  0.418787 *  0.581331 *   0.87073    1.000000    
    177 O2    c    0.585856 *  0.424962 *  0.914197 *   0.87073    1.000000    
    178 O2    c    0.414757 *  0.836943 *  0.744338 *   0.87073    1.000000    
    179 O2    c    0.152685 *  0.579866 *  0.077073 *   0.87073    1.000000    
    180 O2    c    0.408596 *  0.577953 *  0.412277 *   0.87073    1.000000    
    181 F     c    0.444530 *  0.899272 *  0.247647 *   0.56000    1.000000    
    182 F     c    0.093413 *  0.549507 *  0.579470 *   0.56000    1.000000    
    183 F     c    0.449822 *  0.556812 *  0.912253 *   0.56000    1.000000    
    184 F     c    0.547201 *  0.098867 *  0.745243 *   0.56000    1.000000    
    185 F     c    0.848372 *  0.435448 *  0.070329 *   0.56000    1.000000    
    186 F     c    0.542005 *  0.449364 *  0.413020 *   0.56000    1.000000    
    187 O3    s    0.935937 *  0.005195 *  0.989192 *  -3.33043    1.000000    
    188 O2    s    0.993992 *  0.918505 *  0.330826 *  -2.87073    1.000000    
    189 O2    s    0.072199 *  0.077916 *  0.661428 *  -2.87073    1.000000    
    190 O2    s    0.068372 *  0.000001 *  0.496643 *  -2.87073    1.000000    
    191 O2    s    0.996833 *  0.074581 *  0.826005 *  -2.87073    1.000000    
    192 O3    s    0.929895 *  0.937365 *  0.169387 *  -3.33043    1.000000    
    193 O2    s    0.345414 *  0.580070 *  0.328726 *  -2.87073    1.000000    
    194 O2    s    0.413283 *  0.770132 *  0.661258 *  -2.87073    1.000000    
    195 O2    s    0.220984 *  0.641250 *  0.992772 *  -2.87073    1.000000    
    196 O2    s    0.648359 *  0.415625 *  0.830783 *  -2.87073    1.000000    
    197 O2    s    0.575709 *  0.236655 *  0.170550 *  -2.87073    1.000000    
    198 O2    s    0.758944 *  0.353082 *  0.498382 *  -2.87073    1.000000    
    199 O3    s    0.572193 *  0.348232 *  0.996702 *  -3.33043    1.000000    
    200 O2    s    0.765415 *  0.417496 *  0.664786 *  -2.87073    1.000000    
    201 O2    s    0.644173 *  0.227997 *  0.334027 *  -2.87073    1.000000    
    202 O2    s    0.405432 *  0.646147 *  0.495415 *  -2.87073    1.000000    
    203 O2    s    0.220398 *  0.589885 *  0.162494 *  -2.87073    1.000000    
    204 O2    s    0.352050 *  0.766472 *  0.827464 *  -2.87073    1.000000    
    205 O2    s    0.124065 *  0.224084 *  0.964112 *  -2.87073    1.000000    
    206 O2    s    0.776606 *  0.897910 *  0.299856 *  -2.87073    1.000000    
    207 O2    s    0.092994 *  0.880475 *  0.633025 *  -2.87073    1.000000    
    208 O2    s    0.871063 *  0.782472 *  0.467233 *  -2.87073    1.000000    
    209 O2    s    0.215283 *  0.095118 *  0.798570 *  -2.87073    1.000000    
    210 O3    s    0.895748 *  0.139005 *  0.138326 *  -3.33043    1.000000    
    211 O2    s    0.211242 *  0.116387 *  0.360307 *  -2.87073    1.000000    
    212 O3    s    0.911778 *  0.784525 *  0.021030 *  -3.33043    1.000000    
    213 O2    s    0.877593 *  0.100190 *  0.691911 *  -2.87073    1.000000    
    214 O2    s    0.784028 *  0.880543 *  0.860535 *  -2.87073    1.000000    
    215 O2    s    0.087584 *  0.215954 *  0.527079 *  -2.87073    1.000000    
    216 O2    s    0.116045 *  0.904026 *  0.196637 *  -2.87073    1.000000    
    217 O2    s    0.919877 *  0.846407 *  0.248247 *  -2.87073    1.000000    
    218 O2    s    0.136997 *  0.070245 *  0.579277 *  -2.87073    1.000000    
    219 O2    s    0.936632 *  0.081787 *  0.908824 *  -2.87073    1.000000    
    220 O2    s    0.071944 *  0.143355 *  0.744262 *  -2.87073    1.000000    
    221 O1    s    0.870752 *  0.945983 *  0.079679 *  -3.73396    1.000000    
    222 O2    s    0.063750 *  0.927440 *  0.414120 *  -2.87073    1.000000    
    223 O2    s    0.901587 *  0.193739 *  0.979107 *  -2.87073    1.000000    
    224 O2    s    0.787963 *  0.696839 *  0.313754 *  -2.87073    1.000000    
    225 O2    s    0.294070 *  0.093750 *  0.645022 *  -2.87073    1.000000    
    226 O2    s    0.084031 *  0.794263 *  0.479556 *  -2.87073    1.000000    
    227 O2    s    0.206084 *  0.297148 *  0.810025 *  -2.87073    1.000000    
    228 O3    s    0.684448 *  0.905147 *  0.145650 *  -3.33043    1.000000    
    229 O2    s    0.200003 *  0.903377 *  0.350525 *  -2.87073    1.000000    
    230 O3    s    0.689132 *  0.792619 *  0.014619 *  -3.33043    1.000000    
    231 O2    s    0.091558 *  0.300128 *  0.680177 *  -2.87073    1.000000    
    232 O2    s    0.792962 *  0.091395 *  0.845516 *  -2.87073    1.000000    
    233 O2    s    0.289460 *  0.206700 *  0.514206 *  -2.87073    1.000000    
    234 O2    s    0.896839 *  0.710692 *  0.175703 *  -2.87073    1.000000    
    235 O2    s    0.317629 *  0.651520 *  0.246518 *  -2.87073    1.000000    
    236 O2    s    0.340265 *  0.672877 *  0.578759 *  -2.87073    1.000000    
    237 O2    s    0.322075 *  0.672836 *  0.910200 *  -2.87073    1.000000    
    238 O2    s    0.671049 *  0.346477 *  0.747349 *  -2.87073    1.000000    
    239 O3    s    0.621304 *  0.312630 *  0.086770 *  -3.33043    1.000000    
    240 O2    s    0.667249 *  0.327961 *  0.415333 *  -2.87073    1.000000    
    241 O2    s    0.374972 *  0.344222 *  0.962552 *  -2.87073    1.000000    
    242 O2    s    0.655494 *  0.030519 *  0.300410 *  -2.87073    1.000000    
    243 O2    s    0.961624 *  0.625822 *  0.632380 *  -2.87073    1.000000    
    244 O2    s    0.615397 *  0.658446 *  0.464603 *  -2.87073    1.000000    
    245 O2    s    0.338155 *  0.963631 *  0.796906 *  -2.87073    1.000000    
    246 O2    s    0.021134 *  0.385833 *  0.129308 *  -2.87073    1.000000    
    247 O2    s    0.333198 *  0.371202 *  0.360818 *  -2.87073    1.000000    
    248 O2    s    0.023354 *  0.647646 *  0.025108 *  -2.87073    1.000000    
    249 O2    s    0.622297 *  0.968058 *  0.693297 *  -2.87073    1.000000    
    250 O2    s    0.660556 *  0.626768 *  0.862317 *  -2.87073    1.000000    
    251 O2    s    0.957100 *  0.340452 *  0.528750 *  -2.87073    1.000000    
    252 O2    s    0.369496 *  0.034888 *  0.199305 *  -2.87073    1.000000    
    253 O3    s    0.761965 *  0.286161 *  0.006881 *  -3.33043    1.000000    
    254 O2    s    0.683668 *  0.460681 *  0.344999 *  -2.87073    1.000000    
    255 O2    s    0.532495 *  0.226202 *  0.677153 *  -2.87073    1.000000    
    256 O2    s    0.216127 *  0.688135 *  0.509957 *  -2.87073    1.000000    
    257 O2    s    0.313131 *  0.536534 *  0.840827 *  -2.87073    1.000000    
    258 O2    s    0.453329 *  0.776841 *  0.177694 *  -2.87073    1.000000    
    259 O2    s    0.304275 *  0.770534 *  0.317334 *  -2.87073    1.000000    
    260 O2    s    0.457452 *  0.691367 *  0.980821 *  -2.87073    1.000000    
    261 O2    s    0.222885 *  0.537369 *  0.648691 *  -2.87073    1.000000    
    262 O2    s    0.688218 *  0.224923 *  0.815803 *  -2.87073    1.000000    
    263 O2    s    0.527035 *  0.311863 *  0.483619 *  -2.87073    1.000000    
    264 O2    s    0.759916 *  0.471281 *  0.147135 *  -2.87073    1.000000    
    265 O3    s    0.779276 *  0.543008 *  0.019104 *  -3.33043    1.000000    
    266 O2    s    0.462658 *  0.253135 *  0.361551 *  -2.87073    1.000000    
    267 O2    s    0.742208 *  0.215216 *  0.693634 *  -2.87073    1.000000    
    268 O2    s    0.204189 *  0.467220 *  0.526682 *  -2.87073    1.000000    
    269 O2    s    0.532806 *  0.746953 *  0.860602 *  -2.87073    1.000000    
    270 O2    s    0.245178 *  0.786483 *  0.196995 *  -2.87073    1.000000    
    271 O2    s    0.525196 *  0.783356 *  0.298298 *  -2.87073    1.000000    
    272 O2    s    0.252607 *  0.470684 *  0.962634 *  -2.87073    1.000000    
    273 O2    s    0.208718 *  0.744742 *  0.632075 *  -2.87073    1.000000    
    274 O2    s    0.466902 *  0.211202 *  0.799074 *  -2.87073    1.000000    
    275 O2    s    0.735591 *  0.532138 *  0.467524 *  -2.87073    1.000000    
    276 O2    s    0.774353 *  0.264747 *  0.133022 *  -2.87073    1.000000    
    277 O2    s    0.240771 *  0.337507 *  0.892626 *  -2.87073    1.000000    
    278 O2    s    0.660966 *  0.907206 *  0.228803 *  -2.87073    1.000000    
    279 O2    s    0.087332 *  0.759274 *  0.562392 *  -2.87073    1.000000    
    280 O2    s    0.752819 *  0.662642 *  0.396395 *  -2.87073    1.000000    
    281 O2    s    0.331233 *  0.092632 *  0.728024 *  -2.87073    1.000000    
    282 O2    s    0.886795 *  0.233914 *  0.063723 *  -2.87073    1.000000    
    283 O2    s    0.326202 *  0.239717 *  0.431032 *  -2.87073    1.000000    
    284 O2    s    0.883237 *  0.660508 *  0.091998 *  -2.87073    1.000000    
    285 O2    s    0.758611 *  0.096208 *  0.763010 *  -2.87073    1.000000    
    286 O2    s    0.666427 *  0.761557 *  0.931968 *  -2.87073    1.000000    
    287 O2    s    0.088682 *  0.335343 *  0.597592 *  -2.87073    1.000000    
    288 O2    s    0.235765 *  0.905883 *  0.268186 *  -2.87073    1.000000    
    289 O2    s    0.574932 *  0.560403 *  0.984633 *  -2.87073    1.000000    
    290 O2    s    0.437624 *  0.015645 *  0.321256 *  -2.87073    1.000000    
    291 O2    s    0.976189 *  0.421730 *  0.651094 *  -2.87073    1.000000    
    292 O2    s    0.409621 *  0.440603 *  0.483270 *  -2.87073    1.000000    
    293 O2    s    0.557327 *  0.977764 *  0.815141 *  -2.87073    1.000000    
    294 O2    s    0.007862 *  0.587721 *  0.142768 *  -2.87073    1.000000    
    295 O2    s    0.551988 *  0.576546 *  0.342776 *  -2.87073    1.000000    
    296 O2    s    0.007269 *  0.430028 *  0.010031 *  -2.87073    1.000000    
    297 O2    s    0.415622 *  0.979394 *  0.674474 *  -2.87073    1.000000    
    298 O2    s    0.442914 *  0.420332 *  0.842466 *  -2.87073    1.000000    
    299 O2    s    0.969322 *  0.558657 *  0.510075 *  -2.87073    1.000000    
    300 O2    s    0.575207 *  0.026019 *  0.178654 *  -2.87073    1.000000    
    301 O2    s    0.571436 *  0.150243 *  0.251499 *  -2.87073    1.000000    
    302 O2    s    0.841928 *  0.424351 *  0.581292 *  -2.87073    1.000000    
    303 O2    s    0.580300 *  0.429520 *  0.913889 *  -2.87073    1.000000    
    304 O2    s    0.420357 *  0.847834 *  0.744438 *  -2.87073    1.000000    
    305 O2    s    0.142367 *  0.574881 *  0.077249 *  -2.87073    1.000000    
    306 O2    s    0.414175 *  0.572648 *  0.412302 *  -2.87073    1.000000    
    307 F     s    0.444285 *  0.898744 *  0.247502 *  -1.56000    1.000000    
    308 F     s    0.093918 *  0.549716 *  0.579404 *  -1.56000    1.000000    
    309 F     s    0.449485 *  0.557665 *  0.912290 *  -1.56000    1.000000    
    310 F     s    0.547438 *  0.099251 *  0.745180 *  -1.56000    1.000000    
    311 F     s    0.837917 *  0.431385 *  0.067927 *  -1.56000    1.000000    
    312 F     s    0.542270 *  0.449203 *  0.412931 *  -1.56000    1.000000    
--------------------------------------------------------------------------------



********************************************************************************
*  General input information                                                   *
********************************************************************************

  Species output for all configurations : 

--------------------------------------------------------------------------------
  Species    Type    Atomic    Atomic    Charge       Radii (Angs)     Library
                     Number     Mass       (e)     Cova   Ionic  VDW   Symbol
--------------------------------------------------------------------------------
    Si       Core       14      28.09   4.000000   1.200  0.000  2.100          
    O1       Core        8      16.00   1.733957   0.730  0.000  1.360          
    O1       Shell       8       0.00  -3.733957   0.730  0.000  1.360          
    O2       Core        8      16.00   0.870733   0.730  0.000  1.360          
    O2       Shell       8       0.00  -2.870733   0.730  0.000  1.360          
    O3       Core        8      16.00   1.330431   0.730  0.000  1.360          
    O3       Shell       8       0.00  -3.330431   0.730  0.000  1.360          
    F        Core        9      19.00   0.560000   0.710  0.000  1.300          
    F        Shell       9       0.00  -1.560000   0.710  0.000  1.300          
    Ge       Core       32      72.61   4.000000   1.170  0.000  1.750          
--------------------------------------------------------------------------------


  Lattice summation method               =    Ewald          (3-D)
                                         =    Parry          (2-D)
                                         =    Saunders et al (1-D)
  Accuracy factor for lattice sums       =   12.000


  Time limit = Infinity

  Maximum range for interatomic potentials =        16.000000 Angstroms

  Taper potentials to zero over   1.0000 Angstroms using polynomial

  General interatomic potentials :

--------------------------------------------------------------------------------
Atom  Types   Potential         A         B         C         D     Cutoffs(Ang)
  1     2                                                            Min    Max 
--------------------------------------------------------------------------------
Si   c O1   s Buckingham    0.132E+04 0.318      10.1      0.00     0.000 16.000
Si   c O2   s Buckingham    0.132E+04 0.318      10.1      0.00     0.000 16.000
Si   c O3   s Buckingham    0.132E+04 0.318      10.1      0.00     0.000 16.000
Ge   c O1   s Buckingham    0.150E+04 0.326      16.8      0.00     0.000 16.000
Ge   c O2   s Buckingham    0.150E+04 0.326      16.8      0.00     0.000 16.000
Ge   c O3   s Buckingham    0.150E+04 0.326      16.8      0.00     0.000 16.000
O1   s O1   s Buckingham    0.228E+05 0.149      10.9      0.00     0.000 16.000
O1   s O2   s Buckingham    0.228E+05 0.149      10.9      0.00     0.000 16.000
O1   s O3   s Buckingham    0.228E+05 0.149      10.9      0.00     0.000 16.000
O2   s O2   s Buckingham    0.228E+05 0.149      10.9      0.00     0.000 16.000
O2   s O3   s Buckingham    0.228E+05 0.149      10.9      0.00     0.000 16.000
O3   s O3   s Buckingham    0.228E+05 0.149      10.9      0.00     0.000 16.000
Si   c F    s Buckingham     977.     0.282      0.00      0.00     0.000 16.000
Ge   c F    s Buckingham     681.     0.320      0.00      0.00     0.000 16.000
F    s F    s Buckingham     540.     0.262      0.00      0.00     0.000 16.000
O1   s F    s Buckingham    0.168E+04 0.268      0.00      0.00     0.000 16.000
O2   s F    s Buckingham    0.168E+04 0.268      0.00      0.00     0.000 16.000
O3   s F    s Buckingham    0.168E+04 0.268      0.00      0.00     0.000 16.000
O2   c O2   s Spring (c-s)   76.0      0.00      0.00      0.00     0.000  0.800
O3   c O3   s Spring (c-s)   128.      0.00      0.00      0.00     0.000  0.800
O1   c O1   s Spring (c-s)   180.      0.00      0.00      0.00     0.000  0.800
F    c F    s Spring (c-s)   33.5      0.00      0.00      0.00     0.000  0.800
--------------------------------------------------------------------------------

  General Three-body potentials :

  Harmonic form:

--------------------------------------------------------------------------------
Atom    Atom    Atom           Force Constants            Theta     Cutoffs  
  1       2       3     (eVrad**-2/eVrad**-3/eVrad**-4)   (deg)  1-2  1-3  2-3
--------------------------------------------------------------------------------
Si    c O1    s O1    s  1.261        0.0000    0.0000   109.470 0.00 0.00 0.00
                                                                 1.90 1.90 3.50
Si    c O1    s O2    s  1.261        0.0000    0.0000   109.470 0.00 0.00 0.00
                                                                 1.90 1.90 3.50
Si    c O2    s O2    s  1.261        0.0000    0.0000   109.470 0.00 0.00 0.00
                                                                 1.90 1.90 3.50
--------------------------------------------------------------------------------

********************************************************************************
*  Output for configuration   1                                                *
********************************************************************************


  Components of energy : 

--------------------------------------------------------------------------------
  Interatomic potentials     =        2060.59283910 eV
  Three-body potentials      =           0.46795170 eV
  Monopole - monopole (real) =       -6610.55207727 eV
  Monopole - monopole (recip)=       -3169.97771112 eV
  Monopole - monopole (total)=       -9780.52978839 eV
  Neutralising energy        =          -6.45654904 eV
--------------------------------------------------------------------------------
  Total lattice energy       =       -7725.92554662 eV
--------------------------------------------------------------------------------
  Total lattice energy       =         -745433.7137 kJ/(mole unit cells)
--------------------------------------------------------------------------------


  Number of variables =      939

  Maximum number of calculations  =          1000
  Maximum Hessian update interval =            10
  Maximum step size               =   1.000000000
  Maximum parameter tolerance     =   0.000010000
  Maximum function  tolerance     =   0.000010000
  Maximum gradient  tolerance     =   0.001000000
  Maximum gradient  component     =   0.010000000

  Symmetry not applied to optimisation

  Cell parameters to be optimised using strains

  Newton-Raphson optimiser to be used

  BFGS hessian update to be used

  Dumpfile to be written after every cycle

  Start of bulk optimisation :

  Cycle:      0 Energy:     -7725.925547  Gnorm:      0.000448  CPU:    1.256
  ** Hessian calculated **
  Cycle:      1 Energy:     -7725.952267  Gnorm:      0.002486  CPU:    3.229
  Cycle:      2 Energy:     -7725.952423  Gnorm:      0.000137  CPU:    4.612
  Cycle:      3 Energy:     -7725.952453  Gnorm:      0.000515  CPU:    6.325
  Cycle:      4 Energy:     -7725.952463  Gnorm:      0.000089  CPU:    7.708


  **** Optimisation achieved ****


  Final energy =   -7725.95246355 eV
  Final Gnorm  =       0.00001707

  Components of energy : 

--------------------------------------------------------------------------------
  Interatomic potentials     =        2060.59806277 eV
  Three-body potentials      =           0.46594377 eV
  Monopole - monopole (real) =       -6611.64467039 eV
  Monopole - monopole (recip)=       -3168.91740889 eV
  Monopole - monopole (total)=       -9780.56207929 eV
  Neutralising energy        =          -6.45439080 eV
--------------------------------------------------------------------------------
  Total lattice energy       =       -7725.95246355 eV
--------------------------------------------------------------------------------
  Total lattice energy       =         -745436.3107 kJ/(mole unit cells)
--------------------------------------------------------------------------------

  Final fractional coordinates of atoms :

--------------------------------------------------------------------------------
   No.  Atomic        x           y          z          Radius
        Label       (Frac)      (Frac)     (Frac)       (Angs) 
--------------------------------------------------------------------------------
     1  Ge    c     0.699600    0.375700    0.033890    0.000000
     2  Si    c     0.601093    0.313123    0.365846    0.000000
     3  Si    c     0.663166    0.293595    0.697677    0.000000
     4  Si    c     0.276387    0.612918    0.530185    0.000000
     5  Si    c     0.370273    0.674291    0.861903    0.000000
     6  Si    c     0.301049    0.697253    0.198753    0.000000
     7  Si    c     0.359239    0.691866    0.298598    0.000000
     8  Si    c     0.310947    0.617746    0.961520    0.000000
     9  Si    c     0.282352    0.671989    0.630656    0.000000
    10  Si    c     0.610892    0.295140    0.798456    0.000000
    11  Si    c     0.655867    0.372236    0.466523    0.000000
    12  Si    c     0.667841    0.315797    0.132869    0.000000
    13  Si    c     0.526746    0.415641    0.966012    0.000000
    14  Si    c     0.566306    0.101928    0.302075    0.000000
    15  Si    c     0.871995    0.465739    0.632970    0.000000
    16  Si    c     0.446893    0.573644    0.465011    0.000000
    17  Si    c     0.405275    0.882982    0.797164    0.000000
    18  Si    c     0.093640    0.531980    0.129897    0.000000
    19  Si    c     0.394570    0.517599    0.363228    0.000000
    20  Si    c     0.097627    0.572634    0.026870    0.000000
    21  Si    c     0.456400    0.884286    0.695397    0.000000
    22  Si    c     0.577222    0.470399    0.863605    0.000000
    23  Si    c     0.867813    0.410677    0.531344    0.000000
    24  Si    c     0.511403    0.108232    0.200813    0.000000
    25  Si    c     0.295543    0.397586    0.846574    0.000000
    26  Si    c     0.578506    0.898625    0.183080    0.000000
    27  Si    c     0.075426    0.690119    0.516322    0.000000
    28  Si    c     0.675537    0.588445    0.350630    0.000000
    29  Si    c     0.384486    0.091669    0.682058    0.000000
    30  Si    c     0.881679    0.283658    0.013917    0.000000
    31  Si    c     0.376591    0.295099    0.479647    0.000000
    32  Si    c     0.875950    0.601217    0.140419    0.000000
    33  Si    c     0.686892    0.093717    0.811586    0.000000
    34  Si    c     0.587605    0.693982    0.978473    0.000000
    35  Si    c     0.082087    0.394790    0.646095    0.000000
    36  Si    c     0.284375    0.893445    0.315913    0.000000
    37  Si    c     0.247856    0.342197    0.946831    0.000000
    38  Si    c     0.641879    0.901364    0.283287    0.000000
    39  Si    c     0.072523    0.743746    0.617021    0.000000
    40  Si    c     0.726846    0.651141    0.451053    0.000000
    41  Si    c     0.328922    0.084153    0.782711    0.000000
    42  Si    c     0.885652    0.249167    0.117642    0.000000
    43  Si    c     0.318940    0.241032    0.378908    0.000000
    44  Si    c     0.894371    0.655975    0.037318    0.000000
    45  Si    c     0.736132    0.086588    0.711030    0.000000
    46  Si    c     0.652168    0.747953    0.878704    0.000000
    47  Si    c     0.068763    0.332674    0.545440    0.000000
    48  Si    c     0.232471    0.905207    0.215635    0.000000
    49  Si    c     0.970730    0.121405    0.961409    0.000000
    50  Si    c     0.856635    0.833571    0.299645    0.000000
    51  Si    c     0.135091    0.023428    0.631104    0.000000
    52  Si    c     0.007813    0.869798    0.465817    0.000000
    53  Si    c     0.112554    0.147848    0.796201    0.000000
    54  Ge    c     0.832927    0.972612    0.133997    0.000000
    55  Si    c     0.102145    0.959702    0.365096    0.000000
    56  Ge    c     0.843407    0.879871    0.027796    0.000000
    57  Si    c     0.016488    0.148128    0.695642    0.000000
    58  Si    c     0.869594    0.027030    0.861035    0.000000
    59  Si    c     0.129939    0.114773    0.530533    0.000000
    60  Si    c     0.952855    0.844519    0.198552    0.000000
    61  O3    c     0.937112    0.002698    0.992238    0.000000
    62  O2    c     0.979695    0.915048    0.332124    0.000000
    63  O2    c     0.055166    0.067106    0.662546    0.000000
    64  O2    c     0.049591    0.992704    0.497786    0.000000
    65  O2    c     0.987883    0.067395    0.827097    0.000000
    66  O3    c     0.919958    0.938606    0.172357    0.000000
    67  O2    c     0.320257    0.568053    0.330250    0.000000
    68  O2    c     0.407587    0.758858    0.662773    0.000000
    69  O2    c     0.221428    0.649414    0.994496    0.000000
    70  O2    c     0.651596    0.418605    0.831242    0.000000
    71  O2    c     0.559298    0.236907    0.171075    0.000000
    72  O2    c     0.739779    0.333854    0.499407    0.000000
    73  O3    c     0.565354    0.335844    0.997629    0.000000
    74  O2    c     0.747597    0.417160    0.665618    0.000000
    75  O2    c     0.641971    0.227212    0.334896    0.000000
    76  O2    c     0.398035    0.650595    0.496896    0.000000
    77  O2    c     0.213918    0.577355    0.164578    0.000000
    78  O2    c     0.330991    0.757443    0.829003    0.000000
    79  O2    c     0.123544    0.216901    0.967159    0.000000
    80  O2    c     0.768085    0.899701    0.302848    0.000000
    81  O2    c     0.072578    0.869954    0.636810    0.000000
    82  O2    c     0.853085    0.778997    0.470969    0.000000
    83  O2    c     0.202272    0.083871    0.802504    0.000000
    84  O3    c     0.891684    0.135187    0.142185    0.000000
    85  O2    c     0.192420    0.113211    0.358927    0.000000
    86  O3    c     0.916794    0.789871    0.019553    0.000000
    87  O2    c     0.861784    0.085993    0.690746    0.000000
    88  O2    c     0.778734    0.872688    0.858276    0.000000
    89  O2    c     0.065889    0.204729    0.525849    0.000000
    90  O2    c     0.107189    0.905356    0.195098    0.000000
    91  O2    c     0.907870    0.836365    0.249821    0.000000
    92  O2    c     0.120666    0.061127    0.580473    0.000000
    93  O2    c     0.930171    0.073664    0.910307    0.000000
    94  O2    c     0.060649    0.135090    0.745401    0.000000
    95  O1    c     0.866176    0.940497    0.081691    0.000000
    96  O2    c     0.048403    0.921650    0.415376    0.000000
    97  O2    c     0.891808    0.190344    0.977111    0.000000
    98  O2    c     0.773164    0.683895    0.312460    0.000000
    99  O2    c     0.287185    0.093437    0.643642    0.000000
   100  O2    c     0.076503    0.787787    0.478225    0.000000
   101  O2    c     0.196775    0.299379    0.808098    0.000000
   102  O3    c     0.668454    0.894480    0.143541    0.000000
   103  O2    c     0.186362    0.891618    0.354283    0.000000
   104  O3    c     0.679757    0.792174    0.017859    0.000000
   105  O2    c     0.085966    0.299325    0.683980    0.000000
   106  O2    c     0.785486    0.094334    0.849744    0.000000
   107  O2    c     0.281142    0.198300    0.518001    0.000000
   108  O2    c     0.878215    0.700101    0.178170    0.000000
   109  O2    c     0.300523    0.636011    0.247989    0.000000
   110  O2    c     0.337459    0.671378    0.580172    0.000000
   111  O2    c     0.308663    0.673879    0.911439    0.000000
   112  O2    c     0.665590    0.351067    0.748101    0.000000
   113  O3    c     0.604041    0.304489    0.084564    0.000000
   114  O2    c     0.657633    0.315428    0.416382    0.000000
   115  O2    c     0.368607    0.332027    0.965356    0.000000
   116  O2    c     0.653428    0.032844    0.303349    0.000000
   117  O2    c     0.940890    0.621608    0.635688    0.000000
   118  O2    c     0.603789    0.661402    0.468266    0.000000
   119  O2    c     0.318268    0.951963    0.800623    0.000000
   120  O2    c     0.017797    0.377850    0.132327    0.000000
   121  O2    c     0.307589    0.361449    0.359777    0.000000
   122  O2    c     0.026716    0.655925    0.025014    0.000000
   123  O2    c     0.613184    0.954016    0.692358    0.000000
   124  O2    c     0.662669    0.626337    0.860155    0.000000
   125  O2    c     0.935454    0.322775    0.527478    0.000000
   126  O2    c     0.354455    0.037262    0.197489    0.000000
   127  O3    c     0.749233    0.278064    0.003765    0.000000
   128  O2    c     0.675336    0.454830    0.343006    0.000000
   129  O2    c     0.519160    0.225342    0.674934    0.000000
   130  O2    c     0.208210    0.687924    0.508088    0.000000
   131  O2    c     0.297552    0.531784    0.838580    0.000000
   132  O2    c     0.442606    0.765600    0.175575    0.000000
   133  O2    c     0.284907    0.759863    0.321512    0.000000
   134  O2    c     0.453678    0.695880    0.984839    0.000000
   135  O2    c     0.216208    0.529830    0.653031    0.000000
   136  O2    c     0.686288    0.226525    0.819981    0.000000
   137  O2    c     0.511558    0.297189    0.487855    0.000000
   138  O2    c     0.744879    0.466637    0.150070    0.000000
   139  O3    c     0.769144    0.540329    0.015511    0.000000
   140  O2    c     0.444377    0.238759    0.359989    0.000000
   141  O2    c     0.737722    0.212757    0.691972    0.000000
   142  O2    c     0.194565    0.456987    0.525326    0.000000
   143  O2    c     0.527398    0.750976    0.858841    0.000000
   144  O2    c     0.225247    0.776854    0.195461    0.000000
   145  O2    c     0.516144    0.774352    0.302088    0.000000
   146  O2    c     0.238994    0.463139    0.966380    0.000000
   147  O2    c     0.200009    0.745185    0.635953    0.000000
   148  O2    c     0.454371    0.210884    0.802818    0.000000
   149  O2    c     0.728322    0.527768    0.471322    0.000000
   150  O2    c     0.761013    0.253299    0.135271    0.000000
   151  O2    c     0.225156    0.324228    0.892563    0.000000
   152  O2    c     0.658521    0.903272    0.228702    0.000000
   153  O2    c     0.072416    0.760903    0.562714    0.000000
   154  O2    c     0.746779    0.665391    0.396822    0.000000
   155  O2    c     0.310149    0.086033    0.728438    0.000000
   156  O2    c     0.880675    0.221847    0.063476    0.000000
   157  O2    c     0.301360    0.223819    0.433132    0.000000
   158  O2    c     0.874339    0.664034    0.092529    0.000000
   159  O2    c     0.756989    0.089618    0.765264    0.000000
   160  O2    c     0.670085    0.767394    0.933355    0.000000
   161  O2    c     0.074105    0.318514    0.599676    0.000000
   162  O2    c     0.215019    0.902550    0.269928    0.000000
   163  O2    c     0.575226    0.557319    0.988405    0.000000
   164  O2    c     0.425920    0.016062    0.325350    0.000000
   165  O2    c     0.957772    0.410088    0.655524    0.000000
   166  O2    c     0.390213    0.433761    0.488111    0.000000
   167  O2    c     0.547569    0.968152    0.820069    0.000000
   168  O2    c     0.002659    0.587572    0.146269    0.000000
   169  O2    c     0.536304    0.574847    0.340746    0.000000
   170  O2    c     0.006996    0.427236    0.008660    0.000000
   171  O2    c     0.398039    0.966910    0.672429    0.000000
   172  O2    c     0.435926    0.412395    0.839557    0.000000
   173  O2    c     0.949289    0.550530    0.507692    0.000000
   174  O2    c     0.568107    0.026334    0.175920    0.000000
   175  O2    c     0.564882    0.156818    0.251995    0.000000
   176  O2    c     0.816618    0.411321    0.582229    0.000000
   177  O2    c     0.579904    0.422052    0.914407    0.000000
   178  O2    c     0.403824    0.830984    0.745980    0.000000
   179  O2    c     0.146299    0.576003    0.078886    0.000000
   180  O2    c     0.393238    0.571019    0.413889    0.000000
   181  F     c     0.432986    0.895383    0.248524    0.000000
   182  F     c     0.078405    0.541885    0.580589    0.000000
   183  F     c     0.443540    0.553172    0.912945    0.000000
   184  F     c     0.535693    0.092185    0.746454    0.000000
   185  F     c     0.845053    0.433323    0.071000    0.000000
   186  F     c     0.525831    0.442484    0.414340    0.000000
   187  O3    s     0.932512    0.005037    0.991968    0.000000
   188  O2    s     0.979637    0.910943    0.332184    0.000000
   189  O2    s     0.059829    0.071230    0.662705    0.000000
   190  O2    s     0.053863    0.992554    0.497856    0.000000
   191  O2    s     0.988659    0.071907    0.827418    0.000000
   192  O3    s     0.916161    0.931316    0.171944    0.000000
   193  O2    s     0.331825    0.575660    0.330334    0.000000
   194  O2    s     0.399650    0.762740    0.662790    0.000000
   195  O2    s     0.217351    0.638069    0.994591    0.000000
   196  O2    s     0.639893    0.411139    0.831126    0.000000
   197  O2    s     0.565393    0.231639    0.170252    0.000000
   198  O2    s     0.744214    0.345747    0.499259    0.000000
   199  O3    s     0.570544    0.347250    0.996745    0.000000
   200  O2    s     0.751865    0.409575    0.665520    0.000000
   201  O2    s     0.630021    0.223013    0.334663    0.000000
   202  O2    s     0.390676    0.638752    0.496994    0.000000
   203  O2    s     0.209994    0.584762    0.164381    0.000000
   204  O2    s     0.342668    0.761973    0.829066    0.000000
   205  O2    s     0.119874    0.219685    0.964387    0.000000
   206  O2    s     0.764349    0.892892    0.300499    0.000000
   207  O2    s     0.079154    0.873114    0.634197    0.000000
   208  O2    s     0.856428    0.775386    0.468386    0.000000
   209  O2    s     0.205837    0.090675    0.799824    0.000000
   210  O3    s     0.886370    0.133881    0.139029    0.000000
   211  O2    s     0.195902    0.110139    0.361606    0.000000
   212  O3    s     0.908453    0.783420    0.022056    0.000000
   213  O2    s     0.865285    0.092691    0.693339    0.000000
   214  O2    s     0.775396    0.876301    0.860648    0.000000
   215  O2    s     0.072931    0.208339    0.528321    0.000000
   216  O2    s     0.103947    0.898791    0.197636    0.000000
   217  O2    s     0.907076    0.836992    0.249757    0.000000
   218  O2    s     0.123337    0.062983    0.580494    0.000000
   219  O2    s     0.927760    0.073690    0.910418    0.000000
   220  O2    s     0.061472    0.138030    0.745464    0.000000
   221  O1    s     0.861492    0.938353    0.081818    0.000000
   222  O2    s     0.049934    0.920132    0.415345    0.000000
   223  O2    s     0.899280    0.192975    0.979412    0.000000
   224  O2    s     0.772039    0.690141    0.315042    0.000000
   225  O2    s     0.280846    0.085787    0.646204    0.000000
   226  O2    s     0.069077    0.786568    0.480783    0.000000
   227  O2    s     0.197934    0.293347    0.810761    0.000000
   228  O3    s     0.673044    0.901136    0.146552    0.000000
   229  O2    s     0.187583    0.898911    0.351490    0.000000
   230  O3    s     0.684768    0.790349    0.015038    0.000000
   231  O2    s     0.078242    0.293164    0.681327    0.000000
   232  O2    s     0.784278    0.087098    0.847010    0.000000
   233  O2    s     0.274835    0.199391    0.515369    0.000000
   234  O2    s     0.885910    0.705069    0.176338    0.000000
   235  O2    s     0.306484    0.647875    0.248050    0.000000
   236  O2    s     0.325605    0.665458    0.580197    0.000000
   237  O2    s     0.315036    0.668230    0.911580    0.000000
   238  O2    s     0.659771    0.339486    0.748062    0.000000
   239  O3    s     0.616678    0.310131    0.086411    0.000000
   240  O2    s     0.651609    0.321025    0.416292    0.000000
   241  O2    s     0.370991    0.341547    0.963339    0.000000
   242  O2    s     0.643332    0.026363    0.301141    0.000000
   243  O2    s     0.947597    0.618410    0.633448    0.000000
   244  O2    s     0.600560    0.651296    0.466111    0.000000
   245  O2    s     0.328255    0.958665    0.798398    0.000000
   246  O2    s     0.012008    0.380980    0.130489    0.000000
   247  O2    s     0.317612    0.364964    0.362102    0.000000
   248  O2    s     0.020781    0.646818    0.026507    0.000000
   249  O2    s     0.609895    0.960709    0.694634    0.000000
   250  O2    s     0.652851    0.623033    0.862439    0.000000
   251  O2    s     0.942432    0.332818    0.529754    0.000000
   252  O2    s     0.357814    0.030678    0.199749    0.000000
   253  O3    s     0.759941    0.285204    0.006931    0.000000
   254  O2    s     0.667733    0.454251    0.346173    0.000000
   255  O2    s     0.519790    0.218291    0.678053    0.000000
   256  O2    s     0.201241    0.680454    0.511252    0.000000
   257  O2    s     0.304785    0.532344    0.841825    0.000000
   258  O2    s     0.442006    0.772394    0.178838    0.000000
   259  O2    s     0.292454    0.766908    0.318550    0.000000
   260  O2    s     0.452686    0.687584    0.981716    0.000000
   261  O2    s     0.208877    0.530203    0.649971    0.000000
   262  O2    s     0.678625    0.219612    0.816863    0.000000
   263  O2    s     0.512223    0.304751    0.484739    0.000000
   264  O2    s     0.751217    0.466227    0.147360    0.000000
   265  O3    s     0.778200    0.542094    0.018987    0.000000
   266  O2    s     0.447145    0.246789    0.362588    0.000000
   267  O2    s     0.729712    0.207444    0.694590    0.000000
   268  O2    s     0.189364    0.459700    0.527966    0.000000
   269  O2    s     0.524412    0.742580    0.861276    0.000000
   270  O2    s     0.234098    0.782321    0.197970    0.000000
   271  O2    s     0.513220    0.779468    0.299714    0.000000
   272  O2    s     0.247632    0.466635    0.963797    0.000000
   273  O2    s     0.194615    0.737331    0.633376    0.000000
   274  O2    s     0.457164    0.205895    0.800216    0.000000
   275  O2    s     0.720503    0.524921    0.468652    0.000000
   276  O2    s     0.765305    0.259306    0.133073    0.000000
   277  O2    s     0.235021    0.333930    0.893393    0.000000
   278  O2    s     0.648803    0.902669    0.229759    0.000000
   279  O2    s     0.072738    0.751623    0.563584    0.000000
   280  O2    s     0.737158    0.655770    0.397720    0.000000
   281  O2    s     0.319961    0.086420    0.729291    0.000000
   282  O2    s     0.881204    0.230499    0.064222    0.000000
   283  O2    s     0.311116    0.233134    0.432232    0.000000
   284  O2    s     0.876215    0.656528    0.092550    0.000000
   285  O2    s     0.747430    0.089722    0.764336    0.000000
   286  O2    s     0.660155    0.758157    0.932232    0.000000
   287  O2    s     0.074365    0.328017    0.598746    0.000000
   288  O2    s     0.224182    0.901906    0.268967    0.000000
   289  O2    s     0.571499    0.558131    0.985064    0.000000
   290  O2    s     0.425296    0.011598    0.321895    0.000000
   291  O2    s     0.962407    0.414427    0.652147    0.000000
   292  O2    s     0.394856    0.433440    0.484766    0.000000
   293  O2    s     0.547667    0.972958    0.816728    0.000000
   294  O2    s     0.998749    0.582984    0.143872    0.000000
   295  O2    s     0.536378    0.570118    0.344180    0.000000
   296  O2    s     0.003807    0.428243    0.011178    0.000000
   297  O2    s     0.402826    0.971883    0.675854    0.000000
   298  O2    s     0.435376    0.416969    0.842804    0.000000
   299  O2    s     0.954578    0.551043    0.511070    0.000000
   300  O2    s     0.563208    0.021223    0.179245    0.000000
   301  O2    s     0.559401    0.145967    0.251832    0.000000
   302  O2    s     0.827701    0.416892    0.582176    0.000000
   303  O2    s     0.574394    0.426606    0.914104    0.000000
   304  O2    s     0.409412    0.841890    0.746033    0.000000
   305  O2    s     0.135924    0.571078    0.078971    0.000000
   306  O2    s     0.398887    0.565739    0.413891    0.000000
   307  F     s     0.432754    0.894865    0.248372    0.000000
   308  F     s     0.078841    0.542076    0.580514    0.000000
   309  F     s     0.443194    0.554024    0.912978    0.000000
   310  F     s     0.535890    0.092540    0.746387    0.000000
   311  F     s     0.834367    0.429217    0.068392    0.000000
   312  F     s     0.526004    0.442325    0.414257    0.000000
--------------------------------------------------------------------------------

  Final Cartesian lattice vectors (Angstroms) :

       11.954319    0.000778   -0.011093
       -6.063374   10.402943    0.005577
       -0.127662   -0.287408   29.481142


  Final cell parameters and derivatives :

--------------------------------------------------------------------------------
       a           11.954324 Angstrom     dE/de1(xx)     0.000968 eV/strain
       b           12.041003 Angstrom     dE/de2(yy)     0.000769 eV/strain
       c           29.482819 Angstrom     dE/de3(zz)     0.001126 eV/strain
       alpha       90.331091 Degrees      dE/de4(yz)    -0.000340 eV/strain
       beta        90.301297 Degrees      dE/de5(xz)    -0.000005 eV/strain
       gamma      120.232129 Degrees      dE/de6(xy)    -0.000199 eV/strain
--------------------------------------------------------------------------------

  Primitive cell volume =          3666.401837 Angs**3

  Density of cell =      1.745060 g/cm**3

  Non-primitive cell volume =          3666.401837 Angs**3


  Final internal derivatives :

--------------------------------------------------------------------------------
   No.  Atomic          a             b             c           Radius
        Label          (eV)          (eV)          (eV)        (eV/Angs)
--------------------------------------------------------------------------------
      1 Ge    c       0.000000      0.000000      0.000000      0.000000
      2 Si    c      -0.000402      0.000378      0.000482      0.000000
      3 Si    c      -0.000056     -0.000103     -0.000218      0.000000
      4 Si    c      -0.000039     -0.000034     -0.000270      0.000000
      5 Si    c       0.000278     -0.000316     -0.000175      0.000000
      6 Si    c       0.000384     -0.000017     -0.000199      0.000000
      7 Si    c       0.000117      0.000584     -0.000403      0.000000
      8 Si    c       0.000142     -0.000112      0.000544      0.000000
      9 Si    c      -0.000144      0.000046      0.000553      0.000000
     10 Si    c      -0.000058     -0.000383     -0.000171      0.000000
     11 Si    c      -0.000112      0.000024      0.000068      0.000000
     12 Si    c       0.000202     -0.000117      0.002213      0.000000
     13 Si    c      -0.001878      0.000889     -0.001053      0.000000
     14 Si    c      -0.000138     -0.000403     -0.000078      0.000000
     15 Si    c       0.000060     -0.000026      0.000404      0.000000
     16 Si    c       0.000050      0.000019     -0.000134      0.000000
     17 Si    c       0.000064      0.000004      0.000023      0.000000
     18 Si    c       0.000116      0.000254     -0.000281      0.000000
     19 Si    c       0.000436     -0.000334      0.000820      0.000000
     20 Si    c      -0.000019      0.000031      0.000049      0.000000
     21 Si    c       0.000078      0.000160      0.000308      0.000000
     22 Si    c      -0.000589      0.000353     -0.000412      0.000000
     23 Si    c       0.000104     -0.000036     -0.000057      0.000000
     24 Si    c      -0.000511     -0.000470      0.001065      0.000000
     25 Si    c       0.000138      0.000169     -0.000608      0.000000
     26 Si    c      -0.000355      0.000002     -0.000331      0.000000
     27 Si    c       0.000002     -0.000029     -0.000032      0.000000
     28 Si    c      -0.000155     -0.000081      0.000151      0.000000
     29 Si    c       0.000189     -0.000037     -0.000281      0.000000
     30 Si    c       0.000861      0.000035     -0.001993      0.000000
     31 Si    c       0.000146     -0.000056     -0.000143      0.000000
     32 Si    c       0.000480     -0.000621      0.000878      0.000000
     33 Si    c      -0.000289      0.000147      0.000163      0.000000
     34 Si    c      -0.000569      0.000236      0.000048      0.000000
     35 Si    c      -0.000071      0.000190     -0.000063      0.000000
     36 Si    c       0.000353     -0.000082      0.000386      0.000000
     37 Si    c      -0.000008      0.000121      0.000791      0.000000
     38 Si    c      -0.000343      0.000002      0.000625      0.000000
     39 Si    c       0.000063     -0.000112      0.000135      0.000000
     40 Si    c      -0.000097     -0.000058     -0.000100      0.000000
     41 Si    c       0.000178      0.000017      0.000490      0.000000
     42 Si    c      -0.000037      0.000494     -0.000480      0.000000
     43 Si    c       0.000269     -0.000059     -0.000040      0.000000
     44 Si    c       0.000875     -0.000585     -0.000243      0.000000
     45 Si    c      -0.000141      0.000052     -0.000215      0.000000
     46 Si    c      -0.000297      0.000164     -0.000910      0.000000
     47 Si    c      -0.000013      0.000051     -0.000120      0.000000
     48 Si    c       0.000380     -0.000126     -0.000221      0.000000
     49 Si    c       0.000491      0.000868     -0.001524      0.000000
     50 Si    c       0.000055      0.000162     -0.000899      0.000000
     51 Si    c       0.000045     -0.000048     -0.000110      0.000000
     52 Si    c      -0.000080      0.000006      0.000853      0.000000
     53 Si    c      -0.000083      0.000131      0.000184      0.000000
     54 Ge    c      -0.000605     -0.000022      0.002077      0.000000
     55 Si    c      -0.000077      0.000049      0.000704      0.000000
     56 Ge    c      -0.001139      0.000571     -0.000354      0.000000
     57 Si    c      -0.000106      0.000018     -0.001227      0.000000
     58 Si    c       0.000484     -0.000128      0.002037      0.000000
     59 Si    c      -0.000019     -0.000003     -0.000397      0.000000
     60 Si    c       0.000186      0.000240     -0.001019      0.000000
     61 O3    c       0.000752     -0.001330     -0.000374      0.000000
     62 O2    c      -0.000205      0.000155     -0.000290      0.000000
     63 O2    c      -0.000185      0.000151      0.000352      0.000000
     64 O2    c       0.000015     -0.000022     -0.000019      0.000000
     65 O2    c       0.000055      0.000025      0.000093      0.000000
     66 O3    c       0.000298      0.000030      0.002306      0.000000
     67 O2    c      -0.000210     -0.000094      0.000169      0.000000
     68 O2    c       0.000025     -0.000205     -0.000289      0.000000
     69 O2    c       0.000115      0.000006     -0.000337      0.000000
     70 O2    c       0.000182     -0.000019     -0.000135      0.000000
     71 O2    c      -0.000619      0.001023     -0.001037      0.000000
     72 O2    c      -0.000127      0.000053     -0.000204      0.000000
     73 O3    c      -0.000090     -0.001754      0.003606      0.000000
     74 O2    c       0.000031      0.000059     -0.000211      0.000000
     75 O2    c       0.000157      0.000150      0.000382      0.000000
     76 O2    c      -0.000027     -0.000003      0.000027      0.000000
     77 O2    c      -0.000086     -0.000228     -0.000810      0.000000
     78 O2    c      -0.000053      0.000069     -0.000135      0.000000
     79 O2    c      -0.000474     -0.000214     -0.000245      0.000000
     80 O2    c       0.000073     -0.000022      0.000181      0.000000
     81 O2    c      -0.000002     -0.000010      0.000058      0.000000
     82 O2    c       0.000006      0.000058      0.000057      0.000000
     83 O2    c       0.000140     -0.000111      0.000155      0.000000
     84 O3    c       0.000030      0.000794      0.001326      0.000000
     85 O2    c       0.000026      0.000165     -0.000140      0.000000
     86 O3    c       0.001650     -0.000979     -0.001700      0.000000
     87 O2    c      -0.000041     -0.000012     -0.000092      0.000000
     88 O2    c      -0.000010      0.000326      0.000088      0.000000
     89 O2    c      -0.000058      0.000039      0.000013      0.000000
     90 O2    c      -0.000088      0.000103     -0.000420      0.000000
     91 O2    c      -0.000464     -0.000048      0.003819      0.000000
     92 O2    c       0.000039     -0.000092      0.000514      0.000000
     93 O2    c      -0.000398     -0.000224     -0.003180      0.000000
     94 O2    c       0.000394     -0.000245      0.002075      0.000000
     95 O1    c       0.001687     -0.000498     -0.003275      0.000000
     96 O2    c       0.000132      0.000171     -0.001668      0.000000
     97 O2    c      -0.000392      0.000625      0.000513      0.000000
     98 O2    c      -0.000077     -0.000300      0.000201      0.000000
     99 O2    c       0.000056     -0.000001     -0.000044      0.000000
    100 O2    c       0.000068     -0.000049      0.000008      0.000000
    101 O2    c       0.000003     -0.000057     -0.000081      0.000000
    102 O3    c      -0.000191     -0.000060     -0.000301      0.000000
    103 O2    c       0.000336     -0.000281     -0.000151      0.000000
    104 O3    c      -0.000005      0.000226      0.000699      0.000000
    105 O2    c       0.000018      0.000079      0.000081      0.000000
    106 O2    c      -0.000032      0.000052     -0.000137      0.000000
    107 O2    c       0.000037     -0.000001      0.000027      0.000000
    108 O2    c      -0.000243     -0.000300      0.000218      0.000000
    109 O2    c       0.000017     -0.000132      0.000155      0.000000
    110 O2    c       0.000129     -0.000041     -0.000463      0.000000
    111 O2    c      -0.000077      0.000095     -0.000238      0.000000
    112 O2    c       0.000011      0.000068     -0.000022      0.000000
    113 O3    c      -0.001896     -0.000108     -0.001413      0.000000
    114 O2    c      -0.000007      0.000003      0.000163      0.000000
    115 O2    c       0.000163     -0.000071      0.000195      0.000000
    116 O2    c       0.000060     -0.000093      0.000092      0.000000
    117 O2    c       0.000021      0.000033      0.000019      0.000000
    118 O2    c       0.000018     -0.000024     -0.000055      0.000000
    119 O2    c      -0.000041      0.000055      0.000046      0.000000
    120 O2    c      -0.000193     -0.000412     -0.000189      0.000000
    121 O2    c       0.000030     -0.000084     -0.000035      0.000000
    122 O2    c      -0.000588      0.000367      0.000093      0.000000
    123 O2    c      -0.000025      0.000037      0.000038      0.000000
    124 O2    c      -0.000030      0.000050     -0.000159      0.000000
    125 O2    c       0.000011     -0.000002      0.000030      0.000000
    126 O2    c       0.000052     -0.000065     -0.000069      0.000000
    127 O3    c      -0.000244      0.000164     -0.000998      0.000000
    128 O2    c      -0.000070      0.000081     -0.000009      0.000000
    129 O2    c      -0.000031     -0.000087      0.000074      0.000000
    130 O2    c       0.000009     -0.000009      0.000006      0.000000
    131 O2    c       0.000088     -0.000088      0.000161      0.000000
    132 O2    c      -0.000048      0.000112      0.000108      0.000000
    133 O2    c      -0.000013      0.000090     -0.000002      0.000000
    134 O2    c       0.000100     -0.000118     -0.000190      0.000000
    135 O2    c      -0.000026     -0.000019      0.000042      0.000000
    136 O2    c      -0.000014     -0.000036     -0.000030      0.000000
    137 O2    c      -0.000095      0.000071     -0.000098      0.000000
    138 O2    c      -0.000193     -0.000136      0.000234      0.000000
    139 O3    c       0.001129      0.000398     -0.000260      0.000000
    140 O2    c      -0.000042      0.000014      0.000141      0.000000
    141 O2    c      -0.000012     -0.000009      0.000034      0.000000
    142 O2    c      -0.000023      0.000009      0.000048      0.000000
    143 O2    c       0.000130     -0.000139      0.000292      0.000000
    144 O2    c      -0.000206      0.000285      0.000005      0.000000
    145 O2    c      -0.000020      0.000076     -0.000088      0.000000
    146 O2    c       0.000111     -0.000150     -0.000195      0.000000
    147 O2    c      -0.000010      0.000037      0.000068      0.000000
    148 O2    c       0.000022     -0.000035     -0.000067      0.000000
    149 O2    c      -0.000060      0.000083     -0.000102      0.000000
    150 O2    c       0.000418     -0.000329      0.000163      0.000000
    151 O2    c      -0.000187     -0.000087      0.000244      0.000000
    152 O2    c       0.000236     -0.000085      0.000083      0.000000
    153 O2    c       0.000011      0.000016     -0.000121      0.000000
    154 O2    c      -0.000020      0.000017      0.000146      0.000000
    155 O2    c      -0.000108      0.000034     -0.000232      0.000000
    156 O2    c       0.000186     -0.000110      0.003783      0.000000
    157 O2    c       0.000038      0.000001      0.000117      0.000000
    158 O2    c       0.000282      0.000344     -0.005028      0.000000
    159 O2    c       0.000119     -0.000043     -0.000226      0.000000
    160 O2    c       0.000046      0.000106      0.000370      0.000000
    161 O2    c       0.000016     -0.000050     -0.000030      0.000000
    162 O2    c      -0.000250      0.000109     -0.000262      0.000000
    163 O2    c      -0.000182     -0.000002     -0.000117      0.000000
    164 O2    c      -0.000037     -0.000012      0.000007      0.000000
    165 O2    c      -0.000000      0.000011     -0.000018      0.000000
    166 O2    c       0.000019     -0.000042      0.000020      0.000000
    167 O2    c       0.000009      0.000005     -0.000011      0.000000
    168 O2    c       0.000241     -0.000190     -0.000179      0.000000
    169 O2    c       0.000037      0.000029      0.000019      0.000000
    170 O2    c      -0.000001     -0.000007     -0.000158      0.000000
    171 O2    c      -0.000062      0.000086      0.000007      0.000000
    172 O2    c      -0.000036     -0.000003      0.000118      0.000000
    173 O2    c       0.000022      0.000006      0.000040      0.000000
    174 O2    c       0.000076     -0.000143     -0.000080      0.000000
    175 O2    c       0.000011      0.000144     -0.000012      0.000000
    176 O2    c      -0.000056     -0.000034     -0.000410      0.000000
    177 O2    c      -0.000005     -0.000175     -0.000496      0.000000
    178 O2    c      -0.000025     -0.000032      0.000003      0.000000
    179 O2    c      -0.000004     -0.000052      0.000380      0.000000
    180 O2    c       0.000035     -0.000010      0.000112      0.000000
    181 F     c       0.000011     -0.000009      0.000047      0.000000
    182 F     c       0.000014      0.000020      0.000240      0.000000
    183 F     c      -0.000003     -0.000034     -0.000113      0.000000
    184 F     c       0.000005     -0.000023      0.000150      0.000000
    185 F     c       0.000409     -0.000140      0.000934      0.000000
    186 F     c      -0.000004     -0.000004     -0.000149      0.000000
    187 O3    s      -0.000141      0.000590     -0.000902      0.000000
    188 O2    s       0.000045     -0.000049     -0.000233      0.000000
    189 O2    s       0.000076     -0.000091     -0.000245      0.000000
    190 O2    s      -0.000052      0.000037      0.000087      0.000000
    191 O2    s      -0.000150     -0.000075      0.000500      0.000000
    192 O3    s      -0.000050      0.000089     -0.000373      0.000000
    193 O2    s       0.000120     -0.000025     -0.000144      0.000000
    194 O2    s      -0.000005      0.000147     -0.000020      0.000000
    195 O2    s       0.000094     -0.000352     -0.000121      0.000000
    196 O2    s       0.000017      0.000041     -0.000081      0.000000
    197 O2    s       0.000606     -0.000662      0.000547      0.000000
    198 O2    s       0.000018      0.000039     -0.000001      0.000000
    199 O3    s       0.001434      0.000951     -0.002253      0.000000
    200 O2    s      -0.000007     -0.000062      0.000163      0.000000
    201 O2    s      -0.000098     -0.000025      0.000111      0.000000
    202 O2    s       0.000030     -0.000039      0.000057      0.000000
    203 O2    s      -0.000356      0.000437      0.000229      0.000000
    204 O2    s       0.000001     -0.000004      0.000190      0.000000
    205 O2    s       0.000134      0.000012     -0.000457      0.000000
    206 O2    s       0.000000      0.000007     -0.000618      0.000000
    207 O2    s      -0.000014     -0.000035     -0.000060      0.000000
    208 O2    s      -0.000112     -0.000033     -0.000034      0.000000
    209 O2    s      -0.000077      0.000017     -0.000322      0.000000
    210 O3    s      -0.000391      0.000506     -0.001332      0.000000
    211 O2    s      -0.000023      0.000080      0.000255      0.000000
    212 O3    s      -0.000806     -0.000576      0.002029      0.000000
    213 O2    s      -0.000137     -0.000030      0.000171      0.000000
    214 O2    s      -0.000036      0.000361      0.000522      0.000000
    215 O2    s      -0.000058      0.000053     -0.000065      0.000000
    216 O2    s       0.000141      0.000189      0.000492      0.000000
    217 O2    s       0.000210      0.000086     -0.000459      0.000000
    218 O2    s       0.000002      0.000027     -0.000162      0.000000
    219 O2    s      -0.000058     -0.000127      0.000029      0.000000
    220 O2    s      -0.000182      0.000085     -0.000133      0.000000
    221 O1    s      -0.000972      0.000267      0.001411      0.000000
    222 O2    s      -0.000041     -0.000159      0.000507      0.000000
    223 O2    s      -0.000238      0.000068      0.000430      0.000000
    224 O2    s      -0.000114      0.000131      0.000196      0.000000
    225 O2    s       0.000033      0.000002      0.000041      0.000000
    226 O2    s       0.000057     -0.000070      0.000103      0.000000
    227 O2    s      -0.000091      0.000003     -0.000229      0.000000
    228 O3    s      -0.000296      0.000046      0.000406      0.000000
    229 O2    s      -0.000065     -0.000033      0.000137      0.000000
    230 O3    s       0.000111     -0.000271     -0.000660      0.000000
    231 O2    s      -0.000001      0.000086     -0.000198      0.000000
    232 O2    s       0.000185     -0.000319      0.000796      0.000000
    233 O2    s       0.000061      0.000005     -0.000132      0.000000
    234 O2    s       0.000267     -0.000342     -0.000266      0.000000
    235 O2    s      -0.000038      0.000091     -0.000440      0.000000
    236 O2    s      -0.000116      0.000016      0.000276      0.000000
    237 O2    s       0.000065     -0.000068      0.000247      0.000000
    238 O2    s       0.000036     -0.000051     -0.000155      0.000000
    239 O3    s       0.002030      0.000343     -0.000576      0.000000
    240 O2    s      -0.000017      0.000103     -0.000022      0.000000
    241 O2    s      -0.000257      0.000195     -0.000236      0.000000
    242 O2    s       0.000059      0.000010     -0.000316      0.000000
    243 O2    s      -0.000049     -0.000028     -0.000142      0.000000
    244 O2    s      -0.000004     -0.000017      0.000104      0.000000
    245 O2    s       0.000022     -0.000031     -0.000161      0.000000
    246 O2    s      -0.000420      0.000289     -0.000903      0.000000
    247 O2    s      -0.000077      0.000031      0.000106      0.000000
    248 O2    s      -0.000666     -0.000125      0.001119      0.000000
    249 O2    s       0.000076     -0.000035     -0.000008      0.000000
    250 O2    s       0.000165     -0.000025      0.000325      0.000000
    251 O2    s      -0.000010      0.000001     -0.000032      0.000000
    252 O2    s      -0.000130      0.000093      0.000406      0.000000
    253 O3    s      -0.000459      0.000329      0.001616      0.000000
    254 O2    s       0.000071     -0.000020      0.000239      0.000000
    255 O2    s      -0.000008      0.000038      0.000120      0.000000
    256 O2    s       0.000005     -0.000007      0.000071      0.000000
    257 O2    s      -0.000087      0.000072      0.000003      0.000000
    258 O2    s       0.000083     -0.000152      0.000186      0.000000
    259 O2    s      -0.000060     -0.000012     -0.000236      0.000000
    260 O2    s      -0.000110      0.000111     -0.000041      0.000000
    261 O2    s       0.000048      0.000028     -0.000232      0.000000
    262 O2    s       0.000086     -0.000070     -0.000200      0.000000
    263 O2    s       0.000043     -0.000018      0.000007      0.000000
    264 O2    s       0.000051     -0.000155     -0.000333      0.000000
    265 O3    s      -0.000029     -0.000629      0.004180      0.000000
    266 O2    s       0.000048      0.000052     -0.000108      0.000000
    267 O2    s      -0.000006      0.000022      0.000011      0.000000
    268 O2    s       0.000027      0.000007     -0.000006      0.000000
    269 O2    s       0.000036      0.000133     -0.000222      0.000000
    270 O2    s       0.000189     -0.000262     -0.000037      0.000000
    271 O2    s       0.000044     -0.000020     -0.000106      0.000000
    272 O2    s      -0.000174      0.000311      0.000245      0.000000
    273 O2    s       0.000065     -0.000109     -0.000216      0.000000
    274 O2    s      -0.000006      0.000006     -0.000041      0.000000
    275 O2    s       0.000041     -0.000070     -0.000057      0.000000
    276 O2    s       0.000304      0.000181     -0.001830      0.000000
    277 O2    s       0.000161      0.000007      0.000138      0.000000
    278 O2    s      -0.000236      0.000038      0.000140      0.000000
    279 O2    s      -0.000032     -0.000019      0.000005      0.000000
    280 O2    s       0.000075     -0.000088     -0.000149      0.000000
    281 O2    s       0.000115     -0.000022      0.000132      0.000000
    282 O2    s      -0.000218     -0.000136     -0.000248      0.000000
    283 O2    s      -0.000053      0.000075     -0.000074      0.000000
    284 O2    s      -0.000455     -0.000264     -0.001401      0.000000
    285 O2    s      -0.000095      0.000031      0.000160      0.000000
    286 O2    s       0.000065     -0.000194     -0.000222      0.000000
    287 O2    s       0.000010      0.000017     -0.000021      0.000000
    288 O2    s       0.000228     -0.000059     -0.000135      0.000000
    289 O2    s       0.000580     -0.000180      0.000261      0.000000
    290 O2    s      -0.000009     -0.000004     -0.000230      0.000000
    291 O2    s      -0.000063      0.000002     -0.000056      0.000000
    292 O2    s      -0.000006      0.000014     -0.000173      0.000000
    293 O2    s       0.000088      0.000028     -0.000087      0.000000
    294 O2    s       0.000338     -0.000236     -0.000322      0.000000
    295 O2    s       0.000033     -0.000094      0.000067      0.000000
    296 O2    s      -0.000141      0.000144      0.000572      0.000000
    297 O2    s       0.000029     -0.000007      0.000068      0.000000
    298 O2    s      -0.000018      0.000043     -0.000071      0.000000
    299 O2    s      -0.000027      0.000014      0.000002      0.000000
    300 O2    s       0.000076      0.000088     -0.000061      0.000000
    301 O2    s      -0.000033     -0.000141      0.000179      0.000000
    302 O2    s       0.000073      0.000042      0.000373      0.000000
    303 O2    s       0.000426      0.000073      0.000683      0.000000
    304 O2    s       0.000025      0.000086      0.000173      0.000000
    305 O2    s      -0.000433      0.000002      0.000514      0.000000
    306 O2    s       0.000079     -0.000127      0.000058      0.000000
    307 F     s      -0.000048      0.000010     -0.000126      0.000000
    308 F     s      -0.000025     -0.000025     -0.000399      0.000000
    309 F     s      -0.000008      0.000096      0.000233      0.000000
    310 F     s       0.000002      0.000039     -0.000259      0.000000
    311 F     s      -0.000161      0.000343     -0.000546      0.000000
    312 F     s       0.000013      0.000011      0.000341      0.000000
--------------------------------------------------------------------------------
  Maximum abs         0.002030      0.001754      0.005028      0.000000
--------------------------------------------------------------------------------


  Time to end of optimisation =       9.0924 seconds


  Peak dynamic memory used =      19.13 MB 


  Timing analysis for GULP :

--------------------------------------------------------------------------------
  Task / Subroutine                                          Time (Seconds)
--------------------------------------------------------------------------------
  Calculation of reciprocal space energy and derivatives          0.3165
  Calculation of real space energy and derivatives                7.4130
  Calculation of three-body energy and derivatives                0.8481
  Calculation of matrix inversion                                 0.2508
--------------------------------------------------------------------------------
  Total CPU time                                                  9.0925
--------------------------------------------------------------------------------


  Dump file written as out.res                                                 
  CIF file written as out.cif                                                 


  Job Finished at 10:12.04 30th November   2016                               

