********************************************************************************
*                       GENERAL UTILITY LATTICE PROGRAM                        *
*                                 Julian Gale                                  *
*                      Nanochemistry Research Institute                        *
*                           Department of Chemistry                            *
*                    Curtin University, Western Australia                      *
********************************************************************************
* Version = 4.2.0 * Last modified =  20th January 2014                         *
********************************************************************************
*  optimise     - perform optimisation run                                     *
*  conp         - constant pressure calculation                                *
*  qok          - running with non charge neutral cell is OK                   *
********************************************************************************

  Job Started  at 06:49.43 30th November   2016                               

  Number of CPUs =     1


  Total number of configurations input =   1

********************************************************************************
*  Input for Configuration =   1                                               *
********************************************************************************

  Formula = Si57Ge3O120F6                                               

  Number of irreducible atoms/shells =     312


  Total number atoms/shells =     312

  Dimensionality = 3               :  Bulk   


  Charge on solid   =  -6.000000 =>neutralising background added


  Cartesian lattice vectors (Angstroms) :

       11.987499    0.000000    0.000000
       -5.951368   10.354496    0.000000
       -0.180255   -0.070011   29.519377

  Cell parameters (Angstroms/Degrees):

  a =      11.9875    alpha =  89.9435
  b =      11.9430    beta  =  90.3499
  c =      29.5200    gamma = 119.8886

  Initial cell volume =        3664.078018 Angs**3

  Temperature of configuration =  0.000     K 

  Pressure of configuration =         0.000 GPa 

  Fractional coordinates of asymmetric unit :

--------------------------------------------------------------------------------
   No.  Atomic       x           y          z         Charge      Occupancy
        Label      (Frac)      (Frac)     (Frac)        (e)         (Frac)  
--------------------------------------------------------------------------------
      1 Si    c    0.699600    0.375700    0.033890     4.00000    1.000000    
      2 Si    c    0.620879 *  0.313163 *  0.368713 *   4.00000    1.000000    
      3 Si    c    0.678239 *  0.292923 *  0.699548 *   4.00000    1.000000    
      4 Si    c    0.298122 *  0.620018 *  0.535067 *   4.00000    1.000000    
      5 Si    c    0.380819 *  0.673446 *  0.869158 *   4.00000    1.000000    
      6 Si    c    0.324737 *  0.703155 *  0.203173 *   4.00000    1.000000    
      7 Si    c    0.378341 *  0.699362 *  0.305403 *   4.00000    1.000000    
      8 Si    c    0.329359 *  0.625191 *  0.971483 *   4.00000    1.000000    
      9 Si    c    0.296854 *  0.673531 *  0.635647 *   4.00000    1.000000    
     10 Si    c    0.623864 *  0.293022 *  0.799767 *   4.00000    1.000000    
     11 Si    c    0.673469 *  0.374603 *  0.469979 *   4.00000    1.000000    
     12 Si    c    0.705400 *  0.323150 *  0.134856 *   4.00000    1.000000    
     13 Ge    c    0.536922 *  0.434111 *  0.966506 *   4.00000    1.000000    
     14 Ge    c    0.567473 *  0.093786 *  0.301508 *   4.00000    1.000000    
     15 Si    c    0.888138 *  0.468044 *  0.635623 *   4.00000    1.000000    
     16 Si    c    0.468616 *  0.579426 *  0.470356 *   4.00000    1.000000    
     17 Si    c    0.421338 *  0.883706 *  0.802523 *   4.00000    1.000000    
     18 Si    c    0.115252 *  0.530982 *  0.136473 *   4.00000    1.000000    
     19 Si    c    0.418163 *  0.525087 *  0.369276 *   4.00000    1.000000    
     20 Si    c    0.116119 *  0.584010 *  0.035494 *   4.00000    1.000000    
     21 Si    c    0.471143 *  0.881529 *  0.701111 *   4.00000    1.000000    
     22 Si    c    0.593285 *  0.463297 *  0.867170 *   4.00000    1.000000    
     23 Si    c    0.886311 *  0.415153 *  0.534148 *   4.00000    1.000000    
     24 Si    c    0.533177 *  0.124890 *  0.202523 *   4.00000    1.000000    
     25 Si    c    0.305448 *  0.390593 *  0.856051 *   4.00000    1.000000    
     26 Si    c    0.605444 *  0.909529 *  0.189478 *   4.00000    1.000000    
     27 Si    c    0.095835 *  0.696212 *  0.520494 *   4.00000    1.000000    
     28 Si    c    0.697118 *  0.594276 *  0.355956 *   4.00000    1.000000    
     29 Si    c    0.399331 *  0.091258 *  0.686395 *   4.00000    1.000000    
     30 Si    c    0.905710 *  0.304475 *  0.020832 *   4.00000    1.000000    
     31 Si    c    0.396786 *  0.298799 *  0.484620 *   4.00000    1.000000    
     32 Si    c    0.907030 *  0.601708 *  0.151060 *   4.00000    1.000000    
     33 Si    c    0.701054 *  0.092443 *  0.816284 *   4.00000    1.000000    
     34 Si    c    0.613466 *  0.707890 *  0.987564 *   4.00000    1.000000    
     35 Si    c    0.096028 *  0.395807 *  0.650319 *   4.00000    1.000000    
     36 Si    c    0.295552 *  0.900372 *  0.323553 *   4.00000    1.000000    
     37 Si    c    0.257647 *  0.337275 *  0.958413 *   4.00000    1.000000    
     38 Si    c    0.665477 *  0.911933 *  0.291411 *   4.00000    1.000000    
     39 Si    c    0.088862 *  0.746432 *  0.620992 *   4.00000    1.000000    
     40 Si    c    0.746226 *  0.656321 *  0.456128 *   4.00000    1.000000    
     41 Si    c    0.342789 *  0.084702 *  0.786901 *   4.00000    1.000000    
     42 Si    c    0.915858 *  0.252502 *  0.120741 *   4.00000    1.000000    
     43 Si    c    0.340171 *  0.245842 *  0.383911 *   4.00000    1.000000    
     44 Si    c    0.911943 *  0.657063 *  0.050317 *   4.00000    1.000000    
     45 Si    c    0.750016 *  0.083121 *  0.715834 *   4.00000    1.000000    
     46 Si    c    0.666262 *  0.744115 *  0.884526 *   4.00000    1.000000    
     47 Si    c    0.088516 *  0.338792 *  0.549832 *   4.00000    1.000000    
     48 Si    c    0.254113 *  0.918225 *  0.220578 *   4.00000    1.000000    
     49 Ge    c    0.970397 *  0.120247 *  0.970807 *   4.00000    1.000000    
     50 Si    c    0.877632 *  0.839139 *  0.305182 *   4.00000    1.000000    
     51 Si    c    0.151342 *  0.026876 *  0.636481 *   4.00000    1.000000    
     52 Si    c    0.024777 *  0.875871 *  0.471526 *   4.00000    1.000000    
     53 Si    c    0.124075 *  0.145746 *  0.802814 *   4.00000    1.000000    
     54 Si    c    0.852315 *  0.972465 *  0.139607 *   4.00000    1.000000    
     55 Si    c    0.115596 *  0.966162 *  0.371177 *   4.00000    1.000000    
     56 Si    c    0.856115 *  0.881552 *  0.038945 *   4.00000    1.000000    
     57 Si    c    0.030668 *  0.148647 *  0.701713 *   4.00000    1.000000    
     58 Si    c    0.880385 *  0.022980 *  0.867021 *   4.00000    1.000000    
     59 Si    c    0.150256 *  0.120598 *  0.535804 *   4.00000    1.000000    
     60 Si    c    0.972146 *  0.847310 *  0.204228 *   4.00000    1.000000    
     61 O3    c    0.945548 *  0.002257 *  0.008913 *   1.33043    1.000000    
     62 O2    c    0.995803 *  0.926786 *  0.338080 *   0.87073    1.000000    
     63 O2    c    0.073824 *  0.068205 *  0.670240 *   0.87073    1.000000    
     64 O2    c    0.066566 *  0.995426 *  0.505191 *   0.87073    1.000000    
     65 O2    c    0.001914 *  0.063488 *  0.834556 *   0.87073    1.000000    
     66 O2    c    0.928894 *  0.932001 *  0.174568 *   0.87073    1.000000    
     67 O2    c    0.341558 *  0.574300 *  0.336287 *   0.87073    1.000000    
     68 O2    c    0.420409 *  0.756087 *  0.668688 *   0.87073    1.000000    
     69 O2    c    0.242102 *  0.661379 *  0.003159 *   0.87073    1.000000    
     70 O2    c    0.664103 *  0.420886 *  0.829865 *   0.87073    1.000000    
     71 O2    c    0.578571 *  0.239093 *  0.165291 *   0.87073    1.000000    
     72 O2    c    0.760105 *  0.337161 *  0.502450 *   0.87073    1.000000    
     73 O3    c    0.582962 *  0.343176 *  0.001912 *   1.33043    1.000000    
     74 O2    c    0.761577 *  0.416420 *  0.667343 *   0.87073    1.000000    
     75 O3    c    0.656227 *  0.230090 *  0.337482 *   1.33043    1.000000    
     76 O2    c    0.419890 *  0.657137 *  0.502508 *   0.87073    1.000000    
     77 O2    c    0.240913 *  0.582790 *  0.169743 *   0.87073    1.000000    
     78 O2    c    0.345686 *  0.758092 *  0.835449 *   0.87073    1.000000    
     79 O3    c    0.131378 *  0.220890 *  0.978954 *   1.33043    1.000000    
     80 O2    c    0.784587 *  0.898374 *  0.309582 *   0.87073    1.000000    
     81 O2    c    0.087348 *  0.872329 *  0.640982 *   0.87073    1.000000    
     82 O2    c    0.871526 *  0.783083 *  0.476784 *   0.87073    1.000000    
     83 O2    c    0.215924 *  0.082945 *  0.806971 *   0.87073    1.000000    
     84 O2    c    0.917322 *  0.127421 *  0.141815 *   0.87073    1.000000    
     85 O2    c    0.213343 *  0.118732 *  0.364140 *   0.87073    1.000000    
     86 O2    c    0.908377 *  0.782060 *  0.031129 *   0.87073    1.000000    
     87 O2    c    0.876294 *  0.082923 *  0.696407 *   0.87073    1.000000    
     88 O2    c    0.785648 *  0.868829 *  0.861396 *   0.87073    1.000000    
     89 O2    c    0.088242 *  0.212570 *  0.529593 *   0.87073    1.000000    
     90 O2    c    0.126289 *  0.912094 *  0.199208 *   0.87073    1.000000    
     91 O2    c    0.932896 *  0.851640 *  0.255259 *   0.87073    1.000000    
     92 O2    c    0.138850 *  0.072060 *  0.586899 *   0.87073    1.000000    
     93 O3    c    0.932405 *  0.055794 *  0.917394 *   1.33043    1.000000    
     94 O2    c    0.072849 *  0.140112 *  0.752496 *   0.87073    1.000000    
     95 O2    c    0.864866 *  0.923154 *  0.090852 *   0.87073    1.000000    
     96 O2    c    0.063385 *  0.934327 *  0.421783 *   0.87073    1.000000    
     97 O3    c    0.894692 *  0.206694 *  0.981164 *   1.33043    1.000000    
     98 O2    c    0.798045 *  0.688214 *  0.317762 *   0.87073    1.000000    
     99 O2    c    0.302846 *  0.093658 *  0.648236 *   0.87073    1.000000    
    100 O2    c    0.096359 *  0.794487 *  0.482306 *   0.87073    1.000000    
    101 O2    c    0.206365 *  0.295755 *  0.817647 *   0.87073    1.000000    
    102 O2    c    0.700876 *  0.907990 *  0.151076 *   0.87073    1.000000    
    103 O2    c    0.185472 *  0.883926 *  0.359330 *   0.87073    1.000000    
    104 O2    c    0.707381 *  0.820117 *  0.023029 *   0.87073    1.000000    
    105 O2    c    0.097887 *  0.299519 *  0.688956 *   0.87073    1.000000    
    106 O2    c    0.800642 *  0.095422 *  0.854669 *   0.87073    1.000000    
    107 O2    c    0.300495 *  0.200051 *  0.522832 *   0.87073    1.000000    
    108 O2    c    0.903697 *  0.697933 *  0.189132 *   0.87073    1.000000    
    109 O2    c    0.327698 *  0.651718 *  0.253782 *   0.87073    1.000000    
    110 O2    c    0.354754 *  0.675716 *  0.585610 *   0.87073    1.000000    
    111 O2    c    0.329230 *  0.674336 *  0.919833 *   0.87073    1.000000    
    112 O2    c    0.680564 *  0.349396 *  0.749852 *   0.87073    1.000000    
    113 O2    c    0.649817 *  0.325937 *  0.085212 *   0.87073    1.000000    
    114 O2    c    0.672476 *  0.316085 *  0.420511 *   0.87073    1.000000    
    115 O3    c    0.372101 *  0.320718 *  0.977056 *   1.33043    1.000000    
    116 O3    c    0.683216 *  0.042411 *  0.311078 *   1.33043    1.000000    
    117 O2    c    0.956821 *  0.624432 *  0.639538 *   0.87073    1.000000    
    118 O2    c    0.624465 *  0.667133 *  0.474462 *   0.87073    1.000000    
    119 O2    c    0.334359 *  0.952968 *  0.806052 *   0.87073    1.000000    
    120 O2    c    0.047450 *  0.374682 *  0.140472 *   0.87073    1.000000    
    121 O2    c    0.329191 *  0.368965 *  0.365998 *   0.87073    1.000000    
    122 O2    c    0.047547 *  0.671755 *  0.032929 *   0.87073    1.000000    
    123 O2    c    0.627084 *  0.949427 *  0.698471 *   0.87073    1.000000    
    124 O2    c    0.675935 *  0.621739 *  0.866600 *   0.87073    1.000000    
    125 O2    c    0.956051 *  0.328390 *  0.531570 *   0.87073    1.000000    
    126 O2    c    0.374940 *  0.050310 *  0.202072 *   0.87073    1.000000    
    127 O2    c    0.771077 *  0.300971 *  0.014493 *   0.87073    1.000000    
    128 O2    c    0.696006 *  0.460452 *  0.348937 *   0.87073    1.000000    
    129 O2    c    0.533463 *  0.224219 *  0.678558 *   0.87073    1.000000    
    130 O2    c    0.229411 *  0.695747 *  0.513265 *   0.87073    1.000000    
    131 O2    c    0.307845 *  0.526797 *  0.850251 *   0.87073    1.000000    
    132 O2    c    0.469681 *  0.776518 *  0.183423 *   0.87073    1.000000    
    133 O2    c    0.301288 *  0.766839 *  0.325976 *   0.87073    1.000000    
    134 O2    c    0.475087 *  0.702782 *  0.991040 *   0.87073    1.000000    
    135 O2    c    0.229225 *  0.530328 *  0.658183 *   0.87073    1.000000    
    136 O2    c    0.698165 *  0.225282 *  0.823743 *   0.87073    1.000000    
    137 O2    c    0.531634 *  0.301288 *  0.493030 *   0.87073    1.000000    
    138 O2    c    0.776758 *  0.465213 *  0.158603 *   0.87073    1.000000    
    139 O2    c    0.790603 *  0.532323 *  0.029336 *   0.87073    1.000000    
    140 O2    c    0.464564 *  0.246874 *  0.363929 *   0.87073    1.000000    
    141 O2    c    0.749154 *  0.207770 *  0.695248 *   0.87073    1.000000    
    142 O2    c    0.214339 *  0.464052 *  0.530661 *   0.87073    1.000000    
    143 O2    c    0.534297 *  0.735220 *  0.867501 *   0.87073    1.000000    
    144 O2    c    0.262576 *  0.795444 *  0.202490 *   0.87073    1.000000    
    145 O2    c    0.532468 *  0.788132 *  0.308793 *   0.87073    1.000000    
    146 O2    c    0.265871 *  0.471294 *  0.974884 *   0.87073    1.000000    
    147 O2    c    0.216138 *  0.749147 *  0.640837 *   0.87073    1.000000    
    148 O2    c    0.467944 *  0.212978 *  0.805642 *   0.87073    1.000000    
    149 O2    c    0.748222 *  0.530977 *  0.475431 *   0.87073    1.000000    
    150 O2    c    0.786694 *  0.247523 *  0.139080 *   0.87073    1.000000    
    151 O2    c    0.240115 *  0.322173 *  0.903244 *   0.87073    1.000000    
    152 O2    c    0.675313 *  0.911827 *  0.236399 *   0.87073    1.000000    
    153 O2    c    0.090756 *  0.766139 *  0.566838 *   0.87073    1.000000    
    154 O2    c    0.766406 *  0.673237 *  0.401987 *   0.87073    1.000000    
    155 O2    c    0.324910 *  0.085770 *  0.732726 *   0.87073    1.000000    
    156 O2    c    0.917069 *  0.232749 *  0.066368 *   0.87073    1.000000    
    157 O2    c    0.323597 *  0.227330 *  0.438216 *   0.87073    1.000000    
    158 O2    c    0.908775 *  0.673440 *  0.104551 *   0.87073    1.000000    
    159 O2    c    0.770675 *  0.087887 *  0.770106 *   0.87073    1.000000    
    160 O2    c    0.683011 *  0.765840 *  0.938613 *   0.87073    1.000000    
    161 O2    c    0.091037 *  0.320923 *  0.604096 *   0.87073    1.000000    
    162 O2    c    0.238013 *  0.914815 *  0.274681 *   0.87073    1.000000    
    163 O3    c    0.609877 *  0.578423 *  0.000802 *   1.33043    1.000000    
    164 O3    c    0.426225 *  0.023984 *  0.336726 *   1.33043    1.000000    
    165 O2    c    0.970572 *  0.409322 *  0.659273 *   0.87073    1.000000    
    166 O2    c    0.408440 *  0.437707 *  0.493591 *   0.87073    1.000000    
    167 O2    c    0.563050 *  0.965019 *  0.825636 *   0.87073    1.000000    
    168 O2    c    0.035577 *  0.592491 *  0.159849 *   0.87073    1.000000    
    169 O2    c    0.558866 *  0.583283 *  0.346096 *   0.87073    1.000000    
    170 O2    c    0.032875 *  0.443282 *  0.011604 *   0.87073    1.000000    
    171 O2    c    0.414476 *  0.966281 *  0.678101 *   0.87073    1.000000    
    172 O2    c    0.446208 *  0.409530 *  0.848332 *   0.87073    1.000000    
    173 O2    c    0.971324 *  0.556539 *  0.511427 *   0.87073    1.000000    
    174 O2    c    0.584769 *  0.031030 *  0.182570 *   0.87073    1.000000    
    175 O3    c    0.588407 *  0.186737 *  0.250666 *   1.33043    1.000000    
    176 O2    c    0.834751 *  0.416060 *  0.584926 *   0.87073    1.000000    
    177 O3    c    0.603629 *  0.410041 *  0.915269 *   1.33043    1.000000    
    178 O2    c    0.418681 *  0.828562 *  0.752009 *   0.87073    1.000000    
    179 O2    c    0.172122 *  0.584280 *  0.086083 *   0.87073    1.000000    
    180 O2    c    0.416305 *  0.581191 *  0.419412 *   0.87073    1.000000    
    181 F     c    0.475401 *  0.947704 *  0.264201 *   0.56000    1.000000    
    182 F     c    0.095672 *  0.547010 *  0.586558 *   0.56000    1.000000    
    183 F     c    0.479500 *  0.525495 *  0.929177 *   0.56000    1.000000    
    184 F     c    0.549227 *  0.089760 *  0.752728 *   0.56000    1.000000    
    185 F     c    0.916653 *  0.452793 *  0.086613 *   0.56000    1.000000    
    186 F     c    0.544448 *  0.452420 *  0.421098 *   0.56000    1.000000    
    187 O3    s    0.937878 *  0.999268 *  0.008886 *  -3.33043    1.000000    
    188 O2    s    0.996074 *  0.921356 *  0.338119 *  -2.87073    1.000000    
    189 O2    s    0.077583 *  0.072665 *  0.670033 *  -2.87073    1.000000    
    190 O2    s    0.071314 *  0.996130 *  0.504871 *  -2.87073    1.000000    
    191 O2    s    0.002251 *  0.068209 *  0.834561 *  -2.87073    1.000000    
    192 O2    s    0.925194 *  0.927134 *  0.173968 *  -2.87073    1.000000    
    193 O2    s    0.353103 *  0.582666 *  0.336286 *  -2.87073    1.000000    
    194 O2    s    0.413171 *  0.760809 *  0.668714 *  -2.87073    1.000000    
    195 O2    s    0.238758 *  0.649956 *  0.003040 *  -2.87073    1.000000    
    196 O2    s    0.652626 *  0.411931 *  0.830557 *  -2.87073    1.000000    
    197 O2    s    0.587046 *  0.236035 *  0.165963 *  -2.87073    1.000000    
    198 O2    s    0.764561 *  0.349136 *  0.502484 *  -2.87073    1.000000    
    199 O3    s    0.592763 *  0.353046 *  0.003018 *  -3.33043    1.000000    
    200 O2    s    0.765773 *  0.408775 *  0.667485 *  -2.87073    1.000000    
    201 O3    s    0.646230 *  0.229980 *  0.338482 *  -3.33043    1.000000    
    202 O2    s    0.412129 *  0.645425 *  0.502661 *  -2.87073    1.000000    
    203 O2    s    0.237381 *  0.590462 *  0.170007 *  -2.87073    1.000000    
    204 O2    s    0.356910 *  0.761595 *  0.835759 *  -2.87073    1.000000    
    205 O3    s    0.130776 *  0.224542 *  0.976069 *  -3.33043    1.000000    
    206 O2    s    0.781933 *  0.893120 *  0.307097 *  -2.87073    1.000000    
    207 O2    s    0.094336 *  0.875849 *  0.638471 *  -2.87073    1.000000    
    208 O2    s    0.875065 *  0.780003 *  0.474135 *  -2.87073    1.000000    
    209 O2    s    0.219211 *  0.089765 *  0.804504 *  -2.87073    1.000000    
    210 O2    s    0.910212 *  0.123643 *  0.139441 *  -2.87073    1.000000    
    211 O2    s    0.215944 *  0.115553 *  0.366878 *  -2.87073    1.000000    
    212 O2    s    0.903176 *  0.779439 *  0.033966 *  -2.87073    1.000000    
    213 O2    s    0.879506 *  0.089857 *  0.698954 *  -2.87073    1.000000    
    214 O2    s    0.783045 *  0.871898 *  0.864382 *  -2.87073    1.000000    
    215 O2    s    0.094869 *  0.215925 *  0.532340 *  -2.87073    1.000000    
    216 O2    s    0.123323 *  0.905898 *  0.201937 *  -2.87073    1.000000    
    217 O2    s    0.931169 *  0.849723 *  0.255019 *  -2.87073    1.000000    
    218 O2    s    0.141552 *  0.072314 *  0.586842 *  -2.87073    1.000000    
    219 O3    s    0.930071 *  0.057828 *  0.916594 *  -3.33043    1.000000    
    220 O2    s    0.073960 *  0.141677 *  0.752557 *  -2.87073    1.000000    
    221 O2    s    0.862451 *  0.924137 *  0.090607 *  -2.87073    1.000000    
    222 O2    s    0.064926 *  0.931297 *  0.421678 *  -2.87073    1.000000    
    223 O3    s    0.902155 *  0.208624 *  0.984029 *  -3.33043    1.000000    
    224 O2    s    0.796479 *  0.695066 *  0.320245 *  -2.87073    1.000000    
    225 O2    s    0.296795 *  0.086307 *  0.650962 *  -2.87073    1.000000    
    226 O2    s    0.088755 *  0.792992 *  0.485079 *  -2.87073    1.000000    
    227 O2    s    0.207990 *  0.289788 *  0.820080 *  -2.87073    1.000000    
    228 O2    s    0.706865 *  0.914899 *  0.153839 *  -2.87073    1.000000    
    229 O2    s    0.189189 *  0.894119 *  0.356973 *  -2.87073    1.000000    
    230 O2    s    0.713228 *  0.815196 *  0.021073 *  -2.87073    1.000000    
    231 O2    s    0.090485 *  0.293122 *  0.686399 *  -2.87073    1.000000    
    232 O2    s    0.798971 *  0.087563 *  0.852104 *  -2.87073    1.000000    
    233 O2    s    0.294135 *  0.201513 *  0.520362 *  -2.87073    1.000000    
    234 O2    s    0.911402 *  0.704075 *  0.186825 *  -2.87073    1.000000    
    235 O2    s    0.332483 *  0.661843 *  0.253724 *  -2.87073    1.000000    
    236 O2    s    0.343098 *  0.669851 *  0.585611 *  -2.87073    1.000000    
    237 O2    s    0.334543 *  0.669367 *  0.919779 *  -2.87073    1.000000    
    238 O2    s    0.674425 *  0.337621 *  0.749824 *  -2.87073    1.000000    
    239 O2    s    0.660867 *  0.330714 *  0.085335 *  -2.87073    1.000000    
    240 O2    s    0.667455 *  0.321993 *  0.420656 *  -2.87073    1.000000    
    241 O3    s    0.371391 *  0.330480 *  0.974279 *  -3.33043    1.000000    
    242 O3    s    0.673509 *  0.031827 *  0.308290 *  -3.33043    1.000000    
    243 O2    s    0.963461 *  0.621004 *  0.637209 *  -2.87073    1.000000    
    244 O2    s    0.621128 *  0.656998 *  0.472125 *  -2.87073    1.000000    
    245 O2    s    0.344204 *  0.959399 *  0.803710 *  -2.87073    1.000000    
    246 O2    s    0.040957 *  0.378273 *  0.138024 *  -2.87073    1.000000    
    247 O2    s    0.339474 *  0.372443 *  0.368184 *  -2.87073    1.000000    
    248 O2    s    0.040967 *  0.661217 *  0.034961 *  -2.87073    1.000000    
    249 O2    s    0.623961 *  0.956430 *  0.700573 *  -2.87073    1.000000    
    250 O2    s    0.666807 *  0.619346 *  0.868599 *  -2.87073    1.000000    
    251 O2    s    0.962842 *  0.338425 *  0.533777 *  -2.87073    1.000000    
    252 O2    s    0.377476 *  0.043597 *  0.204080 *  -2.87073    1.000000    
    253 O2    s    0.778508 *  0.309153 *  0.017270 *  -2.87073    1.000000    
    254 O2    s    0.688618 *  0.460477 *  0.351721 *  -2.87073    1.000000    
    255 O2    s    0.534287 *  0.217285 *  0.681590 *  -2.87073    1.000000    
    256 O2    s    0.222396 *  0.688019 *  0.516299 *  -2.87073    1.000000    
    257 O2    s    0.315264 *  0.528111 *  0.852854 *  -2.87073    1.000000    
    258 O2    s    0.468706 *  0.782715 *  0.186122 *  -2.87073    1.000000    
    259 O2    s    0.308765 *  0.773256 *  0.323548 *  -2.87073    1.000000    
    260 O2    s    0.473693 *  0.695173 *  0.988610 *  -2.87073    1.000000    
    261 O2    s    0.222123 *  0.530840 *  0.655013 *  -2.87073    1.000000    
    262 O2    s    0.690905 *  0.218110 *  0.820494 *  -2.87073    1.000000    
    263 O2    s    0.531930 *  0.308518 *  0.489769 *  -2.87073    1.000000    
    264 O2    s    0.783377 *  0.465233 *  0.155358 *  -2.87073    1.000000    
    265 O2    s    0.795440 *  0.530791 *  0.032127 *  -2.87073    1.000000    
    266 O2    s    0.466269 *  0.253561 *  0.366604 *  -2.87073    1.000000    
    267 O2    s    0.741728 *  0.203042 *  0.697902 *  -2.87073    1.000000    
    268 O2    s    0.209304 *  0.466793 *  0.533202 *  -2.87073    1.000000    
    269 O2    s    0.531809 *  0.729344 *  0.869526 *  -2.87073    1.000000    
    270 O2    s    0.268498 *  0.798742 *  0.204508 *  -2.87073    1.000000    
    271 O2    s    0.529396 *  0.791358 *  0.306655 *  -2.87073    1.000000    
    272 O2    s    0.272197 *  0.474611 *  0.972830 *  -2.87073    1.000000    
    273 O2    s    0.210743 *  0.740930 *  0.638203 *  -2.87073    1.000000    
    274 O2    s    0.470360 *  0.207215 *  0.803057 *  -2.87073    1.000000    
    275 O2    s    0.740196 *  0.528399 *  0.472815 *  -2.87073    1.000000    
    276 O2    s    0.792280 *  0.255898 *  0.136707 *  -2.87073    1.000000    
    277 O2    s    0.248767 *  0.330923 *  0.903582 *  -2.87073    1.000000    
    278 O2    s    0.666758 *  0.911618 *  0.236881 *  -2.87073    1.000000    
    279 O2    s    0.091074 *  0.756737 *  0.567776 *  -2.87073    1.000000    
    280 O2    s    0.757094 *  0.663304 *  0.402970 *  -2.87073    1.000000    
    281 O2    s    0.334575 *  0.086209 *  0.733694 *  -2.87073    1.000000    
    282 O2    s    0.915911 *  0.241902 *  0.067420 *  -2.87073    1.000000    
    283 O2    s    0.333030 *  0.236798 *  0.437395 *  -2.87073    1.000000    
    284 O2    s    0.908951 *  0.664025 *  0.103799 *  -2.87073    1.000000    
    285 O2    s    0.761146 *  0.087851 *  0.769230 *  -2.87073    1.000000    
    286 O2    s    0.674527 *  0.757924 *  0.937590 *  -2.87073    1.000000    
    287 O2    s    0.091291 *  0.330704 *  0.603275 *  -2.87073    1.000000    
    288 O2    s    0.245446 *  0.913845 *  0.273587 *  -2.87073    1.000000    
    289 O3    s    0.605215 *  0.582768 *  0.997096 *  -3.33043    1.000000    
    290 O3    s    0.421452 *  0.015019 *  0.332973 *  -3.33043    1.000000    
    291 O2    s    0.975618 *  0.414132 *  0.655860 *  -2.87073    1.000000    
    292 O2    s    0.413581 *  0.437554 *  0.490225 *  -2.87073    1.000000    
    293 O2    s    0.562839 *  0.970080 *  0.822256 *  -2.87073    1.000000    
    294 O2    s    0.030167 *  0.586980 *  0.156490 *  -2.87073    1.000000    
    295 O2    s    0.558812 *  0.578290 *  0.349528 *  -2.87073    1.000000    
    296 O2    s    0.028139 *  0.443369 *  0.015039 *  -2.87073    1.000000    
    297 O2    s    0.418973 *  0.971131 *  0.681434 *  -2.87073    1.000000    
    298 O2    s    0.445203 *  0.412884 *  0.851069 *  -2.87073    1.000000    
    299 O2    s    0.976063 *  0.556835 *  0.514792 *  -2.87073    1.000000    
    300 O2    s    0.581820 *  0.026713 *  0.185344 *  -2.87073    1.000000    
    301 O3    s    0.581198 *  0.174113 *  0.248951 *  -3.33043    1.000000    
    302 O2    s    0.845726 *  0.421453 *  0.585017 *  -2.87073    1.000000    
    303 O3    s    0.598137 *  0.417252 *  0.913638 *  -3.33043    1.000000    
    304 O2    s    0.424286 *  0.839685 *  0.752119 *  -2.87073    1.000000    
    305 O2    s    0.160640 *  0.578795 *  0.086092 *  -2.87073    1.000000    
    306 O2    s    0.421867 *  0.575261 *  0.419498 *  -2.87073    1.000000    
    307 F     s    0.481461 *  0.957625 *  0.266697 *  -1.56000    1.000000    
    308 F     s    0.096030 *  0.547277 *  0.586707 *  -1.56000    1.000000    
    309 F     s    0.483414 *  0.519898 *  0.931537 *  -1.56000    1.000000    
    310 F     s    0.549350 *  0.090027 *  0.752914 *  -1.56000    1.000000    
    311 F     s    0.917396 *  0.452716 *  0.086723 *  -1.56000    1.000000    
    312 F     s    0.544340 *  0.452822 *  0.421235 *  -1.56000    1.000000    
--------------------------------------------------------------------------------



********************************************************************************
*  General input information                                                   *
********************************************************************************

  Species output for all configurations : 

--------------------------------------------------------------------------------
  Species    Type    Atomic    Atomic    Charge       Radii (Angs)     Library
                     Number     Mass       (e)     Cova   Ionic  VDW   Symbol
--------------------------------------------------------------------------------
    Si       Core       14      28.09   4.000000   1.200  0.000  2.100          
    O1       Core        8      16.00   1.733957   0.730  0.000  1.360          
    O1       Shell       8       0.00  -3.733957   0.730  0.000  1.360          
    O2       Core        8      16.00   0.870733   0.730  0.000  1.360          
    O2       Shell       8       0.00  -2.870733   0.730  0.000  1.360          
    O3       Core        8      16.00   1.330431   0.730  0.000  1.360          
    O3       Shell       8       0.00  -3.330431   0.730  0.000  1.360          
    F        Core        9      19.00   0.560000   0.710  0.000  1.300          
    F        Shell       9       0.00  -1.560000   0.710  0.000  1.300          
    Ge       Core       32      72.61   4.000000   1.170  0.000  1.750          
--------------------------------------------------------------------------------


  Lattice summation method               =    Ewald          (3-D)
                                         =    Parry          (2-D)
                                         =    Saunders et al (1-D)
  Accuracy factor for lattice sums       =   12.000


  Time limit = Infinity

  Maximum range for interatomic potentials =        16.000000 Angstroms

  Taper potentials to zero over   1.0000 Angstroms using polynomial

  General interatomic potentials :

--------------------------------------------------------------------------------
Atom  Types   Potential         A         B         C         D     Cutoffs(Ang)
  1     2                                                            Min    Max 
--------------------------------------------------------------------------------
Si   c O1   s Buckingham    0.132E+04 0.318      10.1      0.00     0.000 16.000
Si   c O2   s Buckingham    0.132E+04 0.318      10.1      0.00     0.000 16.000
Si   c O3   s Buckingham    0.132E+04 0.318      10.1      0.00     0.000 16.000
Ge   c O1   s Buckingham    0.150E+04 0.326      16.8      0.00     0.000 16.000
Ge   c O2   s Buckingham    0.150E+04 0.326      16.8      0.00     0.000 16.000
Ge   c O3   s Buckingham    0.150E+04 0.326      16.8      0.00     0.000 16.000
O1   s O1   s Buckingham    0.228E+05 0.149      10.9      0.00     0.000 16.000
O1   s O2   s Buckingham    0.228E+05 0.149      10.9      0.00     0.000 16.000
O1   s O3   s Buckingham    0.228E+05 0.149      10.9      0.00     0.000 16.000
O2   s O2   s Buckingham    0.228E+05 0.149      10.9      0.00     0.000 16.000
O2   s O3   s Buckingham    0.228E+05 0.149      10.9      0.00     0.000 16.000
O3   s O3   s Buckingham    0.228E+05 0.149      10.9      0.00     0.000 16.000
Si   c F    s Buckingham     977.     0.282      0.00      0.00     0.000 16.000
Ge   c F    s Buckingham     681.     0.320      0.00      0.00     0.000 16.000
F    s F    s Buckingham     540.     0.262      0.00      0.00     0.000 16.000
O1   s F    s Buckingham    0.168E+04 0.268      0.00      0.00     0.000 16.000
O2   s F    s Buckingham    0.168E+04 0.268      0.00      0.00     0.000 16.000
O3   s F    s Buckingham    0.168E+04 0.268      0.00      0.00     0.000 16.000
O2   c O2   s Spring (c-s)   76.0      0.00      0.00      0.00     0.000  0.800
O3   c O3   s Spring (c-s)   128.      0.00      0.00      0.00     0.000  0.800
O1   c O1   s Spring (c-s)   180.      0.00      0.00      0.00     0.000  0.800
F    c F    s Spring (c-s)   33.5      0.00      0.00      0.00     0.000  0.800
--------------------------------------------------------------------------------

  General Three-body potentials :

  Harmonic form:

--------------------------------------------------------------------------------
Atom    Atom    Atom           Force Constants            Theta     Cutoffs  
  1       2       3     (eVrad**-2/eVrad**-3/eVrad**-4)   (deg)  1-2  1-3  2-3
--------------------------------------------------------------------------------
Si    c O1    s O1    s  1.261        0.0000    0.0000   109.470 0.00 0.00 0.00
                                                                 1.90 1.90 3.50
Si    c O1    s O2    s  1.261        0.0000    0.0000   109.470 0.00 0.00 0.00
                                                                 1.90 1.90 3.50
Si    c O2    s O2    s  1.261        0.0000    0.0000   109.470 0.00 0.00 0.00
                                                                 1.90 1.90 3.50
--------------------------------------------------------------------------------

********************************************************************************
*  Output for configuration   1                                                *
********************************************************************************


  Components of energy : 

--------------------------------------------------------------------------------
  Interatomic potentials     =        2064.20991781 eV
  Three-body potentials      =           0.47070936 eV
  Monopole - monopole (real) =       -6615.67447219 eV
  Monopole - monopole (recip)=       -3169.24798031 eV
  Monopole - monopole (total)=       -9784.92245250 eV
  Neutralising energy        =          -6.45575501 eV
--------------------------------------------------------------------------------
  Total lattice energy       =       -7726.69758034 eV
--------------------------------------------------------------------------------
  Total lattice energy       =         -745508.2031 kJ/(mole unit cells)
--------------------------------------------------------------------------------


  Number of variables =      939

  Maximum number of calculations  =          1000
  Maximum Hessian update interval =            10
  Maximum step size               =   1.000000000
  Maximum parameter tolerance     =   0.000010000
  Maximum function  tolerance     =   0.000010000
  Maximum gradient  tolerance     =   0.001000000
  Maximum gradient  component     =   0.010000000

  Symmetry not applied to optimisation

  Cell parameters to be optimised using strains

  Newton-Raphson optimiser to be used

  BFGS hessian update to be used

  Dumpfile to be written after every cycle

  Start of bulk optimisation :

  Cycle:      0 Energy:     -7726.697580  Gnorm:      0.000988  CPU:    1.250
  ** Hessian calculated **
  Cycle:      1 Energy:     -7726.748506  Gnorm:      0.003618  CPU:    3.225
  Cycle:      2 Energy:     -7726.748941  Gnorm:      0.000556  CPU:    4.601
  Cycle:      3 Energy:     -7726.749020  Gnorm:      0.000179  CPU:    5.977
  Cycle:      4 Energy:     -7726.749022  Gnorm:      0.000041  CPU:    7.353


  **** Optimisation achieved ****


  Final energy =   -7726.74902164 eV
  Final Gnorm  =       0.00000452

  Components of energy : 

--------------------------------------------------------------------------------
  Interatomic potentials     =        2064.68897825 eV
  Three-body potentials      =           0.46877993 eV
  Monopole - monopole (real) =       -6616.24180388 eV
  Monopole - monopole (recip)=       -3169.20929892 eV
  Monopole - monopole (total)=       -9785.45110281 eV
  Neutralising energy        =          -6.45567702 eV
--------------------------------------------------------------------------------
  Total lattice energy       =       -7726.74902164 eV
--------------------------------------------------------------------------------
  Total lattice energy       =         -745513.1664 kJ/(mole unit cells)
--------------------------------------------------------------------------------

  Final fractional coordinates of atoms :

--------------------------------------------------------------------------------
   No.  Atomic        x           y          z          Radius
        Label       (Frac)      (Frac)     (Frac)       (Angs) 
--------------------------------------------------------------------------------
     1  Si    c     0.699600    0.375700    0.033890    0.000000
     2  Si    c     0.615821    0.298882    0.369277    0.000000
     3  Si    c     0.675551    0.277916    0.699842    0.000000
     4  Si    c     0.291594    0.601945    0.534935    0.000000
     5  Si    c     0.382061    0.663334    0.868517    0.000000
     6  Si    c     0.326334    0.698062    0.202581    0.000000
     7  Si    c     0.376749    0.687840    0.304851    0.000000
     8  Si    c     0.331010    0.619637    0.970986    0.000000
     9  Si    c     0.293557    0.657321    0.635617    0.000000
    10  Si    c     0.622634    0.280316    0.800132    0.000000
    11  Si    c     0.667032    0.358719    0.470694    0.000000
    12  Si    c     0.707956    0.320457    0.134906    0.000000
    13  Ge    c     0.534940    0.428429    0.966285    0.000000
    14  Ge    c     0.566917    0.082406    0.301980    0.000000
    15  Si    c     0.885310    0.452363    0.636209    0.000000
    16  Si    c     0.462066    0.562747    0.469846    0.000000
    17  Si    c     0.421027    0.871962    0.801953    0.000000
    18  Si    c     0.117760    0.527344    0.135314    0.000000
    19  Si    c     0.412841    0.510204    0.368596    0.000000
    20  Si    c     0.117588    0.580530    0.034438    0.000000
    21  Si    c     0.469014    0.866788    0.700630    0.000000
    22  Si    c     0.593815    0.452766    0.867280    0.000000
    23  Si    c     0.879858    0.397596    0.534807    0.000000
    24  Si    c     0.536651    0.120892    0.203106    0.000000
    25  Si    c     0.305950    0.380488    0.855777    0.000000
    26  Si    c     0.607646    0.904718    0.189960    0.000000
    27  Si    c     0.089290    0.678349    0.520811    0.000000
    28  Si    c     0.692167    0.579621    0.355638    0.000000
    29  Si    c     0.397043    0.076576    0.686316    0.000000
    30  Si    c     0.904766    0.302390    0.020067    0.000000
    31  Si    c     0.389946    0.282532    0.484676    0.000000
    32  Si    c     0.910824    0.598969    0.150418    0.000000
    33  Si    c     0.700274    0.079726    0.816240    0.000000
    34  Si    c     0.614981    0.702691    0.987616    0.000000
    35  Si    c     0.092728    0.379795    0.650697    0.000000
    36  Si    c     0.295161    0.889305    0.324065    0.000000
    37  Si    c     0.256211    0.330469    0.958361    0.000000
    38  Si    c     0.664480    0.900709    0.291994    0.000000
    39  Si    c     0.085466    0.730459    0.621360    0.000000
    40  Si    c     0.739827    0.640248    0.456066    0.000000
    41  Si    c     0.341622    0.072003    0.786900    0.000000
    42  Si    c     0.917642    0.248699    0.119794    0.000000
    43  Si    c     0.334998    0.231239    0.383786    0.000000
    44  Si    c     0.915070    0.655325    0.049769    0.000000
    45  Si    c     0.747787    0.068366    0.715720    0.000000
    46  Si    c     0.667296    0.733960    0.884288    0.000000
    47  Si    c     0.081925    0.321018    0.550195    0.000000
    48  Si    c     0.256898    0.913596    0.221054    0.000000
    49  Ge    c     0.967787    0.115906    0.971203    0.000000
    50  Si    c     0.874344    0.824872    0.305363    0.000000
    51  Si    c     0.148178    0.011036    0.636942    0.000000
    52  Si    c     0.018883    0.858733    0.471820    0.000000
    53  Si    c     0.123928    0.134106    0.803392    0.000000
    54  Si    c     0.854997    0.968578    0.140038    0.000000
    55  Si    c     0.112210    0.950879    0.371673    0.000000
    56  Si    c     0.857526    0.878053    0.039374    0.000000
    57  Si    c     0.028225    0.133285    0.702277    0.000000
    58  Si    c     0.880461    0.012653    0.867785    0.000000
    59  Si    c     0.143887    0.103239    0.536201    0.000000
    60  Si    c     0.974718    0.843245    0.204555    0.000000
    61  O3    c     0.945820    0.002761    0.011089    0.000000
    62  O2    c     0.991464    0.909325    0.338953    0.000000
    63  O2    c     0.071961    0.052369    0.671320    0.000000
    64  O2    c     0.060325    0.977299    0.505933    0.000000
    65  O2    c     0.004649    0.054948    0.836607    0.000000
    66  O2    c     0.932698    0.930579    0.175630    0.000000
    67  O2    c     0.338401    0.561224    0.335198    0.000000
    68  O2    c     0.417898    0.741017    0.668295    0.000000
    69  O2    c     0.243553    0.656961    0.002042    0.000000
    70  O2    c     0.663593    0.408354    0.830249    0.000000
    71  O2    c     0.582552    0.235872    0.166043    0.000000
    72  O2    c     0.752878    0.320574    0.503344    0.000000
    73  O3    c     0.581261    0.339766    0.002681    0.000000
    74  O2    c     0.759096    0.401798    0.667939    0.000000
    75  O3    c     0.653790    0.217357    0.338384    0.000000
    76  O2    c     0.412665    0.639713    0.502028    0.000000
    77  O2    c     0.243737    0.579187    0.168464    0.000000
    78  O2    c     0.345453    0.746413    0.834749    0.000000
    79  O3    c     0.129104    0.215944    0.978793    0.000000
    80  O2    c     0.782160    0.884889    0.310197    0.000000
    81  O2    c     0.084704    0.856573    0.641444    0.000000
    82  O2    c     0.865369    0.767028    0.476582    0.000000
    83  O2    c     0.215176    0.070622    0.807122    0.000000
    84  O2    c     0.919830    0.123671    0.140640    0.000000
    85  O2    c     0.208322    0.103577    0.364197    0.000000
    86  O2    c     0.911837    0.780621    0.030564    0.000000
    87  O2    c     0.874009    0.067877    0.696414    0.000000
    88  O2    c     0.787295    0.858563    0.861299    0.000000
    89  O2    c     0.080793    0.194262    0.530065    0.000000
    90  O2    c     0.129132    0.909112    0.200244    0.000000
    91  O2    c     0.931551    0.840992    0.255580    0.000000
    92  O2    c     0.133849    0.055685    0.587440    0.000000
    93  O3    c     0.927517    0.044627    0.918798    0.000000
    94  O2    c     0.068699    0.125090    0.753436    0.000000
    95  O2    c     0.864464    0.914202    0.091868    0.000000
    96  O2    c     0.060408    0.918723    0.422358    0.000000
    97  O3    c     0.893289    0.204035    0.980338    0.000000
    98  O2    c     0.793011    0.673410    0.317308    0.000000
    99  O2    c     0.300041    0.078171    0.648148    0.000000
   100  O2    c     0.088969    0.775992    0.482561    0.000000
   101  O2    c     0.207825    0.284747    0.817287    0.000000
   102  O2    c     0.704024    0.904665    0.151758    0.000000
   103  O2    c     0.183955    0.870570    0.359696    0.000000
   104  O2    c     0.709231    0.815956    0.022680    0.000000
   105  O2    c     0.095892    0.284008    0.689319    0.000000
   106  O2    c     0.800643    0.084366    0.854608    0.000000
   107  O2    c     0.293688    0.183392    0.522806    0.000000
   108  O2    c     0.907480    0.695157    0.188370    0.000000
   109  O2    c     0.328387    0.643476    0.252787    0.000000
   110  O2    c     0.349516    0.658021    0.585372    0.000000
   111  O2    c     0.330574    0.665959    0.918989    0.000000
   112  O2    c     0.678334    0.335168    0.750041    0.000000
   113  O2    c     0.652094    0.325669    0.085536    0.000000
   114  O2    c     0.666193    0.300727    0.421182    0.000000
   115  O3    c     0.370587    0.313741    0.976939    0.000000
   116  O3    c     0.682530    0.030817    0.311987    0.000000
   117  O2    c     0.953885    0.608658    0.640152    0.000000
   118  O2    c     0.617852    0.650832    0.474240    0.000000
   119  O2    c     0.333427    0.940378    0.805895    0.000000
   120  O2    c     0.049615    0.371001    0.139287    0.000000
   121  O2    c     0.323668    0.353962    0.365450    0.000000
   122  O2    c     0.049814    0.669130    0.031905    0.000000
   123  O2    c     0.625006    0.934794    0.698146    0.000000
   124  O2    c     0.676719    0.611301    0.866466    0.000000
   125  O2    c     0.949139    0.310417    0.532098    0.000000
   126  O2    c     0.378145    0.045411    0.202508    0.000000
   127  O2    c     0.771117    0.300747    0.014249    0.000000
   128  O2    c     0.691061    0.445797    0.349236    0.000000
   129  O2    c     0.531091    0.209497    0.678574    0.000000
   130  O2    c     0.222417    0.677425    0.513345    0.000000
   131  O2    c     0.309301    0.516846    0.849507    0.000000
   132  O2    c     0.471461    0.772838    0.183058    0.000000
   133  O2    c     0.299191    0.754760    0.325330    0.000000
   134  O2    c     0.476852    0.698529    0.990433    0.000000
   135  O2    c     0.226199    0.514316    0.658289    0.000000
   136  O2    c     0.696992    0.212304    0.823772    0.000000
   137  O2    c     0.524903    0.285525    0.493456    0.000000
   138  O2    c     0.780863    0.462573    0.158540    0.000000
   139  O2    c     0.791843    0.531646    0.029051    0.000000
   140  O2    c     0.459561    0.232317    0.363925    0.000000
   141  O2    c     0.746502    0.192874    0.695271    0.000000
   142  O2    c     0.207426    0.445968    0.530710    0.000000
   143  O2    c     0.535598    0.725037    0.866923    0.000000
   144  O2    c     0.264221    0.790435    0.202660    0.000000
   145  O2    c     0.530710    0.776731    0.308809    0.000000
   146  O2    c     0.267834    0.465932    0.974930    0.000000
   147  O2    c     0.212983    0.732950    0.640835    0.000000
   148  O2    c     0.466815    0.200124    0.805757    0.000000
   149  O2    c     0.741585    0.515094    0.475741    0.000000
   150  O2    c     0.789219    0.244712    0.138339    0.000000
   151  O2    c     0.239562    0.314454    0.903134    0.000000
   152  O2    c     0.675528    0.903396    0.236958    0.000000
   153  O2    c     0.085673    0.749055    0.567164    0.000000
   154  O2    c     0.760393    0.657653    0.401922    0.000000
   155  O2    c     0.323239    0.072246    0.732690    0.000000
   156  O2    c     0.917065    0.229800    0.065322    0.000000
   157  O2    c     0.317533    0.211769    0.438074    0.000000
   158  O2    c     0.912503    0.671315    0.104027    0.000000
   159  O2    c     0.768995    0.074023    0.770008    0.000000
   160  O2    c     0.684266    0.756935    0.938347    0.000000
   161  O2    c     0.086010    0.303982    0.604492    0.000000
   162  O2    c     0.240905    0.909064    0.275194    0.000000
   163  O3    c     0.608429    0.572265    0.001089    0.000000
   164  O3    c     0.426277    0.010965    0.337782    0.000000
   165  O2    c     0.967564    0.393487    0.660014    0.000000
   166  O2    c     0.401240    0.421295    0.493385    0.000000
   167  O2    c     0.562391    0.952337    0.825521    0.000000
   168  O2    c     0.039429    0.589800    0.159054    0.000000
   169  O2    c     0.553719    0.567937    0.345674    0.000000
   170  O2    c     0.033032    0.440125    0.010479    0.000000
   171  O2    c     0.412240    0.951709    0.677832    0.000000
   172  O2    c     0.446515    0.398523    0.848598    0.000000
   173  O2    c     0.964586    0.538754    0.511962    0.000000
   174  O2    c     0.589227    0.027682    0.183356    0.000000
   175  O3    c     0.589967    0.179270    0.251710    0.000000
   176  O2    c     0.829913    0.399153    0.585755    0.000000
   177  O3    c     0.603256    0.401580    0.915827    0.000000
   178  O2    c     0.417315    0.815014    0.751651    0.000000
   179  O2    c     0.174522    0.580780    0.084905    0.000000
   180  O2    c     0.410149    0.565415    0.418835    0.000000
   181  F     c     0.476320    0.939365    0.264234    0.000000
   182  F     c     0.089974    0.529310    0.586986    0.000000
   183  F     c     0.479698    0.518494    0.928703    0.000000
   184  F     c     0.546869    0.075065    0.752687    0.000000
   185  F     c     0.920092    0.451844    0.085832    0.000000
   186  F     c     0.537507    0.436626    0.421143    0.000000
   187  O3    s     0.937904    0.998729    0.010754    0.000000
   188  O2    s     0.991964    0.904462    0.338866    0.000000
   189  O2    s     0.075496    0.056880    0.670988    0.000000
   190  O2    s     0.065115    0.978235    0.505528    0.000000
   191  O2    s     0.004343    0.059126    0.836316    0.000000
   192  O2    s     0.928791    0.925219    0.174891    0.000000
   193  O2    s     0.349833    0.569491    0.335303    0.000000
   194  O2    s     0.410645    0.745642    0.668345    0.000000
   195  O2    s     0.240229    0.645512    0.001992    0.000000
   196  O2    s     0.652158    0.399621    0.830915    0.000000
   197  O2    s     0.590757    0.232792    0.166623    0.000000
   198  O2    s     0.757497    0.332516    0.503333    0.000000
   199  O3    s     0.591477    0.349980    0.003687    0.000000
   200  O2    s     0.763229    0.393946    0.668056    0.000000
   201  O3    s     0.643536    0.217049    0.339287    0.000000
   202  O2    s     0.405016    0.627994    0.502222    0.000000
   203  O2    s     0.240042    0.586698    0.168818    0.000000
   204  O2    s     0.356932    0.750094    0.835086    0.000000
   205  O3    s     0.128759    0.219632    0.975927    0.000000
   206  O2    s     0.779534    0.879799    0.307653    0.000000
   207  O2    s     0.091557    0.860054    0.638921    0.000000
   208  O2    s     0.868916    0.763841    0.473999    0.000000
   209  O2    s     0.218479    0.077488    0.804680    0.000000
   210  O2    s     0.912677    0.119878    0.138467    0.000000
   211  O2    s     0.211083    0.100451    0.366957    0.000000
   212  O2    s     0.906404    0.777789    0.033488    0.000000
   213  O2    s     0.877204    0.074804    0.699003    0.000000
   214  O2    s     0.784496    0.861667    0.864349    0.000000
   215  O2    s     0.087626    0.197762    0.532787    0.000000
   216  O2    s     0.126082    0.902630    0.202831    0.000000
   217  O2    s     0.930042    0.839442    0.255351    0.000000
   218  O2    s     0.136609    0.055888    0.587369    0.000000
   219  O3    s     0.925942    0.047362    0.917855    0.000000
   220  O2    s     0.070477    0.127012    0.753423    0.000000
   221  O2    s     0.862614    0.916405    0.091508    0.000000
   222  O2    s     0.061568    0.915562    0.422219    0.000000
   223  O3    s     0.900655    0.205742    0.983253    0.000000
   224  O2    s     0.791648    0.680284    0.319855    0.000000
   225  O2    s     0.294018    0.070883    0.650929    0.000000
   226  O2    s     0.081596    0.774696    0.485356    0.000000
   227  O2    s     0.209169    0.278813    0.819817    0.000000
   228  O2    s     0.709901    0.911403    0.154495    0.000000
   229  O2    s     0.187592    0.880798    0.357369    0.000000
   230  O2    s     0.714901    0.810931    0.020828    0.000000
   231  O2    s     0.088312    0.277561    0.686792    0.000000
   232  O2    s     0.798879    0.076396    0.852116    0.000000
   233  O2    s     0.287356    0.184820    0.520388    0.000000
   234  O2    s     0.915119    0.701224    0.186171    0.000000
   235  O2    s     0.333029    0.653570    0.252832    0.000000
   236  O2    s     0.337932    0.652287    0.585429    0.000000
   237  O2    s     0.335938    0.661043    0.919001    0.000000
   238  O2    s     0.672205    0.323432    0.750072    0.000000
   239  O2    s     0.662869    0.330145    0.085670    0.000000
   240  O2    s     0.661265    0.306731    0.421326    0.000000
   241  O3    s     0.369805    0.323570    0.974160    0.000000
   242  O3    s     0.672866    0.020224    0.309132    0.000000
   243  O2    s     0.960535    0.605254    0.637785    0.000000
   244  O2    s     0.614582    0.640706    0.471890    0.000000
   245  O2    s     0.343326    0.946960    0.803513    0.000000
   246  O2    s     0.043125    0.374569    0.136872    0.000000
   247  O2    s     0.333955    0.357499    0.367649    0.000000
   248  O2    s     0.043175    0.658632    0.033984    0.000000
   249  O2    s     0.621863    0.941758    0.700246    0.000000
   250  O2    s     0.667636    0.608951    0.868464    0.000000
   251  O2    s     0.955984    0.320501    0.534292    0.000000
   252  O2    s     0.380563    0.038792    0.204521    0.000000
   253  O2    s     0.778713    0.308599    0.016956    0.000000
   254  O2    s     0.683662    0.445944    0.351985    0.000000
   255  O2    s     0.531852    0.202506    0.681626    0.000000
   256  O2    s     0.215465    0.669766    0.516388    0.000000
   257  O2    s     0.316593    0.518040    0.852173    0.000000
   258  O2    s     0.470533    0.778795    0.185824    0.000000
   259  O2    s     0.306898    0.761279    0.323026    0.000000
   260  O2    s     0.475371    0.690709    0.988088    0.000000
   261  O2    s     0.219089    0.514860    0.655137    0.000000
   262  O2    s     0.689728    0.205243    0.820541    0.000000
   263  O2    s     0.525257    0.292709    0.490185    0.000000
   264  O2    s     0.787233    0.462512    0.155247    0.000000
   265  O2    s     0.796582    0.529794    0.031835    0.000000
   266  O2    s     0.461256    0.239021    0.366630    0.000000
   267  O2    s     0.739129    0.188111    0.697940    0.000000
   268  O2    s     0.202463    0.448739    0.533266    0.000000
   269  O2    s     0.533131    0.719188    0.868978    0.000000
   270  O2    s     0.270236    0.793748    0.204624    0.000000
   271  O2    s     0.527683    0.779912    0.306673    0.000000
   272  O2    s     0.273778    0.469117    0.972812    0.000000
   273  O2    s     0.207567    0.724752    0.638236    0.000000
   274  O2    s     0.469311    0.194466    0.803186    0.000000
   275  O2    s     0.733601    0.512454    0.473129    0.000000
   276  O2    s     0.794730    0.252981    0.136020    0.000000
   277  O2    s     0.248229    0.323041    0.903440    0.000000
   278  O2    s     0.667048    0.903291    0.237430    0.000000
   279  O2    s     0.086023    0.739698    0.568112    0.000000
   280  O2    s     0.751147    0.647759    0.402862    0.000000
   281  O2    s     0.332878    0.072656    0.733663    0.000000
   282  O2    s     0.916000    0.238893    0.066459    0.000000
   283  O2    s     0.327006    0.221292    0.437287    0.000000
   284  O2    s     0.912626    0.661861    0.103224    0.000000
   285  O2    s     0.759491    0.074019    0.769140    0.000000
   286  O2    s     0.675765    0.749231    0.937355    0.000000
   287  O2    s     0.086284    0.313772    0.603661    0.000000
   288  O2    s     0.247976    0.907698    0.274073    0.000000
   289  O3    s     0.604127    0.576997    0.997351    0.000000
   290  O3    s     0.421141    0.002131    0.333963    0.000000
   291  O2    s     0.972631    0.398281    0.656555    0.000000
   292  O2    s     0.406475    0.421072    0.490019    0.000000
   293  O2    s     0.562318    0.957579    0.822111    0.000000
   294  O2    s     0.033839    0.584191    0.155678    0.000000
   295  O2    s     0.553683    0.563073    0.349094    0.000000
   296  O2    s     0.028363    0.440341    0.013954    0.000000
   297  O2    s     0.416745    0.956497    0.681161    0.000000
   298  O2    s     0.445561    0.402026    0.851258    0.000000
   299  O2    s     0.969371    0.539056    0.515320    0.000000
   300  O2    s     0.585923    0.023138    0.186072    0.000000
   301  O3    s     0.582795    0.166827    0.249794    0.000000
   302  O2    s     0.840965    0.404606    0.585767    0.000000
   303  O3    s     0.597811    0.408777    0.914016    0.000000
   304  O2    s     0.422986    0.826244    0.751688    0.000000
   305  O2    s     0.162943    0.575271    0.084932    0.000000
   306  O2    s     0.415742    0.559492    0.418901    0.000000
   307  F     s     0.482652    0.949597    0.266895    0.000000
   308  F     s     0.090229    0.529501    0.587144    0.000000
   309  F     s     0.483741    0.512510    0.931250    0.000000
   310  F     s     0.546891    0.075192    0.752876    0.000000
   311  F     s     0.921008    0.451951    0.085925    0.000000
   312  F     s     0.537305    0.437025    0.421294    0.000000
--------------------------------------------------------------------------------

  Final Cartesian lattice vectors (Angstroms) :

       11.990558   -0.000654   -0.004350
       -5.953452   10.358139    0.003103
       -0.191009   -0.067334   29.503524


  Final cell parameters and derivatives :

--------------------------------------------------------------------------------
       a           11.990558 Angstrom     dE/de1(xx)    -0.000248 eV/strain
       b           11.947161 Angstrom     dE/de2(yy)    -0.000154 eV/strain
       c           29.504219 Angstrom     dE/de3(zz)    -0.000126 eV/strain
       alpha       89.913647 Degrees      dE/de4(yz)    -0.000126 eV/strain
       beta        90.391711 Degrees      dE/de5(xz)    -0.000045 eV/strain
       gamma      119.891729 Degrees      dE/de6(xy)    -0.000004 eV/strain
--------------------------------------------------------------------------------

  Primitive cell volume =          3664.210811 Angs**3

  Density of cell =      1.746104 g/cm**3

  Non-primitive cell volume =          3664.210811 Angs**3


  Final internal derivatives :

--------------------------------------------------------------------------------
   No.  Atomic          a             b             c           Radius
        Label          (eV)          (eV)          (eV)        (eV/Angs)
--------------------------------------------------------------------------------
      1 Si    c       0.000000      0.000000      0.000000      0.000000
      2 Si    c      -0.000013      0.000012     -0.000146      0.000000
      3 Si    c       0.000037     -0.000028     -0.000280      0.000000
      4 Si    c      -0.000019     -0.000006     -0.000079      0.000000
      5 Si    c      -0.000032      0.000048     -0.000092      0.000000
      6 Si    c      -0.000098      0.000066      0.000072      0.000000
      7 Si    c       0.000006      0.000027      0.000009      0.000000
      8 Si    c      -0.000013      0.000003     -0.000011      0.000000
      9 Si    c       0.000008     -0.000004      0.000123      0.000000
     10 Si    c      -0.000008     -0.000049      0.000334      0.000000
     11 Si    c      -0.000030      0.000051      0.000053      0.000000
     12 Si    c       0.000071     -0.000034      0.000307      0.000000
     13 Ge    c       0.000312     -0.000308      0.000145      0.000000
     14 Ge    c      -0.000095      0.000037     -0.000095      0.000000
     15 Si    c      -0.000021      0.000004     -0.000009      0.000000
     16 Si    c       0.000002     -0.000003      0.000091      0.000000
     17 Si    c      -0.000037      0.000077      0.000360      0.000000
     18 Si    c      -0.000029     -0.000042     -0.000042      0.000000
     19 Si    c       0.000067     -0.000130      0.000133      0.000000
     20 Si    c       0.000043     -0.000053      0.000019      0.000000
     21 Si    c       0.000017      0.000030     -0.000191      0.000000
     22 Si    c      -0.000068      0.000074      0.000394      0.000000
     23 Si    c       0.000013     -0.000000      0.000056      0.000000
     24 Si    c       0.000006      0.000052      0.000035      0.000000
     25 Si    c       0.000068      0.000002      0.000311      0.000000
     26 Si    c      -0.000069      0.000006      0.000332      0.000000
     27 Si    c       0.000012     -0.000027      0.000016      0.000000
     28 Si    c       0.000017     -0.000021     -0.000176      0.000000
     29 Si    c       0.000060     -0.000027     -0.000109      0.000000
     30 Si    c      -0.000002      0.000025      0.000025      0.000000
     31 Si    c       0.000031      0.000025     -0.000001      0.000000
     32 Si    c       0.000017     -0.000090      0.000220      0.000000
     33 Si    c      -0.000088      0.000041      0.000093      0.000000
     34 Si    c      -0.000001     -0.000021      0.000052      0.000000
     35 Si    c       0.000001      0.000022     -0.000008      0.000000
     36 Si    c       0.000223     -0.000085     -0.000376      0.000000
     37 Si    c      -0.000211     -0.000042      0.000248      0.000000
     38 Si    c      -0.000032     -0.000020      0.000094      0.000000
     39 Si    c       0.000010     -0.000020      0.000010      0.000000
     40 Si    c      -0.000005     -0.000027      0.000097      0.000000
     41 Si    c       0.000051     -0.000035      0.000172      0.000000
     42 Si    c       0.000022      0.000018      0.000243      0.000000
     43 Si    c       0.000006      0.000047     -0.000120      0.000000
     44 Si    c      -0.000007      0.000018     -0.000154      0.000000
     45 Si    c      -0.000035      0.000031     -0.000127      0.000000
     46 Si    c       0.000025     -0.000047     -0.000031      0.000000
     47 Si    c      -0.000008      0.000025     -0.000011      0.000000
     48 Si    c       0.000057     -0.000012     -0.000213      0.000000
     49 Ge    c      -0.000060      0.000230     -0.000634      0.000000
     50 Si    c      -0.000047     -0.000018      0.000197      0.000000
     51 Si    c      -0.000009      0.000016     -0.000034      0.000000
     52 Si    c      -0.000020      0.000015      0.000018      0.000000
     53 Si    c       0.000064     -0.000104      0.000132      0.000000
     54 Si    c       0.000057     -0.000116     -0.000078      0.000000
     55 Si    c      -0.000128      0.000083     -0.000081      0.000000
     56 Si    c      -0.000177     -0.000455      0.001108      0.000000
     57 Si    c      -0.000046      0.000021      0.000041      0.000000
     58 Si    c      -0.000022      0.000113      0.000042      0.000000
     59 Si    c      -0.000010      0.000007      0.000067      0.000000
     60 Si    c      -0.000003      0.000002      0.000656      0.000000
     61 O3    c       0.000586      0.000376     -0.001284      0.000000
     62 O2    c       0.000092     -0.000101      0.000182      0.000000
     63 O2    c       0.000041     -0.000037     -0.000053      0.000000
     64 O2    c      -0.000001     -0.000036     -0.000059      0.000000
     65 O2    c       0.000020     -0.000005     -0.000069      0.000000
     66 O2    c      -0.000081      0.000095     -0.000255      0.000000
     67 O2    c      -0.000106      0.000090     -0.000209      0.000000
     68 O2    c      -0.000005     -0.000019     -0.000035      0.000000
     69 O2    c       0.000033     -0.000012     -0.000051      0.000000
     70 O2    c       0.000087     -0.000089     -0.000190      0.000000
     71 O2    c       0.000003      0.000002     -0.000022      0.000000
     72 O2    c      -0.000010      0.000005      0.000009      0.000000
     73 O3    c      -0.000120      0.000104     -0.000065      0.000000
     74 O2    c       0.000016     -0.000020      0.000006      0.000000
     75 O3    c       0.000012      0.000043      0.000108      0.000000
     76 O2    c      -0.000018      0.000002      0.000013      0.000000
     77 O2    c       0.000028      0.000049      0.000119      0.000000
     78 O2    c       0.000022     -0.000011     -0.000043      0.000000
     79 O3    c       0.000287      0.000296     -0.000267      0.000000
     80 O2    c       0.000057     -0.000036     -0.000007      0.000000
     81 O2    c      -0.000000      0.000005      0.000005      0.000000
     82 O2    c       0.000001      0.000003     -0.000005      0.000000
     83 O2    c      -0.000075      0.000064      0.000010      0.000000
     84 O2    c      -0.000017      0.000089     -0.000061      0.000000
     85 O2    c      -0.000012      0.000006     -0.000086      0.000000
     86 O2    c      -0.000026      0.000058     -0.000003      0.000000
     87 O2    c       0.000062     -0.000018      0.000013      0.000000
     88 O2    c      -0.000007     -0.000082     -0.000067      0.000000
     89 O2    c       0.000007     -0.000017     -0.000000      0.000000
     90 O2    c      -0.000061      0.000028      0.000064      0.000000
     91 O2    c       0.000230     -0.000087     -0.001481      0.000000
     92 O2    c       0.000004     -0.000004      0.000039      0.000000
     93 O3    c      -0.000019     -0.000217     -0.000092      0.000000
     94 O2    c      -0.000093      0.000023     -0.000434      0.000000
     95 O2    c      -0.000014      0.000143      0.000213      0.000000
     96 O2    c       0.000014     -0.000014      0.000201      0.000000
     97 O3    c      -0.000206      0.000227      0.000048      0.000000
     98 O2    c      -0.000022     -0.000026     -0.000010      0.000000
     99 O2    c      -0.000026      0.000010     -0.000026      0.000000
    100 O2    c       0.000013     -0.000022      0.000016      0.000000
    101 O2    c      -0.000003      0.000062     -0.000075      0.000000
    102 O2    c       0.000034     -0.000009     -0.000088      0.000000
    103 O2    c      -0.000052      0.000002      0.000207      0.000000
    104 O2    c      -0.000066      0.000022     -0.000109      0.000000
    105 O2    c       0.000000     -0.000004     -0.000008      0.000000
    106 O2    c       0.000074     -0.000050      0.000085      0.000000
    107 O2    c       0.000002     -0.000005      0.000014      0.000000
    108 O2    c      -0.000003      0.000116      0.000085      0.000000
    109 O2    c      -0.000003      0.000041     -0.000174      0.000000
    110 O2    c       0.000014     -0.000007     -0.000070      0.000000
    111 O2    c      -0.000001     -0.000017      0.000161      0.000000
    112 O2    c       0.000010      0.000070     -0.000103      0.000000
    113 O2    c      -0.000075      0.000051     -0.000417      0.000000
    114 O2    c       0.000014     -0.000013      0.000024      0.000000
    115 O3    c      -0.000002     -0.000028     -0.000033      0.000000
    116 O3    c       0.000096     -0.000073      0.000076      0.000000
    117 O2    c       0.000008      0.000010     -0.000007      0.000000
    118 O2    c       0.000002     -0.000001      0.000005      0.000000
    119 O2    c       0.000035     -0.000015     -0.000017      0.000000
    120 O2    c      -0.000013      0.000004     -0.000015      0.000000
    121 O2    c       0.000008     -0.000003     -0.000030      0.000000
    122 O2    c      -0.000042      0.000048     -0.000006      0.000000
    123 O2    c       0.000003      0.000006      0.000002      0.000000
    124 O2    c      -0.000005     -0.000001      0.000048      0.000000
    125 O2    c       0.000014     -0.000007      0.000011      0.000000
    126 O2    c      -0.000002     -0.000011      0.000089      0.000000
    127 O2    c      -0.000032      0.000005      0.000062      0.000000
    128 O2    c      -0.000001     -0.000004      0.000003      0.000000
    129 O2    c      -0.000006     -0.000006      0.000006      0.000000
    130 O2    c      -0.000006     -0.000008      0.000019      0.000000
    131 O2    c       0.000042     -0.000079     -0.000030      0.000000
    132 O2    c       0.000109      0.000093      0.000017      0.000000
    133 O2    c      -0.000185      0.000361      0.000057      0.000000
    134 O2    c       0.000131     -0.000070      0.000071      0.000000
    135 O2    c      -0.000014     -0.000010     -0.000000      0.000000
    136 O2    c       0.000009     -0.000025     -0.000003      0.000000
    137 O2    c      -0.000030      0.000019     -0.000015      0.000000
    138 O2    c       0.000039     -0.000023     -0.000035      0.000000
    139 O2    c      -0.000051      0.000105      0.000067      0.000000
    140 O2    c      -0.000017      0.000034      0.000000      0.000000
    141 O2    c      -0.000000     -0.000014      0.000037      0.000000
    142 O2    c      -0.000012      0.000011      0.000025      0.000000
    143 O2    c      -0.000012      0.000009     -0.000029      0.000000
    144 O2    c       0.000175     -0.000160      0.000001      0.000000
    145 O2    c      -0.000064     -0.000019     -0.000032      0.000000
    146 O2    c       0.000060     -0.000095     -0.000110      0.000000
    147 O2    c      -0.000021      0.000010     -0.000016      0.000000
    148 O2    c      -0.000014     -0.000008      0.000006      0.000000
    149 O2    c      -0.000009      0.000005     -0.000015      0.000000
    150 O2    c      -0.000008      0.000015      0.000023      0.000000
    151 O2    c       0.000049      0.000038     -0.000521      0.000000
    152 O2    c      -0.000121      0.000101     -0.000865      0.000000
    153 O2    c       0.000002     -0.000005     -0.000031      0.000000
    154 O2    c       0.000010      0.000031      0.000060      0.000000
    155 O2    c      -0.000045      0.000031      0.000014      0.000000
    156 O2    c       0.000018     -0.000023     -0.000217      0.000000
    157 O2    c      -0.000001     -0.000008      0.000080      0.000000
    158 O2    c      -0.000017      0.000051     -0.000084      0.000000
    159 O2    c       0.000042     -0.000012     -0.000006      0.000000
    160 O2    c      -0.000053     -0.000001      0.000488      0.000000
    161 O2    c      -0.000003      0.000001     -0.000006      0.000000
    162 O2    c       0.000202     -0.000178      0.001298      0.000000
    163 O3    c      -0.000138      0.000259     -0.000021      0.000000
    164 O3    c      -0.000137     -0.000199     -0.000517      0.000000
    165 O2    c       0.000023     -0.000015      0.000003      0.000000
    166 O2    c       0.000011     -0.000015     -0.000014      0.000000
    167 O2    c      -0.000021      0.000014     -0.000038      0.000000
    168 O2    c      -0.000015     -0.000005     -0.000005      0.000000
    169 O2    c      -0.000012      0.000003     -0.000004      0.000000
    170 O2    c       0.000005     -0.000024      0.000028      0.000000
    171 O2    c       0.000000      0.000010      0.000024      0.000000
    172 O2    c      -0.000091      0.000036      0.000041      0.000000
    173 O2    c       0.000007      0.000011      0.000014      0.000000
    174 O2    c       0.000050     -0.000096      0.000005      0.000000
    175 O3    c       0.000020     -0.000081      0.000058      0.000000
    176 O2    c       0.000008     -0.000004     -0.000012      0.000000
    177 O3    c      -0.000168      0.000150      0.000148      0.000000
    178 O2    c       0.000015     -0.000080     -0.000131      0.000000
    179 O2    c       0.000002     -0.000005     -0.000013      0.000000
    180 O2    c      -0.000020      0.000027      0.000006      0.000000
    181 F     c      -0.000006      0.000049     -0.000047      0.000000
    182 F     c      -0.000000      0.000006      0.000034      0.000000
    183 F     c       0.000011      0.000038     -0.000325      0.000000
    184 F     c      -0.000008      0.000033      0.000070      0.000000
    185 F     c       0.000022     -0.000040      0.000105      0.000000
    186 F     c       0.000006      0.000009     -0.000031      0.000000
    187 O3    s      -0.000097     -0.000286      0.000759      0.000000
    188 O2    s       0.000067     -0.000032      0.000125      0.000000
    189 O2    s      -0.000020      0.000011      0.000056      0.000000
    190 O2    s       0.000005      0.000003      0.000010      0.000000
    191 O2    s       0.000006     -0.000014      0.000117      0.000000
    192 O2    s       0.000031     -0.000084      0.000216      0.000000
    193 O2    s       0.000086     -0.000038     -0.000024      0.000000
    194 O2    s      -0.000011      0.000009     -0.000025      0.000000
    195 O2    s      -0.000003     -0.000020     -0.000036      0.000000
    196 O2    s      -0.000037      0.000045      0.000056      0.000000
    197 O2    s       0.000037     -0.000051      0.000056      0.000000
    198 O2    s       0.000011      0.000004      0.000002      0.000000
    199 O3    s       0.000118     -0.000097      0.000067      0.000000
    200 O2    s      -0.000002      0.000004      0.000025      0.000000
    201 O3    s      -0.000045     -0.000043     -0.000045      0.000000
    202 O2    s       0.000001     -0.000002      0.000031      0.000000
    203 O2    s      -0.000033      0.000051      0.000114      0.000000
    204 O2    s      -0.000001     -0.000011      0.000038      0.000000
    205 O3    s      -0.000037     -0.000042     -0.000012      0.000000
    206 O2    s      -0.000035      0.000017      0.000116      0.000000
    207 O2    s       0.000006      0.000004     -0.000014      0.000000
    208 O2    s       0.000005      0.000011     -0.000046      0.000000
    209 O2    s       0.000013     -0.000039     -0.000009      0.000000
    210 O2    s       0.000013     -0.000111     -0.000028      0.000000
    211 O2    s      -0.000020     -0.000018      0.000153      0.000000
    212 O2    s       0.000083     -0.000179     -0.000018      0.000000
    213 O2    s       0.000001      0.000008     -0.000023      0.000000
    214 O2    s       0.000005      0.000004     -0.000021      0.000000
    215 O2    s      -0.000007      0.000011      0.000001      0.000000
    216 O2    s      -0.000070     -0.000046      0.000045      0.000000
    217 O2    s      -0.000030      0.000006      0.000252      0.000000
    218 O2    s       0.000008     -0.000007      0.000016      0.000000
    219 O3    s       0.000017      0.000057     -0.000272      0.000000
    220 O2    s       0.000053     -0.000034      0.000032      0.000000
    221 O2    s      -0.000074      0.000066      0.000450      0.000000
    222 O2    s      -0.000025      0.000016     -0.000122      0.000000
    223 O3    s      -0.000015      0.000052      0.000150      0.000000
    224 O2    s      -0.000025      0.000020     -0.000047      0.000000
    225 O2    s      -0.000003     -0.000006     -0.000053      0.000000
    226 O2    s      -0.000010      0.000002      0.000008      0.000000
    227 O2    s       0.000027      0.000042      0.000098      0.000000
    228 O2    s      -0.000027      0.000010      0.000161      0.000000
    229 O2    s       0.000111     -0.000026     -0.000488      0.000000
    230 O2    s      -0.000119     -0.000100     -0.000084      0.000000
    231 O2    s      -0.000017     -0.000000      0.000014      0.000000
    232 O2    s      -0.000026      0.000035     -0.000057      0.000000
    233 O2    s       0.000002      0.000005     -0.000016      0.000000
    234 O2    s       0.000012      0.000079      0.000005      0.000000
    235 O2    s      -0.000024      0.000065      0.000014      0.000000
    236 O2    s      -0.000031      0.000005      0.000049      0.000000
    237 O2    s       0.000045     -0.000046     -0.000081      0.000000
    238 O2    s      -0.000006     -0.000052      0.000035      0.000000
    239 O2    s       0.000039      0.000045      0.000063      0.000000
    240 O2    s      -0.000022      0.000013     -0.000060      0.000000
    241 O3    s      -0.000119      0.000145      0.000045      0.000000
    242 O3    s      -0.000113      0.000118     -0.000005      0.000000
    243 O2    s      -0.000001     -0.000006     -0.000009      0.000000
    244 O2    s      -0.000005     -0.000006     -0.000039      0.000000
    245 O2    s      -0.000032     -0.000010     -0.000037      0.000000
    246 O2    s       0.000022     -0.000049      0.000022      0.000000
    247 O2    s      -0.000029      0.000004      0.000061      0.000000
    248 O2    s      -0.000029     -0.000050      0.000108      0.000000
    249 O2    s      -0.000002     -0.000003      0.000021      0.000000
    250 O2    s       0.000009      0.000020     -0.000109      0.000000
    251 O2    s      -0.000002     -0.000002     -0.000003      0.000000
    252 O2    s       0.000020      0.000007     -0.000081      0.000000
    253 O2    s      -0.000004      0.000056     -0.000007      0.000000
    254 O2    s      -0.000018      0.000036      0.000090      0.000000
    255 O2    s       0.000012      0.000009      0.000029      0.000000
    256 O2    s       0.000004      0.000005      0.000036      0.000000
    257 O2    s       0.000025     -0.000028      0.000162      0.000000
    258 O2    s      -0.000046      0.000073      0.000268      0.000000
    259 O2    s       0.000022      0.000136     -0.000356      0.000000
    260 O2    s       0.000023     -0.000040     -0.000237      0.000000
    261 O2    s      -0.000003      0.000014     -0.000081      0.000000
    262 O2    s      -0.000031      0.000055     -0.000084      0.000000
    263 O2    s       0.000010     -0.000012     -0.000009      0.000000
    264 O2    s      -0.000061      0.000061     -0.000044      0.000000
    265 O2    s       0.000076     -0.000137      0.000041      0.000000
    266 O2    s       0.000063     -0.000084      0.000027      0.000000
    267 O2    s      -0.000007      0.000021     -0.000026      0.000000
    268 O2    s       0.000013     -0.000003     -0.000010      0.000000
    269 O2    s      -0.000011     -0.000028      0.000076      0.000000
    270 O2    s      -0.000017     -0.000036     -0.000047      0.000000
    271 O2    s      -0.000041      0.000014     -0.000006      0.000000
    272 O2    s       0.000103     -0.000063     -0.000038      0.000000
    273 O2    s       0.000017     -0.000024     -0.000054      0.000000
    274 O2    s       0.000043      0.000016     -0.000062      0.000000
    275 O2    s       0.000011     -0.000004     -0.000024      0.000000
    276 O2    s       0.000030     -0.000044     -0.000188      0.000000
    277 O2    s      -0.000032      0.000038      0.000227      0.000000
    278 O2    s      -0.000048     -0.000004     -0.000077      0.000000
    279 O2    s       0.000005     -0.000005      0.000012      0.000000
    280 O2    s      -0.000007     -0.000053     -0.000083      0.000000
    281 O2    s       0.000028     -0.000032     -0.000000      0.000000
    282 O2    s      -0.000050      0.000021      0.000198      0.000000
    283 O2    s       0.000003      0.000014     -0.000095      0.000000
    284 O2    s       0.000046     -0.000108     -0.000023      0.000000
    285 O2    s      -0.000024     -0.000014     -0.000048      0.000000
    286 O2    s       0.000001     -0.000073      0.000087      0.000000
    287 O2    s      -0.000003      0.000014      0.000036      0.000000
    288 O2    s       0.000119     -0.000031      0.000130      0.000000
    289 O3    s      -0.000032      0.000051     -0.000368      0.000000
    290 O3    s      -0.000046     -0.000117     -0.000498      0.000000
    291 O2    s      -0.000000      0.000003     -0.000027      0.000000
    292 O2    s      -0.000009      0.000013     -0.000034      0.000000
    293 O2    s       0.000027     -0.000052      0.000022      0.000000
    294 O2    s      -0.000002      0.000059     -0.000006      0.000000
    295 O2    s       0.000029     -0.000004      0.000034      0.000000
    296 O2    s      -0.000025      0.000016     -0.000048      0.000000
    297 O2    s      -0.000009     -0.000008     -0.000006      0.000000
    298 O2    s      -0.000065      0.000027      0.000061      0.000000
    299 O2    s       0.000003     -0.000001      0.000002      0.000000
    300 O2    s       0.000052     -0.000105      0.000256      0.000000
    301 O3    s      -0.000004     -0.000023     -0.000059      0.000000
    302 O2    s       0.000007      0.000004      0.000043      0.000000
    303 O3    s       0.000176     -0.000178      0.000012      0.000000
    304 O2    s      -0.000018      0.000058      0.000087      0.000000
    305 O2    s      -0.000024      0.000037     -0.000028      0.000000
    306 O2    s       0.000024     -0.000038      0.000073      0.000000
    307 F     s      -0.000031      0.000012      0.000394      0.000000
    308 F     s       0.000001     -0.000008     -0.000034      0.000000
    309 F     s      -0.000223      0.000224      0.000070      0.000000
    310 F     s       0.000007     -0.000054     -0.000103      0.000000
    311 F     s      -0.000052      0.000089     -0.000175      0.000000
    312 F     s      -0.000014     -0.000007      0.000049      0.000000
--------------------------------------------------------------------------------
  Maximum abs         0.000586      0.000455      0.001481      0.000000
--------------------------------------------------------------------------------


  Time to end of optimisation =       8.7305 seconds


  Peak dynamic memory used =      19.13 MB 


  Timing analysis for GULP :

--------------------------------------------------------------------------------
  Task / Subroutine                                          Time (Seconds)
--------------------------------------------------------------------------------
  Calculation of reciprocal space energy and derivatives          0.3110
  Calculation of real space energy and derivatives                7.1251
  Calculation of three-body energy and derivatives                0.7964
  Calculation of matrix inversion                                 0.2628
--------------------------------------------------------------------------------
  Total CPU time                                                  8.7305
--------------------------------------------------------------------------------


  Dump file written as out.res                                                 
  CIF file written as out.cif                                                 


  Job Finished at 06:49.52 30th November   2016                               

