********************************************************************************
*                       GENERAL UTILITY LATTICE PROGRAM                        *
*                                 Julian Gale                                  *
*                      Nanochemistry Research Institute                        *
*                           Department of Chemistry                            *
*                    Curtin University, Western Australia                      *
********************************************************************************
* Version = 4.2.0 * Last modified =  20th January 2014                         *
********************************************************************************
*  optimise     - perform optimisation run                                     *
*  conp         - constant pressure calculation                                *
*  qok          - running with non charge neutral cell is OK                   *
********************************************************************************

  Job Started  at 02:41.36 30th November   2016                               

  Number of CPUs =     1


  Total number of configurations input =   1

********************************************************************************
*  Input for Configuration =   1                                               *
********************************************************************************

  Formula = Si57Ge3O120F6                                               

  Number of irreducible atoms/shells =     312


  Total number atoms/shells =     312

  Dimensionality = 3               :  Bulk   


  Charge on solid   =  -6.000000 =>neutralising background added


  Cartesian lattice vectors (Angstroms) :

       12.012367    0.000000    0.000000
       -5.973076   10.340731    0.000000
       -0.047296    0.367549   29.514012

  Cell parameters (Angstroms/Degrees):

  a =      12.0124    alpha =  89.3363
  b =      11.9419    beta  =  90.0918
  c =      29.5163    gamma = 120.0119

  Initial cell volume =        3666.131822 Angs**3

  Temperature of configuration =  0.000     K 

  Pressure of configuration =         0.000 GPa 

  Fractional coordinates of asymmetric unit :

--------------------------------------------------------------------------------
   No.  Atomic       x           y          z         Charge      Occupancy
        Label      (Frac)      (Frac)     (Frac)        (e)         (Frac)  
--------------------------------------------------------------------------------
      1 Si    c    0.699600    0.375700    0.033890     4.00000    1.000000    
      2 Si    c    0.621439 *  0.321258 *  0.367340 *   4.00000    1.000000    
      3 Si    c    0.675072 *  0.294556 *  0.698544 *   4.00000    1.000000    
      4 Si    c    0.295957 *  0.617994 *  0.529990 *   4.00000    1.000000    
      5 Si    c    0.384674 *  0.682875 *  0.867931 *   4.00000    1.000000    
      6 Si    c    0.324206 *  0.703917 *  0.200617 *   4.00000    1.000000    
      7 Si    c    0.379204 *  0.703974 *  0.300904 *   4.00000    1.000000    
      8 Si    c    0.327406 *  0.623023 *  0.970636 *   4.00000    1.000000    
      9 Si    c    0.299336 *  0.676102 *  0.629797 *   4.00000    1.000000    
     10 Si    c    0.625954 *  0.297083 *  0.800844 *   4.00000    1.000000    
     11 Si    c    0.674422 *  0.376553 *  0.467653 *   4.00000    1.000000    
     12 Si    c    0.705731 *  0.325424 *  0.135615 *   4.00000    1.000000    
     13 Ge    c    0.532687 *  0.430608 *  0.966892 *   4.00000    1.000000    
     14 Si    c    0.582161 *  0.111405 *  0.302612 *   4.00000    1.000000    
     15 Si    c    0.887529 *  0.466451 *  0.633061 *   4.00000    1.000000    
     16 Si    c    0.470255 *  0.581013 *  0.466450 *   4.00000    1.000000    
     17 Ge    c    0.436156 *  0.901433 *  0.797694 *   4.00000    1.000000    
     18 Si    c    0.114604 *  0.532650 *  0.135827 *   4.00000    1.000000    
     19 Si    c    0.418586 *  0.530372 *  0.365169 *   4.00000    1.000000    
     20 Si    c    0.113517 *  0.584364 *  0.034374 *   4.00000    1.000000    
     21 Si    c    0.464630 *  0.871517 *  0.698624 *   4.00000    1.000000    
     22 Si    c    0.594696 *  0.468273 *  0.867505 *   4.00000    1.000000    
     23 Si    c    0.884445 *  0.412732 *  0.531909 *   4.00000    1.000000    
     24 Si    c    0.531619 *  0.115348 *  0.201034 *   4.00000    1.000000    
     25 Si    c    0.309805 *  0.399065 *  0.855225 *   4.00000    1.000000    
     26 Si    c    0.602878 *  0.905532 *  0.186574 *   4.00000    1.000000    
     27 Si    c    0.093726 *  0.694075 *  0.516184 *   4.00000    1.000000    
     28 Si    c    0.698718 *  0.600734 *  0.352451 *   4.00000    1.000000    
     29 Si    c    0.394388 *  0.088822 *  0.685986 *   4.00000    1.000000    
     30 Si    c    0.904920 *  0.303398 *  0.021332 *   4.00000    1.000000    
     31 Si    c    0.397479 *  0.299968 *  0.481709 *   4.00000    1.000000    
     32 Si    c    0.906558 *  0.603665 *  0.150016 *   4.00000    1.000000    
     33 Si    c    0.709854 *  0.095194 *  0.818122 *   4.00000    1.000000    
     34 Si    c    0.609327 *  0.703531 *  0.988572 *   4.00000    1.000000    
     35 Si    c    0.097951 *  0.399017 *  0.647473 *   4.00000    1.000000    
     36 Si    c    0.301611 *  0.903370 *  0.316635 *   4.00000    1.000000    
     37 Si    c    0.254239 *  0.335106 *  0.957027 *   4.00000    1.000000    
     38 Si    c    0.660254 *  0.910734 *  0.287150 *   4.00000    1.000000    
     39 Si    c    0.088929 *  0.744822 *  0.616526 *   4.00000    1.000000    
     40 Si    c    0.748265 *  0.658950 *  0.452761 *   4.00000    1.000000    
     41 Si    c    0.338277 *  0.083994 *  0.788363 *   4.00000    1.000000    
     42 Si    c    0.914315 *  0.254324 *  0.121759 *   4.00000    1.000000    
     43 Si    c    0.340904 *  0.250419 *  0.381336 *   4.00000    1.000000    
     44 Si    c    0.910676 *  0.658827 *  0.049039 *   4.00000    1.000000    
     45 Si    c    0.744477 *  0.078394 *  0.714894 *   4.00000    1.000000    
     46 Si    c    0.668034 *  0.748632 *  0.885541 *   4.00000    1.000000    
     47 Si    c    0.086314 *  0.336108 *  0.547630 *   4.00000    1.000000    
     48 Si    c    0.253019 *  0.913716 *  0.216023 *   4.00000    1.000000    
     49 Si    c    0.970291 *  0.123221 *  0.971503 *   4.00000    1.000000    
     50 Si    c    0.879541 *  0.850004 *  0.301999 *   4.00000    1.000000    
     51 Si    c    0.150190 *  0.023731 *  0.634104 *   4.00000    1.000000    
     52 Si    c    0.027101 *  0.877916 *  0.467416 *   4.00000    1.000000    
     53 Si    c    0.125970 *  0.154145 *  0.805204 *   4.00000    1.000000    
     54 Si    c    0.851991 *  0.973832 *  0.137369 *   4.00000    1.000000    
     55 Si    c    0.121886 *  0.971759 *  0.366585 *   4.00000    1.000000    
     56 Si    c    0.853146 *  0.882588 *  0.037180 *   4.00000    1.000000    
     57 Ge    c    0.029704 *  0.149159 *  0.701274 *   4.00000    1.000000    
     58 Si    c    0.887252 *  0.031128 *  0.870561 *   4.00000    1.000000    
     59 Si    c    0.149693 *  0.119397 *  0.532990 *   4.00000    1.000000    
     60 Si    c    0.973749 *  0.850229 *  0.201502 *   4.00000    1.000000    
     61 O2    c    0.937091 *  0.005610 *  0.005395 *   0.87073    1.000000    
     62 O2    c    0.999900 *  0.930734 *  0.334711 *   0.87073    1.000000    
     63 O3    c    0.071750 *  0.057384 *  0.669101 *   1.33043    1.000000    
     64 O2    c    0.069241 *  0.995726 *  0.501711 *   0.87073    1.000000    
     65 O2    c    0.013537 *  0.070217 *  0.841062 *   0.87073    1.000000    
     66 O2    c    0.930295 *  0.932341 *  0.170783 *   0.87073    1.000000    
     67 O2    c    0.341015 *  0.578408 *  0.333139 *   0.87073    1.000000    
     68 O2    c    0.424754 *  0.760859 *  0.660671 *   0.87073    1.000000    
     69 O2    c    0.239571 *  0.659847 *  0.001663 *   0.87073    1.000000    
     70 O2    c    0.665622 *  0.424680 *  0.829966 *   0.87073    1.000000    
     71 O2    c    0.582310 *  0.241818 *  0.168657 *   0.87073    1.000000    
     72 O2    c    0.758503 *  0.336575 *  0.500381 *   0.87073    1.000000    
     73 O3    c    0.582323 *  0.341673 *  0.002127 *   1.33043    1.000000    
     74 O2    c    0.761130 *  0.416348 *  0.665490 *   0.87073    1.000000    
     75 O2    c    0.659004 *  0.236185 *  0.335109 *   0.87073    1.000000    
     76 O2    c    0.418563 *  0.657012 *  0.497587 *   0.87073    1.000000    
     77 O2    c    0.240353 *  0.582202 *  0.167987 *   0.87073    1.000000    
     78 O3    c    0.351674 *  0.765288 *  0.835176 *   1.33043    1.000000    
     79 O2    c    0.122100 *  0.215182 *  0.975618 *   0.87073    1.000000    
     80 O2    c    0.787216 *  0.911608 *  0.306766 *   0.87073    1.000000    
     81 O2    c    0.087566 *  0.869023 *  0.636919 *   0.87073    1.000000    
     82 O2    c    0.873238 *  0.786245 *  0.472670 *   0.87073    1.000000    
     83 O2    c    0.219660 *  0.095126 *  0.807827 *   0.87073    1.000000    
     84 O2    c    0.914784 *  0.127897 *  0.142395 *   0.87073    1.000000    
     85 O2    c    0.215187 *  0.126043 *  0.360775 *   0.87073    1.000000    
     86 O2    c    0.908213 *  0.785467 *  0.029537 *   0.87073    1.000000    
     87 O3    c    0.866781 *  0.082482 *  0.692195 *   1.33043    1.000000    
     88 O2    c    0.790697 *  0.877771 *  0.864461 *   0.87073    1.000000    
     89 O2    c    0.085643 *  0.209853 *  0.527588 *   0.87073    1.000000    
     90 O2    c    0.127584 *  0.914425 *  0.195888 *   0.87073    1.000000    
     91 O2    c    0.934945 *  0.861433 *  0.252229 *   0.87073    1.000000    
     92 O2    c    0.139189 *  0.071550 *  0.584428 *   0.87073    1.000000    
     93 O2    c    0.927262 *  0.065155 *  0.921977 *   0.87073    1.000000    
     94 O3    c    0.062093 *  0.135770 *  0.756750 *   1.33043    1.000000    
     95 O2    c    0.868877 *  0.931635 *  0.088011 *   0.87073    1.000000    
     96 O2    c    0.068912 *  0.935975 *  0.417469 *   0.87073    1.000000    
     97 O2    c    0.900193 *  0.204346 *  0.982972 *   0.87073    1.000000    
     98 O2    c    0.798178 *  0.697869 *  0.314381 *   0.87073    1.000000    
     99 O2    c    0.301119 *  0.092337 *  0.647092 *   0.87073    1.000000    
    100 O2    c    0.095021 *  0.793122 *  0.477922 *   0.87073    1.000000    
    101 O2    c    0.210038 *  0.306259 *  0.816634 *   0.87073    1.000000    
    102 O2    c    0.699946 *  0.904664 *  0.148540 *   0.87073    1.000000    
    103 O2    c    0.202408 *  0.900636 *  0.354902 *   0.87073    1.000000    
    104 O2    c    0.702693 *  0.813759 *  0.024276 *   0.87073    1.000000    
    105 O3    c    0.106445 *  0.310249 *  0.687130 *   1.33043    1.000000    
    106 O2    c    0.820803 *  0.112846 *  0.853572 *   0.87073    1.000000    
    107 O2    c    0.300251 *  0.201092 *  0.520269 *   0.87073    1.000000    
    108 O2    c    0.904609 *  0.699649 *  0.188348 *   0.87073    1.000000    
    109 O2    c    0.322287 *  0.645798 *  0.251121 *   0.87073    1.000000    
    110 O2    c    0.354307 *  0.675974 *  0.579588 *   0.87073    1.000000    
    111 O2    c    0.332485 *  0.676406 *  0.919497 *   0.87073    1.000000    
    112 O2    c    0.675328 *  0.344962 *  0.749151 *   0.87073    1.000000    
    113 O2    c    0.649207 *  0.323966 *  0.085649 *   0.87073    1.000000    
    114 O2    c    0.676140 *  0.319684 *  0.417891 *   0.87073    1.000000    
    115 O3    c    0.365769 *  0.316123 *  0.976917 *   1.33043    1.000000    
    116 O2    c    0.669306 *  0.042341 *  0.305852 *   0.87073    1.000000    
    117 O2    c    0.957261 *  0.622745 *  0.636229 *   0.87073    1.000000    
    118 O2    c    0.625737 *  0.668546 *  0.470839 *   0.87073    1.000000    
    119 O3    c    0.321732 *  0.952995 *  0.807991 *   1.33043    1.000000    
    120 O2    c    0.046493 *  0.376015 *  0.140205 *   0.87073    1.000000    
    121 O2    c    0.331819 *  0.373798 *  0.363058 *   0.87073    1.000000    
    122 O2    c    0.045137 *  0.672282 *  0.030988 *   0.87073    1.000000    
    123 O2    c    0.621666 *  0.944951 *  0.698853 *   0.87073    1.000000    
    124 O2    c    0.678922 *  0.626970 *  0.866898 *   0.87073    1.000000    
    125 O2    c    0.953552 *  0.325477 *  0.529862 *   0.87073    1.000000    
    126 O2    c    0.375887 *  0.047251 *  0.198232 *   0.87073    1.000000    
    127 O2    c    0.771403 *  0.301535 *  0.013977 *   0.87073    1.000000    
    128 O2    c    0.697907 *  0.466094 *  0.345494 *   0.87073    1.000000    
    129 O2    c    0.529407 *  0.222870 *  0.679641 *   0.87073    1.000000    
    130 O2    c    0.226141 *  0.692468 *  0.508233 *   0.87073    1.000000    
    131 O2    c    0.313241 *  0.534604 *  0.849750 *   0.87073    1.000000    
    132 O2    c    0.468378 *  0.772514 *  0.179133 *   0.87073    1.000000    
    133 O2    c    0.302942 *  0.769369 *  0.324287 *   0.87073    1.000000    
    134 O2    c    0.470962 *  0.697543 *  0.991718 *   0.87073    1.000000    
    135 O2    c    0.231025 *  0.533850 *  0.653447 *   0.87073    1.000000    
    136 O2    c    0.700721 *  0.226760 *  0.821423 *   0.87073    1.000000    
    137 O2    c    0.531401 *  0.300971 *  0.490281 *   0.87073    1.000000    
    138 O2    c    0.774176 *  0.468334 *  0.158041 *   0.87073    1.000000    
    139 O2    c    0.788627 *  0.533249 *  0.029091 *   0.87073    1.000000    
    140 O2    c    0.466248 *  0.249515 *  0.362539 *   0.87073    1.000000    
    141 O2    c    0.734644 *  0.200755 *  0.696536 *   0.87073    1.000000    
    142 O2    c    0.211846 *  0.461548 *  0.527341 *   0.87073    1.000000    
    143 O2    c    0.538815 *  0.740409 *  0.867171 *   0.87073    1.000000    
    144 O2    c    0.252700 *  0.788362 *  0.196263 *   0.87073    1.000000    
    145 O2    c    0.534908 *  0.783294 *  0.306688 *   0.87073    1.000000    
    146 O2    c    0.261772 *  0.467824 *  0.974001 *   0.87073    1.000000    
    147 O2    c    0.218040 *  0.750589 *  0.635105 *   0.87073    1.000000    
    148 O2    c    0.471617 *  0.208771 *  0.804841 *   0.87073    1.000000    
    149 O2    c    0.749684 *  0.533119 *  0.472744 *   0.87073    1.000000    
    150 O2    c    0.787103 *  0.250765 *  0.141254 *   0.87073    1.000000    
    151 O2    c    0.243755 *  0.324793 *  0.901994 *   0.87073    1.000000    
    152 O2    c    0.676897 *  0.909611 *  0.232968 *   0.87073    1.000000    
    153 O2    c    0.089018 *  0.763820 *  0.562317 *   0.87073    1.000000    
    154 O2    c    0.767750 *  0.676091 *  0.398568 *   0.87073    1.000000    
    155 O2    c    0.325642 *  0.086011 *  0.733246 *   0.87073    1.000000    
    156 O2    c    0.912715 *  0.233607 *  0.067685 *   0.87073    1.000000    
    157 O2    c    0.323221 *  0.229704 *  0.435682 *   0.87073    1.000000    
    158 O2    c    0.909209 *  0.676680 *  0.103273 *   0.87073    1.000000    
    159 O2    c    0.768040 *  0.086313 *  0.768956 *   0.87073    1.000000    
    160 O2    c    0.680729 *  0.762615 *  0.939704 *   0.87073    1.000000    
    161 O2    c    0.089553 *  0.318771 *  0.602144 *   0.87073    1.000000    
    162 O2    c    0.232561 *  0.909532 *  0.270310 *   0.87073    1.000000    
    163 O3    c    0.603540 *  0.572492 *  0.001703 *   1.33043    1.000000    
    164 O2    c    0.440722 *  0.028502 *  0.325833 *   0.87073    1.000000    
    165 O2    c    0.969182 *  0.407188 *  0.656851 *   0.87073    1.000000    
    166 O2    c    0.410381 *  0.439213 *  0.490377 *   0.87073    1.000000    
    167 O3    c    0.580561 *  0.968087 *  0.831060 *   1.33043    1.000000    
    168 O2    c    0.032920 *  0.591834 *  0.159040 *   0.87073    1.000000    
    169 O2    c    0.560113 *  0.586399 *  0.342827 *   0.87073    1.000000    
    170 O2    c    0.030668 *  0.443052 *  0.011505 *   0.87073    1.000000    
    171 O2    c    0.413317 *  0.966500 *  0.679203 *   0.87073    1.000000    
    172 O2    c    0.450109 *  0.415883 *  0.847060 *   0.87073    1.000000    
    173 O2    c    0.969145 *  0.554066 *  0.508309 *   0.87073    1.000000    
    174 O2    c    0.587528 *  0.030557 *  0.178175 *   0.87073    1.000000    
    175 O2    c    0.583441 *  0.166420 *  0.251912 *   0.87073    1.000000    
    176 O2    c    0.832622 *  0.413513 *  0.582837 *   0.87073    1.000000    
    177 O3    c    0.601656 *  0.409724 *  0.915064 *   1.33043    1.000000    
    178 O3    c    0.408941 *  0.808219 *  0.746902 *   1.33043    1.000000    
    179 O2    c    0.168944 *  0.585800 *  0.084910 *   0.87073    1.000000    
    180 O2    c    0.419339 *  0.583281 *  0.415761 *   0.87073    1.000000    
    181 F     c    0.451940 *  0.903826 *  0.253010 *   0.56000    1.000000    
    182 F     c    0.092834 *  0.543590 *  0.583337 *   0.56000    1.000000    
    183 F     c    0.478341 *  0.523436 *  0.929357 *   0.56000    1.000000    
    184 F     c    0.526457 *  0.048588 *  0.760144 *   0.56000    1.000000    
    185 F     c    0.912276 *  0.454244 *  0.086445 *   0.56000    1.000000    
    186 F     c    0.548788 *  0.451241 *  0.418383 *   0.56000    1.000000    
    187 O2    s    0.931312 *  0.005019 *  0.005147 *  -2.87073    1.000000    
    188 O2    s    0.000276 *  0.926417 *  0.334677 *  -2.87073    1.000000    
    189 O3    s    0.076520 *  0.061677 *  0.668123 *  -3.33043    1.000000    
    190 O2    s    0.073546 *  0.996508 *  0.501424 *  -2.87073    1.000000    
    191 O2    s    0.011846 *  0.075111 *  0.840402 *  -2.87073    1.000000    
    192 O2    s    0.926417 *  0.927671 *  0.170514 *  -2.87073    1.000000    
    193 O2    s    0.353060 *  0.586128 *  0.333220 *  -2.87073    1.000000    
    194 O2    s    0.415766 *  0.763392 *  0.661344 *  -2.87073    1.000000    
    195 O2    s    0.236062 *  0.648448 *  0.001706 *  -2.87073    1.000000    
    196 O2    s    0.654479 *  0.415293 *  0.830486 *  -2.87073    1.000000    
    197 O2    s    0.589502 *  0.237029 *  0.168700 *  -2.87073    1.000000    
    198 O2    s    0.763117 *  0.348541 *  0.500358 *  -2.87073    1.000000    
    199 O3    s    0.591633 *  0.351442 *  0.003146 *  -3.33043    1.000000    
    200 O2    s    0.764595 *  0.408398 *  0.665772 *  -2.87073    1.000000    
    201 O2    s    0.647296 *  0.232364 *  0.335180 *  -2.87073    1.000000    
    202 O2    s    0.410923 *  0.645112 *  0.497823 *  -2.87073    1.000000    
    203 O2    s    0.236347 *  0.589876 *  0.168128 *  -2.87073    1.000000    
    204 O3    s    0.361030 *  0.765114 *  0.836359 *  -3.33043    1.000000    
    205 O2    s    0.119295 *  0.217885 *  0.973133 *  -2.87073    1.000000    
    206 O2    s    0.783969 *  0.904989 *  0.304278 *  -2.87073    1.000000    
    207 O2    s    0.094447 *  0.872480 *  0.634472 *  -2.87073    1.000000    
    208 O2    s    0.876717 *  0.782908 *  0.470109 *  -2.87073    1.000000    
    209 O2    s    0.222319 *  0.100537 *  0.805404 *  -2.87073    1.000000    
    210 O2    s    0.907970 *  0.124346 *  0.139754 *  -2.87073    1.000000    
    211 O2    s    0.218348 *  0.122578 *  0.363505 *  -2.87073    1.000000    
    212 O2    s    0.902624 *  0.782791 *  0.032321 *  -2.87073    1.000000    
    213 O3    s    0.867586 *  0.087455 *  0.695207 *  -3.33043    1.000000    
    214 O2    s    0.788338 *  0.880735 *  0.867235 *  -2.87073    1.000000    
    215 O2    s    0.092470 *  0.213348 *  0.530219 *  -2.87073    1.000000    
    216 O2    s    0.124300 *  0.907569 *  0.198540 *  -2.87073    1.000000    
    217 O2    s    0.932948 *  0.858859 *  0.252243 *  -2.87073    1.000000    
    218 O2    s    0.141582 *  0.071491 *  0.584275 *  -2.87073    1.000000    
    219 O2    s    0.927462 *  0.067744 *  0.921578 *  -2.87073    1.000000    
    220 O3    s    0.066040 *  0.138901 *  0.757014 *  -3.33043    1.000000    
    221 O2    s    0.865156 *  0.930860 *  0.087853 *  -2.87073    1.000000    
    222 O2    s    0.070037 *  0.933334 *  0.417506 *  -2.87073    1.000000    
    223 O2    s    0.908255 *  0.205633 *  0.985616 *  -2.87073    1.000000    
    224 O2    s    0.796499 *  0.703983 *  0.317032 *  -2.87073    1.000000    
    225 O2    s    0.295194 *  0.084851 *  0.649812 *  -2.87073    1.000000    
    226 O2    s    0.087683 *  0.791799 *  0.480793 *  -2.87073    1.000000    
    227 O2    s    0.211213 *  0.299594 *  0.819272 *  -2.87073    1.000000    
    228 O2    s    0.705962 *  0.912029 *  0.151271 *  -2.87073    1.000000    
    229 O2    s    0.203804 *  0.908429 *  0.352318 *  -2.87073    1.000000    
    230 O2    s    0.709140 *  0.809962 *  0.022044 *  -2.87073    1.000000    
    231 O3    s    0.099194 *  0.305295 *  0.684477 *  -3.33043    1.000000    
    232 O2    s    0.816483 *  0.102495 *  0.851718 *  -2.87073    1.000000    
    233 O2    s    0.293963 *  0.202348 *  0.517720 *  -2.87073    1.000000    
    234 O2    s    0.912220 *  0.706070 *  0.185884 *  -2.87073    1.000000    
    235 O2    s    0.328327 *  0.657703 *  0.251088 *  -2.87073    1.000000    
    236 O2    s    0.342525 *  0.669984 *  0.579711 *  -2.87073    1.000000    
    237 O2    s    0.337173 *  0.671555 *  0.919655 *  -2.87073    1.000000    
    238 O2    s    0.670280 *  0.334757 *  0.749062 *  -2.87073    1.000000    
    239 O2    s    0.660158 *  0.329232 *  0.085815 *  -2.87073    1.000000    
    240 O2    s    0.670406 *  0.325663 *  0.417870 *  -2.87073    1.000000    
    241 O3    s    0.365120 *  0.325862 *  0.974089 *  -3.33043    1.000000    
    242 O2    s    0.659409 *  0.035728 *  0.303569 *  -2.87073    1.000000    
    243 O2    s    0.963603 *  0.619063 *  0.633855 *  -2.87073    1.000000    
    244 O2    s    0.622506 *  0.658549 *  0.468511 *  -2.87073    1.000000    
    245 O3    s    0.331302 *  0.963436 *  0.805185 *  -3.33043    1.000000    
    246 O2    s    0.039730 *  0.379441 *  0.137823 *  -2.87073    1.000000    
    247 O2    s    0.341764 *  0.376907 *  0.365230 *  -2.87073    1.000000    
    248 O2    s    0.038540 *  0.661933 *  0.033171 *  -2.87073    1.000000    
    249 O2    s    0.619092 *  0.951837 *  0.700571 *  -2.87073    1.000000    
    250 O2    s    0.669640 *  0.624043 *  0.868885 *  -2.87073    1.000000    
    251 O2    s    0.960304 *  0.335548 *  0.531949 *  -2.87073    1.000000    
    252 O2    s    0.378963 *  0.040222 *  0.200401 *  -2.87073    1.000000    
    253 O2    s    0.778695 *  0.309283 *  0.016846 *  -2.87073    1.000000    
    254 O2    s    0.690079 *  0.465325 *  0.348528 *  -2.87073    1.000000    
    255 O2    s    0.530648 *  0.216463 *  0.682296 *  -2.87073    1.000000    
    256 O2    s    0.219338 *  0.684916 *  0.511357 *  -2.87073    1.000000    
    257 O2    s    0.320027 *  0.534634 *  0.852181 *  -2.87073    1.000000    
    258 O2    s    0.467754 *  0.779492 *  0.182152 *  -2.87073    1.000000    
    259 O2    s    0.310567 *  0.776767 *  0.321074 *  -2.87073    1.000000    
    260 O2    s    0.470056 *  0.690405 *  0.989185 *  -2.87073    1.000000    
    261 O2    s    0.223951 *  0.534367 *  0.650285 *  -2.87073    1.000000    
    262 O2    s    0.693795 *  0.220862 *  0.818908 *  -2.87073    1.000000    
    263 O2    s    0.532027 *  0.308594 *  0.487047 *  -2.87073    1.000000    
    264 O2    s    0.781186 *  0.468024 *  0.154869 *  -2.87073    1.000000    
    265 O2    s    0.793660 *  0.531687 *  0.031766 *  -2.87073    1.000000    
    266 O2    s    0.468851 *  0.257236 *  0.365073 *  -2.87073    1.000000    
    267 O2    s    0.729081 *  0.197855 *  0.698716 *  -2.87073    1.000000    
    268 O2    s    0.206945 *  0.464366 *  0.529808 *  -2.87073    1.000000    
    269 O2    s    0.537202 *  0.735208 *  0.869295 *  -2.87073    1.000000    
    270 O2    s    0.260350 *  0.793282 *  0.198850 *  -2.87073    1.000000    
    271 O2    s    0.532439 *  0.788978 *  0.304027 *  -2.87073    1.000000    
    272 O2    s    0.268210 *  0.470867 *  0.971905 *  -2.87073    1.000000    
    273 O2    s    0.212449 *  0.742128 *  0.632575 *  -2.87073    1.000000    
    274 O2    s    0.474467 *  0.205272 *  0.802737 *  -2.87073    1.000000    
    275 O2    s    0.741675 *  0.530463 *  0.470114 *  -2.87073    1.000000    
    276 O2    s    0.792491 *  0.258978 *  0.138599 *  -2.87073    1.000000    
    277 O2    s    0.251932 *  0.333771 *  0.902511 *  -2.87073    1.000000    
    278 O2    s    0.667381 *  0.909311 *  0.233907 *  -2.87073    1.000000    
    279 O2    s    0.089472 *  0.754483 *  0.563297 *  -2.87073    1.000000    
    280 O2    s    0.758479 *  0.666417 *  0.399579 *  -2.87073    1.000000    
    281 O2    s    0.334152 *  0.086095 *  0.733698 *  -2.87073    1.000000    
    282 O2    s    0.912111 *  0.243080 *  0.068567 *  -2.87073    1.000000    
    283 O2    s    0.332869 *  0.239248 *  0.434806 *  -2.87073    1.000000    
    284 O2    s    0.909103 *  0.667073 *  0.102551 *  -2.87073    1.000000    
    285 O2    s    0.759864 *  0.086337 *  0.768069 *  -2.87073    1.000000    
    286 O2    s    0.672381 *  0.755255 *  0.938626 *  -2.87073    1.000000    
    287 O2    s    0.090004 *  0.328627 *  0.601124 *  -2.87073    1.000000    
    288 O2    s    0.241982 *  0.909333 *  0.269477 *  -2.87073    1.000000    
    289 O3    s    0.599223 *  0.577089 *  0.997984 *  -3.33043    1.000000    
    290 O2    s    0.440492 *  0.023539 *  0.322450 *  -2.87073    1.000000    
    291 O2    s    0.974195 *  0.412553 *  0.653408 *  -2.87073    1.000000    
    292 O2    s    0.415374 *  0.439012 *  0.486969 *  -2.87073    1.000000    
    293 O3    s    0.584649 *  0.977283 *  0.827451 *  -3.33043    1.000000    
    294 O2    s    0.027726 *  0.586803 *  0.155658 *  -2.87073    1.000000    
    295 O2    s    0.560253 *  0.581887 *  0.346219 *  -2.87073    1.000000    
    296 O2    s    0.025837 *  0.442937 *  0.014917 *  -2.87073    1.000000    
    297 O2    s    0.416454 *  0.970758 *  0.681928 *  -2.87073    1.000000    
    298 O2    s    0.449297 *  0.419315 *  0.849953 *  -2.87073    1.000000    
    299 O2    s    0.973925 *  0.554383 *  0.511652 *  -2.87073    1.000000    
    300 O2    s    0.583167 *  0.025670 *  0.181487 *  -2.87073    1.000000    
    301 O2    s    0.577972 *  0.155423 *  0.251980 *  -2.87073    1.000000    
    302 O2    s    0.843687 *  0.418973 *  0.582891 *  -2.87073    1.000000    
    303 O3    s    0.596510 *  0.417246 *  0.913358 *  -3.33043    1.000000    
    304 O3    s    0.416473 *  0.820868 *  0.745240 *  -3.33043    1.000000    
    305 O2    s    0.157663 *  0.580187 *  0.084945 *  -2.87073    1.000000    
    306 O2    s    0.424657 *  0.577552 *  0.415864 *  -2.87073    1.000000    
    307 F     s    0.451648 *  0.903239 *  0.253195 *  -1.56000    1.000000    
    308 F     s    0.092978 *  0.543625 *  0.583540 *  -1.56000    1.000000    
    309 F     s    0.482180 *  0.517328 *  0.931779 *  -1.56000    1.000000    
    310 F     s    0.520507 *  0.038609 *  0.762660 *  -1.56000    1.000000    
    311 F     s    0.912682 *  0.454176 *  0.086582 *  -1.56000    1.000000    
    312 F     s    0.549039 *  0.451087 *  0.418553 *  -1.56000    1.000000    
--------------------------------------------------------------------------------



********************************************************************************
*  General input information                                                   *
********************************************************************************

  Species output for all configurations : 

--------------------------------------------------------------------------------
  Species    Type    Atomic    Atomic    Charge       Radii (Angs)     Library
                     Number     Mass       (e)     Cova   Ionic  VDW   Symbol
--------------------------------------------------------------------------------
    Si       Core       14      28.09   4.000000   1.200  0.000  2.100          
    O1       Core        8      16.00   1.733957   0.730  0.000  1.360          
    O1       Shell       8       0.00  -3.733957   0.730  0.000  1.360          
    O2       Core        8      16.00   0.870733   0.730  0.000  1.360          
    O2       Shell       8       0.00  -2.870733   0.730  0.000  1.360          
    O3       Core        8      16.00   1.330431   0.730  0.000  1.360          
    O3       Shell       8       0.00  -3.330431   0.730  0.000  1.360          
    F        Core        9      19.00   0.560000   0.710  0.000  1.300          
    F        Shell       9       0.00  -1.560000   0.710  0.000  1.300          
    Ge       Core       32      72.61   4.000000   1.170  0.000  1.750          
--------------------------------------------------------------------------------


  Lattice summation method               =    Ewald          (3-D)
                                         =    Parry          (2-D)
                                         =    Saunders et al (1-D)
  Accuracy factor for lattice sums       =   12.000


  Time limit = Infinity

  Maximum range for interatomic potentials =        16.000000 Angstroms

  Taper potentials to zero over   1.0000 Angstroms using polynomial

  General interatomic potentials :

--------------------------------------------------------------------------------
Atom  Types   Potential         A         B         C         D     Cutoffs(Ang)
  1     2                                                            Min    Max 
--------------------------------------------------------------------------------
Si   c O1   s Buckingham    0.132E+04 0.318      10.1      0.00     0.000 16.000
Si   c O2   s Buckingham    0.132E+04 0.318      10.1      0.00     0.000 16.000
Si   c O3   s Buckingham    0.132E+04 0.318      10.1      0.00     0.000 16.000
Ge   c O1   s Buckingham    0.150E+04 0.326      16.8      0.00     0.000 16.000
Ge   c O2   s Buckingham    0.150E+04 0.326      16.8      0.00     0.000 16.000
Ge   c O3   s Buckingham    0.150E+04 0.326      16.8      0.00     0.000 16.000
O1   s O1   s Buckingham    0.228E+05 0.149      10.9      0.00     0.000 16.000
O1   s O2   s Buckingham    0.228E+05 0.149      10.9      0.00     0.000 16.000
O1   s O3   s Buckingham    0.228E+05 0.149      10.9      0.00     0.000 16.000
O2   s O2   s Buckingham    0.228E+05 0.149      10.9      0.00     0.000 16.000
O2   s O3   s Buckingham    0.228E+05 0.149      10.9      0.00     0.000 16.000
O3   s O3   s Buckingham    0.228E+05 0.149      10.9      0.00     0.000 16.000
Si   c F    s Buckingham     977.     0.282      0.00      0.00     0.000 16.000
Ge   c F    s Buckingham     681.     0.320      0.00      0.00     0.000 16.000
F    s F    s Buckingham     540.     0.262      0.00      0.00     0.000 16.000
O1   s F    s Buckingham    0.168E+04 0.268      0.00      0.00     0.000 16.000
O2   s F    s Buckingham    0.168E+04 0.268      0.00      0.00     0.000 16.000
O3   s F    s Buckingham    0.168E+04 0.268      0.00      0.00     0.000 16.000
O2   c O2   s Spring (c-s)   76.0      0.00      0.00      0.00     0.000  0.800
O3   c O3   s Spring (c-s)   128.      0.00      0.00      0.00     0.000  0.800
O1   c O1   s Spring (c-s)   180.      0.00      0.00      0.00     0.000  0.800
F    c F    s Spring (c-s)   33.5      0.00      0.00      0.00     0.000  0.800
--------------------------------------------------------------------------------

  General Three-body potentials :

  Harmonic form:

--------------------------------------------------------------------------------
Atom    Atom    Atom           Force Constants            Theta     Cutoffs  
  1       2       3     (eVrad**-2/eVrad**-3/eVrad**-4)   (deg)  1-2  1-3  2-3
--------------------------------------------------------------------------------
Si    c O1    s O1    s  1.261        0.0000    0.0000   109.470 0.00 0.00 0.00
                                                                 1.90 1.90 3.50
Si    c O1    s O2    s  1.261        0.0000    0.0000   109.470 0.00 0.00 0.00
                                                                 1.90 1.90 3.50
Si    c O2    s O2    s  1.261        0.0000    0.0000   109.470 0.00 0.00 0.00
                                                                 1.90 1.90 3.50
--------------------------------------------------------------------------------

********************************************************************************
*  Output for configuration   1                                                *
********************************************************************************


  Components of energy : 

--------------------------------------------------------------------------------
  Interatomic potentials     =        2063.68163572 eV
  Three-body potentials      =           0.46246868 eV
  Monopole - monopole (real) =       -6615.87159111 eV
  Monopole - monopole (recip)=       -3168.65102782 eV
  Monopole - monopole (total)=       -9784.52261893 eV
  Neutralising energy        =          -6.45454926 eV
--------------------------------------------------------------------------------
  Total lattice energy       =       -7726.83306378 eV
--------------------------------------------------------------------------------
  Total lattice energy       =         -745521.2752 kJ/(mole unit cells)
--------------------------------------------------------------------------------


  Number of variables =      939

  Maximum number of calculations  =          1000
  Maximum Hessian update interval =            10
  Maximum step size               =   1.000000000
  Maximum parameter tolerance     =   0.000010000
  Maximum function  tolerance     =   0.000010000
  Maximum gradient  tolerance     =   0.001000000
  Maximum gradient  component     =   0.010000000

  Symmetry not applied to optimisation

  Cell parameters to be optimised using strains

  Newton-Raphson optimiser to be used

  BFGS hessian update to be used

  Dumpfile to be written after every cycle

  Start of bulk optimisation :

  Cycle:      0 Energy:     -7726.833064  Gnorm:      0.007374  CPU:    1.065
  ** Hessian calculated **
  Cycle:      1 Energy:     -7726.885640  Gnorm:      0.002597  CPU:    2.972
  Cycle:      2 Energy:     -7726.885872  Gnorm:      0.000252  CPU:    4.355
  Cycle:      3 Energy:     -7726.885882  Gnorm:      0.000061  CPU:    5.737


  **** Optimisation achieved ****


  Final energy =   -7726.88588190 eV
  Final Gnorm  =       0.00000777

  Components of energy : 

--------------------------------------------------------------------------------
  Interatomic potentials     =        2064.03748592 eV
  Three-body potentials      =           0.45970937 eV
  Monopole - monopole (real) =       -6616.58271884 eV
  Monopole - monopole (recip)=       -3168.34642948 eV
  Monopole - monopole (total)=       -9784.92914832 eV
  Neutralising energy        =          -6.45392887 eV
--------------------------------------------------------------------------------
  Total lattice energy       =       -7726.88588190 eV
--------------------------------------------------------------------------------
  Total lattice energy       =         -745526.3713 kJ/(mole unit cells)
--------------------------------------------------------------------------------

  Final fractional coordinates of atoms :

--------------------------------------------------------------------------------
   No.  Atomic        x           y          z          Radius
        Label       (Frac)      (Frac)     (Frac)       (Angs) 
--------------------------------------------------------------------------------
     1  Si    c     0.699600    0.375700    0.033890    0.000000
     2  Si    c     0.617253    0.308704    0.367061    0.000000
     3  Si    c     0.668903    0.275942    0.697928    0.000000
     4  Si    c     0.289025    0.599019    0.529899    0.000000
     5  Si    c     0.386554    0.673283    0.867667    0.000000
     6  Si    c     0.324897    0.697491    0.200171    0.000000
     7  Si    c     0.377658    0.693092    0.300567    0.000000
     8  Si    c     0.329370    0.616643    0.970438    0.000000
     9  Si    c     0.291960    0.656833    0.629816    0.000000
    10  Si    c     0.622808    0.283227    0.800255    0.000000
    11  Si    c     0.668565    0.360693    0.467522    0.000000
    12  Si    c     0.706593    0.322006    0.135524    0.000000
    13  Ge    c     0.531284    0.423870    0.966062    0.000000
    14  Si    c     0.580414    0.100614    0.302373    0.000000
    15  Si    c     0.880786    0.447257    0.632435    0.000000
    16  Si    c     0.464808    0.564705    0.466241    0.000000
    17  Ge    c     0.433363    0.888510    0.797355    0.000000
    18  Si    c     0.115738    0.527895    0.135209    0.000000
    19  Si    c     0.414510    0.517232    0.364834    0.000000
    20  Si    c     0.115328    0.580338    0.033860    0.000000
    21  Si    c     0.458396    0.852716    0.698518    0.000000
    22  Si    c     0.595536    0.457897    0.866836    0.000000
    23  Si    c     0.877665    0.393706    0.531424    0.000000
    24  Si    c     0.532830    0.109540    0.200835    0.000000
    25  Si    c     0.310770    0.389587    0.854616    0.000000
    26  Si    c     0.603495    0.899234    0.186558    0.000000
    27  Si    c     0.086770    0.674958    0.515789    0.000000
    28  Si    c     0.694985    0.588228    0.352047    0.000000
    29  Si    c     0.388306    0.070150    0.685820    0.000000
    30  Si    c     0.904192    0.300844    0.020861    0.000000
    31  Si    c     0.391306    0.283609    0.481669    0.000000
    32  Si    c     0.908730    0.599763    0.149653    0.000000
    33  Si    c     0.706902    0.081408    0.817752    0.000000
    34  Si    c     0.611124    0.696866    0.988538    0.000000
    35  Si    c     0.090422    0.379433    0.647106    0.000000
    36  Si    c     0.300161    0.892893    0.316456    0.000000
    37  Si    c     0.253325    0.327732    0.956593    0.000000
    38  Si    c     0.658735    0.900470    0.287067    0.000000
    39  Si    c     0.081602    0.725721    0.616169    0.000000
    40  Si    c     0.742789    0.643175    0.452624    0.000000
    41  Si    c     0.334772    0.070162    0.788312    0.000000
    42  Si    c     0.914648    0.249775    0.121091    0.000000
    43  Si    c     0.336620    0.237257    0.381069    0.000000
    44  Si    c     0.914084    0.656758    0.048856    0.000000
    45  Si    c     0.738503    0.059896    0.714499    0.000000
    46  Si    c     0.669755    0.738677    0.885243    0.000000
    47  Si    c     0.079155    0.317046    0.547271    0.000000
    48  Si    c     0.253958    0.907461    0.215849    0.000000
    49  Si    c     0.968021    0.118777    0.971459    0.000000
    50  Si    c     0.876952    0.838471    0.302090    0.000000
    51  Si    c     0.143600    0.004836    0.634296    0.000000
    52  Si    c     0.022085    0.860608    0.467413    0.000000
    53  Si    c     0.125118    0.143969    0.805332    0.000000
    54  Si    c     0.853443    0.969216    0.137524    0.000000
    55  Si    c     0.118615    0.958267    0.366864    0.000000
    56  Si    c     0.854485    0.878383    0.037294    0.000000
    57  Ge    c     0.023881    0.130789    0.701626    0.000000
    58  Si    c     0.886722    0.022044    0.870866    0.000000
    59  Si    c     0.143833    0.101422    0.533225    0.000000
    60  Si    c     0.975003    0.845419    0.201563    0.000000
    61  O2    c     0.936147    0.003449    0.006238    0.000000
    62  O2    c     0.995865    0.916650    0.335484    0.000000
    63  O3    c     0.066571    0.037988    0.670220    0.000000
    64  O2    c     0.064445    0.976693    0.502448    0.000000
    65  O2    c     0.015480    0.063760    0.842534    0.000000
    66  O2    c     0.932422    0.929530    0.171426    0.000000
    67  O2    c     0.338514    0.566846    0.332615    0.000000
    68  O2    c     0.417135    0.741212    0.660810    0.000000
    69  O2    c     0.241727    0.654538    0.001160    0.000000
    70  O2    c     0.664160    0.411763    0.829174    0.000000
    71  O2    c     0.583724    0.236876    0.168782    0.000000
    72  O2    c     0.751678    0.318854    0.499927    0.000000
    73  O3    c     0.581843    0.337910    0.002278    0.000000
    74  O2    c     0.754032    0.397201    0.664642    0.000000
    75  O2    c     0.656551    0.224842    0.335012    0.000000
    76  O2    c     0.412204    0.639466    0.497626    0.000000
    77  O2    c     0.241408    0.576524    0.167279    0.000000
    78  O3    c     0.350802    0.753675    0.835075    0.000000
    79  O2    c     0.120043    0.209575    0.974919    0.000000
    80  O2    c     0.784936    0.900389    0.306899    0.000000
    81  O2    c     0.079982    0.849955    0.636426    0.000000
    82  O2    c     0.868057    0.770161    0.472445    0.000000
    83  O2    c     0.217006    0.082874    0.807632    0.000000
    84  O2    c     0.915384    0.123408    0.141654    0.000000
    85  O2    c     0.210802    0.112609    0.360777    0.000000
    86  O2    c     0.912527    0.783884    0.029272    0.000000
    87  O3    c     0.860977    0.062924    0.692237    0.000000
    88  O2    c     0.792789    0.868298    0.864466    0.000000
    89  O2    c     0.078803    0.190832    0.527307    0.000000
    90  O2    c     0.128917    0.909552    0.196036    0.000000
    91  O2    c     0.934776    0.853095    0.252505    0.000000
    92  O2    c     0.133227    0.054997    0.584927    0.000000
    93  O2    c     0.922577    0.056998    0.922524    0.000000
    94  O3    c     0.057777    0.122741    0.757423    0.000000
    95  O2    c     0.869520    0.924966    0.088427    0.000000
    96  O2    c     0.066320    0.921365    0.417863    0.000000
    97  O2    c     0.899146    0.201451    0.982409    0.000000
    98  O2    c     0.794466    0.685939    0.313995    0.000000
    99  O2    c     0.294507    0.072307    0.646958    0.000000
   100  O2    c     0.088237    0.773920    0.477467    0.000000
   101  O2    c     0.211707    0.296435    0.815932    0.000000
   102  O2    c     0.701462    0.899546    0.148641    0.000000
   103  O2    c     0.200037    0.888339    0.354760    0.000000
   104  O2    c     0.704183    0.807378    0.024107    0.000000
   105  O3    c     0.099830    0.291183    0.686694    0.000000
   106  O2    c     0.819110    0.101560    0.852863    0.000000
   107  O2    c     0.294219    0.183950    0.520174    0.000000
   108  O2    c     0.906082    0.695466    0.187906    0.000000
   109  O2    c     0.322211    0.637541    0.250438    0.000000
   110  O2    c     0.346688    0.656279    0.579596    0.000000
   111  O2    c     0.334483    0.668259    0.919090    0.000000
   112  O2    c     0.670157    0.328608    0.748240    0.000000
   113  O2    c     0.650331    0.323583    0.085814    0.000000
   114  O2    c     0.670843    0.305555    0.417577    0.000000
   115  O3    c     0.364673    0.308213    0.976251    0.000000
   116  O2    c     0.667853    0.031941    0.305869    0.000000
   117  O2    c     0.950152    0.603451    0.635876    0.000000
   118  O2    c     0.620197    0.652621    0.470827    0.000000
   119  O3    c     0.318627    0.939676    0.808127    0.000000
   120  O2    c     0.046928    0.371223    0.139479    0.000000
   121  O2    c     0.327466    0.360631    0.362689    0.000000
   122  O2    c     0.047854    0.669235    0.030447    0.000000
   123  O2    c     0.615606    0.926445    0.698500    0.000000
   124  O2    c     0.680292    0.616866    0.866313    0.000000
   125  O2    c     0.946359    0.306007    0.529337    0.000000
   126  O2    c     0.377030    0.040980    0.198074    0.000000
   127  O2    c     0.771909    0.301272    0.013997    0.000000
   128  O2    c     0.693920    0.453530    0.345195    0.000000
   129  O2    c     0.523359    0.203716    0.679073    0.000000
   130  O2    c     0.219305    0.673505    0.508159    0.000000
   131  O2    c     0.315414    0.525534    0.849115    0.000000
   132  O2    c     0.469143    0.766589    0.178670    0.000000
   133  O2    c     0.301312    0.758681    0.323719    0.000000
   134  O2    c     0.473062    0.691857    0.991267    0.000000
   135  O2    c     0.223115    0.514462    0.653305    0.000000
   136  O2    c     0.698061    0.213256    0.820535    0.000000
   137  O2    c     0.525374    0.284896    0.490044    0.000000
   138  O2    c     0.776208    0.464684    0.158054    0.000000
   139  O2    c     0.790194    0.532588    0.029063    0.000000
   140  O2    c     0.462085    0.236881    0.362056    0.000000
   141  O2    c     0.728530    0.182067    0.696050    0.000000
   142  O2    c     0.204790    0.442622    0.527052    0.000000
   143  O2    c     0.540751    0.730880    0.866843    0.000000
   144  O2    c     0.253664    0.782261    0.195970    0.000000
   145  O2    c     0.533182    0.772628    0.306358    0.000000
   146  O2    c     0.263775    0.461498    0.973927    0.000000
   147  O2    c     0.210541    0.731260    0.634767    0.000000
   148  O2    c     0.468585    0.194883    0.804519    0.000000
   149  O2    c     0.743831    0.517189    0.472699    0.000000
   150  O2    c     0.787719    0.246997    0.140497    0.000000
   151  O2    c     0.244023    0.317068    0.901555    0.000000
   152  O2    c     0.676672    0.901128    0.232891    0.000000
   153  O2    c     0.081502    0.744265    0.561962    0.000000
   154  O2    c     0.763101    0.661804    0.398462    0.000000
   155  O2    c     0.321074    0.069701    0.733190    0.000000
   156  O2    c     0.912413    0.230202    0.066976    0.000000
   157  O2    c     0.318105    0.215053    0.435372    0.000000
   158  O2    c     0.912383    0.674136    0.103092    0.000000
   159  O2    c     0.762737    0.069014    0.768515    0.000000
   160  O2    c     0.682691    0.753010    0.939396    0.000000
   161  O2    c     0.082255    0.299376    0.601763    0.000000
   162  O2    c     0.232691    0.901461    0.270134    0.000000
   163  O3    c     0.602578    0.564818    0.001562    0.000000
   164  O2    c     0.439135    0.017657    0.325828    0.000000
   165  O2    c     0.961365    0.387110    0.656488    0.000000
   166  O2    c     0.404352    0.422879    0.490275    0.000000
   167  O3    c     0.577521    0.955431    0.831060    0.000000
   168  O2    c     0.035044    0.587909    0.158741    0.000000
   169  O2    c     0.556240    0.573618    0.342584    0.000000
   170  O2    c     0.031334    0.439466    0.010918    0.000000
   171  O2    c     0.406470    0.947299    0.679253    0.000000
   172  O2    c     0.450869    0.405747    0.846678    0.000000
   173  O2    c     0.962646    0.534914    0.507769    0.000000
   174  O2    c     0.589285    0.025010    0.178126    0.000000
   175  O2    c     0.583259    0.158236    0.251968    0.000000
   176  O2    c     0.825489    0.394206    0.582306    0.000000
   177  O3    c     0.601551    0.400778    0.914731    0.000000
   178  O3    c     0.404366    0.792091    0.747134    0.000000
   179  O2    c     0.170742    0.581489    0.084340    0.000000
   180  O2    c     0.414368    0.568719    0.415598    0.000000
   181  F     c     0.452800    0.896281    0.252692    0.000000
   182  F     c     0.084368    0.523129    0.583102    0.000000
   183  F     c     0.479090    0.516060    0.928622    0.000000
   184  F     c     0.522427    0.033237    0.759565    0.000000
   185  F     c     0.914924    0.452997    0.086121    0.000000
   186  F     c     0.543418    0.437227    0.418206    0.000000
   187  O2    s     0.930401    0.002286    0.005811    0.000000
   188  O2    s     0.996482    0.912659    0.335310    0.000000
   189  O3    s     0.071100    0.042409    0.669097    0.000000
   190  O2    s     0.068651    0.977836    0.502023    0.000000
   191  O2    s     0.013160    0.067940    0.841595    0.000000
   192  O2    s     0.928407    0.924480    0.171036    0.000000
   193  O2    s     0.350431    0.574453    0.332729    0.000000
   194  O2    s     0.408360    0.743901    0.661452    0.000000
   195  O2    s     0.238164    0.643162    0.001233    0.000000
   196  O2    s     0.653113    0.402646    0.829745    0.000000
   197  O2    s     0.590797    0.232171    0.168768    0.000000
   198  O2    s     0.756408    0.330889    0.499926    0.000000
   199  O3    s     0.591311    0.347993    0.003256    0.000000
   200  O2    s     0.757644    0.389257    0.664976    0.000000
   201  O2    s     0.644669    0.220952    0.335051    0.000000
   202  O2    s     0.404568    0.627533    0.497835    0.000000
   203  O2    s     0.237387    0.584225    0.167471    0.000000
   204  O3    s     0.360491    0.753815    0.836174    0.000000
   205  O2    s     0.117484    0.212348    0.972512    0.000000
   206  O2    s     0.781742    0.893825    0.304382    0.000000
   207  O2    s     0.086997    0.853438    0.634066    0.000000
   208  O2    s     0.871539    0.766742    0.469913    0.000000
   209  O2    s     0.219822    0.088344    0.805243    0.000000
   210  O2    s     0.908632    0.119835    0.139119    0.000000
   211  O2    s     0.214089    0.109171    0.363507    0.000000
   212  O2    s     0.906537    0.780918    0.032090    0.000000
   213  O3    s     0.861786    0.068099    0.695226    0.000000
   214  O2    s     0.790117    0.871240    0.867226    0.000000
   215  O2    s     0.085709    0.194421    0.529978    0.000000
   216  O2    s     0.125585    0.902574    0.198640    0.000000
   217  O2    s     0.932649    0.850559    0.252480    0.000000
   218  O2    s     0.135551    0.054507    0.584725    0.000000
   219  O2    s     0.923538    0.059897    0.922027    0.000000
   220  O3    s     0.061950    0.125683    0.757617    0.000000
   221  O2    s     0.865968    0.924718    0.088203    0.000000
   222  O2    s     0.067083    0.918542    0.417844    0.000000
   223  O2    s     0.907080    0.202498    0.985069    0.000000
   224  O2    s     0.792897    0.691989    0.316681    0.000000
   225  O2    s     0.288635    0.065074    0.649715    0.000000
   226  O2    s     0.081082    0.772797    0.480388    0.000000
   227  O2    s     0.212517    0.289773    0.818652    0.000000
   228  O2    s     0.707416    0.906871    0.151372    0.000000
   229  O2    s     0.201433    0.896195    0.352213    0.000000
   230  O2    s     0.710599    0.803732    0.021902    0.000000
   231  O3    s     0.092528    0.286221    0.684106    0.000000
   232  O2    s     0.814740    0.091130    0.851132    0.000000
   233  O2    s     0.287952    0.185199    0.517672    0.000000
   234  O2    s     0.913780    0.701907    0.185496    0.000000
   235  O2    s     0.328185    0.649344    0.250497    0.000000
   236  O2    s     0.335002    0.650422    0.579727    0.000000
   237  O2    s     0.339184    0.663396    0.919284    0.000000
   238  O2    s     0.665196    0.318420    0.748232    0.000000
   239  O2    s     0.661091    0.328533    0.085974    0.000000
   240  O2    s     0.665134    0.311580    0.417590    0.000000
   241  O3    s     0.363967    0.318028    0.973446    0.000000
   242  O2    s     0.657908    0.025270    0.303541    0.000000
   243  O2    s     0.956562    0.599857    0.633468    0.000000
   244  O2    s     0.616998    0.642621    0.468464    0.000000
   245  O3    s     0.328119    0.950186    0.805248    0.000000
   246  O2    s     0.040221    0.374677    0.137116    0.000000
   247  O2    s     0.337407    0.363761    0.364862    0.000000
   248  O2    s     0.041180    0.658922    0.032669    0.000000
   249  O2    s     0.613082    0.933308    0.700227    0.000000
   250  O2    s     0.671086    0.613990    0.868299    0.000000
   251  O2    s     0.953137    0.316154    0.531436    0.000000
   252  O2    s     0.380080    0.034011    0.200230    0.000000
   253  O2    s     0.779322    0.308635    0.016772    0.000000
   254  O2    s     0.686105    0.452840    0.348219    0.000000
   255  O2    s     0.524566    0.197390    0.681773    0.000000
   256  O2    s     0.212443    0.665933    0.511251    0.000000
   257  O2    s     0.322039    0.525379    0.851595    0.000000
   258  O2    s     0.468509    0.773490    0.181743    0.000000
   259  O2    s     0.308986    0.766049    0.320567    0.000000
   260  O2    s     0.472041    0.684550    0.988803    0.000000
   261  O2    s     0.216199    0.515068    0.650132    0.000000
   262  O2    s     0.691024    0.207361    0.818094    0.000000
   263  O2    s     0.526003    0.292525    0.486838    0.000000
   264  O2    s     0.783038    0.464284    0.154836    0.000000
   265  O2    s     0.795070    0.530627    0.031721    0.000000
   266  O2    s     0.464627    0.244542    0.364632    0.000000
   267  O2    s     0.723010    0.179158    0.698227    0.000000
   268  O2    s     0.199894    0.445420    0.529528    0.000000
   269  O2    s     0.539088    0.725625    0.868968    0.000000
   270  O2    s     0.261268    0.787152    0.198558    0.000000
   271  O2    s     0.530666    0.778273    0.303724    0.000000
   272  O2    s     0.269906    0.464452    0.971786    0.000000
   273  O2    s     0.205020    0.722837    0.632274    0.000000
   274  O2    s     0.471453    0.191476    0.802417    0.000000
   275  O2    s     0.735869    0.514535    0.470055    0.000000
   276  O2    s     0.793097    0.255161    0.137917    0.000000
   277  O2    s     0.252157    0.325909    0.902044    0.000000
   278  O2    s     0.667106    0.900865    0.233847    0.000000
   279  O2    s     0.082042    0.735031    0.562942    0.000000
   280  O2    s     0.753824    0.652144    0.399417    0.000000
   281  O2    s     0.329541    0.069793    0.733622    0.000000
   282  O2    s     0.911831    0.239602    0.067932    0.000000
   283  O2    s     0.327760    0.224604    0.434553    0.000000
   284  O2    s     0.912195    0.664444    0.102314    0.000000
   285  O2    s     0.754729    0.069264    0.767627    0.000000
   286  O2    s     0.674319    0.745918    0.938328    0.000000
   287  O2    s     0.082706    0.309274    0.600744    0.000000
   288  O2    s     0.242044    0.901197    0.269304    0.000000
   289  O3    s     0.598610    0.569873    0.997824    0.000000
   290  O2    s     0.438814    0.012671    0.322405    0.000000
   291  O2    s     0.966561    0.392610    0.653028    0.000000
   292  O2    s     0.409370    0.422607    0.486869    0.000000
   293  O3    s     0.581900    0.964671    0.827413    0.000000
   294  O2    s     0.029726    0.582803    0.155330    0.000000
   295  O2    s     0.556361    0.569099    0.345950    0.000000
   296  O2    s     0.026538    0.439493    0.014350    0.000000
   297  O2    s     0.409759    0.951664    0.681937    0.000000
   298  O2    s     0.450087    0.409229    0.849521    0.000000
   299  O2    s     0.967368    0.535272    0.511131    0.000000
   300  O2    s     0.584731    0.020074    0.181426    0.000000
   301  O2    s     0.577749    0.147205    0.251941    0.000000
   302  O2    s     0.836680    0.399728    0.582338    0.000000
   303  O3    s     0.596487    0.408294    0.912886    0.000000
   304  O3    s     0.411881    0.804665    0.745312    0.000000
   305  O2    s     0.159385    0.575862    0.084373    0.000000
   306  O2    s     0.419706    0.562956    0.415659    0.000000
   307  F     s     0.452651    0.895829    0.252859    0.000000
   308  F     s     0.084360    0.523038    0.583315    0.000000
   309  F     s     0.483028    0.509528    0.931214    0.000000
   310  F     s     0.516237    0.022924    0.762225    0.000000
   311  F     s     0.915482    0.453141    0.086264    0.000000
   312  F     s     0.543626    0.437136    0.418379    0.000000
--------------------------------------------------------------------------------

  Final Cartesian lattice vectors (Angstroms) :

       12.013315    0.001666    0.008420
       -5.972113   10.342634   -0.000662
       -0.026561    0.377699   29.512510


  Final cell parameters and derivatives :

--------------------------------------------------------------------------------
       a           12.013318 Angstrom     dE/de1(xx)     0.000248 eV/strain
       b           11.943040 Angstrom     dE/de2(yy)     0.000477 eV/strain
       c           29.514939 Angstrom     dE/de3(zz)     0.000594 eV/strain
       alpha       89.342426 Degrees      dE/de4(yz)     0.000023 eV/strain
       beta        90.011304 Degrees      dE/de5(xz)    -0.000081 eV/strain
       gamma      119.995332 Degrees      dE/de6(xy)     0.000037 eV/strain
--------------------------------------------------------------------------------

  Primitive cell volume =          3667.189144 Angs**3

  Density of cell =      1.744686 g/cm**3

  Non-primitive cell volume =          3667.189144 Angs**3


  Final internal derivatives :

--------------------------------------------------------------------------------
   No.  Atomic          a             b             c           Radius
        Label          (eV)          (eV)          (eV)        (eV/Angs)
--------------------------------------------------------------------------------
      1 Si    c       0.000000      0.000000      0.000000      0.000000
      2 Si    c      -0.000010      0.000017      0.000064      0.000000
      3 Si    c       0.000026     -0.000124     -0.000030      0.000000
      4 Si    c      -0.000002      0.000010     -0.000024      0.000000
      5 Si    c       0.000099     -0.000031      0.000296      0.000000
      6 Si    c      -0.000020      0.000019     -0.000031      0.000000
      7 Si    c       0.000085     -0.000105      0.000367      0.000000
      8 Si    c       0.000074     -0.000084     -0.000169      0.000000
      9 Si    c      -0.000005      0.000017     -0.000069      0.000000
     10 Si    c       0.000058     -0.000160      0.000140      0.000000
     11 Si    c      -0.000017      0.000018     -0.000057      0.000000
     12 Si    c      -0.000008      0.000040     -0.000059      0.000000
     13 Ge    c      -0.000900      0.000960     -0.002097      0.000000
     14 Si    c       0.000006     -0.000117     -0.000025      0.000000
     15 Si    c      -0.000012     -0.000036     -0.000067      0.000000
     16 Si    c       0.000005      0.000001     -0.000034      0.000000
     17 Ge    c       0.000099      0.000560     -0.000254      0.000000
     18 Si    c       0.000013     -0.000028      0.000080      0.000000
     19 Si    c       0.000041     -0.000034      0.000127      0.000000
     20 Si    c       0.000020     -0.000058     -0.000002      0.000000
     21 Si    c       0.000071     -0.000138     -0.001205      0.000000
     22 Si    c       0.000095     -0.000027     -0.000429      0.000000
     23 Si    c       0.000026     -0.000021      0.000003      0.000000
     24 Si    c      -0.000002     -0.000018      0.000069      0.000000
     25 Si    c       0.000036      0.000018      0.000103      0.000000
     26 Si    c       0.000061     -0.000054     -0.000023      0.000000
     27 Si    c       0.000017      0.000015     -0.000008      0.000000
     28 Si    c       0.000010      0.000006      0.000074      0.000000
     29 Si    c      -0.000004     -0.000024     -0.000171      0.000000
     30 Si    c       0.000003      0.000031      0.000091      0.000000
     31 Si    c      -0.000000      0.000028     -0.000127      0.000000
     32 Si    c       0.000008     -0.000044     -0.000080      0.000000
     33 Si    c      -0.000040      0.000002      0.000323      0.000000
     34 Si    c      -0.000024      0.000254      0.000272      0.000000
     35 Si    c      -0.000008     -0.000096      0.000060      0.000000
     36 Si    c       0.000049     -0.000007     -0.000033      0.000000
     37 Si    c       0.000012     -0.000044     -0.000157      0.000000
     38 Si    c      -0.000059      0.000021     -0.000035      0.000000
     39 Si    c       0.000028      0.000014     -0.000082      0.000000
     40 Si    c       0.000005     -0.000005     -0.000095      0.000000
     41 Si    c       0.000135     -0.000072     -0.000048      0.000000
     42 Si    c       0.000041     -0.000025      0.000019      0.000000
     43 Si    c      -0.000003      0.000016      0.000101      0.000000
     44 Si    c      -0.000073     -0.000054     -0.000148      0.000000
     45 Si    c      -0.000169      0.000152      0.000218      0.000000
     46 Si    c      -0.000143      0.000040      0.000083      0.000000
     47 Si    c      -0.000009     -0.000011      0.000024      0.000000
     48 Si    c      -0.000044      0.000054      0.000093      0.000000
     49 Si    c       0.000096      0.000106      0.000075      0.000000
     50 Si    c      -0.000049     -0.000040     -0.000197      0.000000
     51 Si    c      -0.000228      0.000236      0.000926      0.000000
     52 Si    c      -0.000012     -0.000005      0.000266      0.000000
     53 Si    c      -0.000367      0.000058     -0.000401      0.000000
     54 Si    c      -0.000247      0.000045      0.000021      0.000000
     55 Si    c       0.000050     -0.000035      0.000097      0.000000
     56 Si    c      -0.000137     -0.000459      0.000412      0.000000
     57 Ge    c       0.000129     -0.000409     -0.001162      0.000000
     58 Si    c      -0.000236      0.000222     -0.000396      0.000000
     59 Si    c      -0.000109      0.000031      0.000186      0.000000
     60 Si    c       0.000316     -0.000232     -0.000302      0.000000
     61 O2    c       0.000292      0.000302     -0.000943      0.000000
     62 O2    c      -0.000040     -0.000011      0.000050      0.000000
     63 O3    c       0.000137      0.000137     -0.001090      0.000000
     64 O2    c       0.000030     -0.000056     -0.000081      0.000000
     65 O2    c       0.000067     -0.000140     -0.000664      0.000000
     66 O2    c      -0.000039      0.000313      0.000291      0.000000
     67 O2    c      -0.000038      0.000057     -0.000067      0.000000
     68 O2    c       0.000001      0.000005      0.000000      0.000000
     69 O2    c      -0.000025      0.000027      0.000026      0.000000
     70 O2    c       0.000051      0.000001     -0.000136      0.000000
     71 O2    c      -0.000052     -0.000005      0.000113      0.000000
     72 O2    c      -0.000002     -0.000013     -0.000049      0.000000
     73 O3    c      -0.000126      0.000087     -0.000192      0.000000
     74 O2    c      -0.000008      0.000010      0.000017      0.000000
     75 O2    c      -0.000004      0.000012      0.000008      0.000000
     76 O2    c      -0.000002      0.000003      0.000030      0.000000
     77 O2    c      -0.000016      0.000019      0.000036      0.000000
     78 O3    c       0.000008     -0.000005      0.000012      0.000000
     79 O2    c       0.000056      0.000049      0.000134      0.000000
     80 O2    c      -0.000010      0.000003      0.000022      0.000000
     81 O2    c       0.000014     -0.000018     -0.000084      0.000000
     82 O2    c      -0.000058      0.000000     -0.000025      0.000000
     83 O2    c       0.000076     -0.000052      0.000008      0.000000
     84 O2    c      -0.000019      0.000248     -0.000001      0.000000
     85 O2    c      -0.000012      0.000031     -0.000010      0.000000
     86 O2    c       0.000089     -0.000057     -0.000056      0.000000
     87 O3    c       0.000229     -0.000095     -0.000035      0.000000
     88 O2    c       0.000026     -0.000125     -0.000054      0.000000
     89 O2    c       0.000078     -0.000091     -0.000000      0.000000
     90 O2    c      -0.000034     -0.000000      0.000037      0.000000
     91 O2    c      -0.000115      0.000005      0.001118      0.000000
     92 O2    c       0.000056     -0.000047     -0.000225      0.000000
     93 O2    c      -0.000012     -0.000191     -0.000397      0.000000
     94 O3    c       0.000605      0.000116      0.003988      0.000000
     95 O2    c       0.000159     -0.000055      0.000016      0.000000
     96 O2    c       0.000042      0.000055     -0.000311      0.000000
     97 O2    c      -0.000253      0.000246      0.000076      0.000000
     98 O2    c       0.000017     -0.000104     -0.000043      0.000000
     99 O2    c      -0.000033     -0.000016      0.000059      0.000000
    100 O2    c       0.000021     -0.000034     -0.000044      0.000000
    101 O2    c       0.000027      0.000131      0.000193      0.000000
    102 O2    c       0.000007      0.000006      0.000020      0.000000
    103 O2    c       0.000026     -0.000040     -0.000052      0.000000
    104 O2    c       0.000065     -0.000015     -0.000019      0.000000
    105 O3    c      -0.000090      0.000068     -0.000209      0.000000
    106 O2    c       0.000146     -0.000131      0.000023      0.000000
    107 O2    c       0.000029     -0.000011     -0.000002      0.000000
    108 O2    c      -0.000013     -0.000076      0.000018      0.000000
    109 O2    c      -0.000027     -0.000024     -0.000413      0.000000
    110 O2    c      -0.000008      0.000010      0.000041      0.000000
    111 O2    c       0.000057     -0.000015     -0.000283      0.000000
    112 O2    c      -0.000004      0.000068     -0.000216      0.000000
    113 O2    c      -0.000060      0.000107     -0.000488      0.000000
    114 O2    c      -0.000025      0.000025     -0.000073      0.000000
    115 O3    c      -0.000104     -0.000093      0.000187      0.000000
    116 O2    c      -0.000030      0.000019     -0.000007      0.000000
    117 O2    c      -0.000013      0.000025      0.000033      0.000000
    118 O2    c      -0.000018      0.000006     -0.000012      0.000000
    119 O3    c      -0.000065      0.000078      0.000041      0.000000
    120 O2    c      -0.000010     -0.000003     -0.000007      0.000000
    121 O2    c       0.000006     -0.000016      0.000015      0.000000
    122 O2    c      -0.000073      0.000067     -0.000014      0.000000
    123 O2    c       0.000034      0.000017     -0.000072      0.000000
    124 O2    c      -0.000009      0.000016     -0.000084      0.000000
    125 O2    c       0.000014     -0.000014     -0.000022      0.000000
    126 O2    c      -0.000009     -0.000008      0.000013      0.000000
    127 O2    c       0.000035     -0.000029     -0.000020      0.000000
    128 O2    c      -0.000005      0.000007      0.000003      0.000000
    129 O2    c       0.000018      0.000045      0.000016      0.000000
    130 O2    c       0.000005     -0.000003      0.000013      0.000000
    131 O2    c      -0.000006     -0.000002      0.000027      0.000000
    132 O2    c       0.000008     -0.000015     -0.000021      0.000000
    133 O2    c      -0.000047      0.000037      0.000113      0.000000
    134 O2    c      -0.000071      0.000042     -0.000047      0.000000
    135 O2    c       0.000009      0.000022      0.000019      0.000000
    136 O2    c      -0.000063      0.000088     -0.000092      0.000000
    137 O2    c       0.000007     -0.000002     -0.000019      0.000000
    138 O2    c       0.000021     -0.000029      0.000010      0.000000
    139 O2    c       0.000052      0.000146      0.000156      0.000000
    140 O2    c       0.000022     -0.000007     -0.000017      0.000000
    141 O2    c       0.000021     -0.000031      0.000078      0.000000
    142 O2    c      -0.000002     -0.000007     -0.000019      0.000000
    143 O2    c       0.000018     -0.000019      0.000058      0.000000
    144 O2    c      -0.000022      0.000021     -0.000002      0.000000
    145 O2    c       0.000037     -0.000014      0.000046      0.000000
    146 O2    c      -0.000011      0.000144      0.000122      0.000000
    147 O2    c       0.000010     -0.000004     -0.000026      0.000000
    148 O2    c       0.000026     -0.000011     -0.000070      0.000000
    149 O2    c       0.000003      0.000003     -0.000021      0.000000
    150 O2    c       0.000026     -0.000054      0.000057      0.000000
    151 O2    c       0.000004     -0.000010      0.000287      0.000000
    152 O2    c       0.000015     -0.000028      0.000108      0.000000
    153 O2    c       0.000000      0.000011     -0.000025      0.000000
    154 O2    c      -0.000017     -0.000031      0.000010      0.000000
    155 O2    c      -0.000110      0.000028      0.000349      0.000000
    156 O2    c      -0.000012      0.000016     -0.000014      0.000000
    157 O2    c       0.000005      0.000015     -0.000080      0.000000
    158 O2    c       0.000024     -0.000043      0.000097      0.000000
    159 O2    c       0.000135     -0.000198     -0.000972      0.000000
    160 O2    c       0.000103     -0.000072     -0.000662      0.000000
    161 O2    c      -0.000002     -0.000013      0.000003      0.000000
    162 O2    c      -0.000026      0.000019     -0.000323      0.000000
    163 O3    c       0.000206     -0.000104      0.000801      0.000000
    164 O2    c       0.000005     -0.000005     -0.000034      0.000000
    165 O2    c       0.000019     -0.000023      0.000036      0.000000
    166 O2    c       0.000009     -0.000007     -0.000037      0.000000
    167 O3    c       0.000030     -0.000032      0.000140      0.000000
    168 O2    c      -0.000008      0.000005      0.000022      0.000000
    169 O2    c      -0.000004      0.000004     -0.000000      0.000000
    170 O2    c       0.000001      0.000009      0.000012      0.000000
    171 O2    c      -0.000009      0.000008     -0.000068      0.000000
    172 O2    c      -0.000047      0.000014     -0.000070      0.000000
    173 O2    c      -0.000009     -0.000023     -0.000021      0.000000
    174 O2    c      -0.000057      0.000112     -0.000018      0.000000
    175 O2    c      -0.000013      0.000006     -0.000092      0.000000
    176 O2    c       0.000009      0.000005      0.000040      0.000000
    177 O3    c       0.000357     -0.000380     -0.000206      0.000000
    178 O3    c      -0.000053     -0.000414      0.000418      0.000000
    179 O2    c       0.000005     -0.000001     -0.000028      0.000000
    180 O2    c       0.000002      0.000004      0.000080      0.000000
    181 F     c       0.000026     -0.000082      0.000173      0.000000
    182 F     c      -0.000015      0.000013     -0.000018      0.000000
    183 F     c       0.000163     -0.000282      0.000798      0.000000
    184 F     c      -0.000007     -0.000053      0.000427      0.000000
    185 F     c       0.000006     -0.000037      0.000003      0.000000
    186 F     c      -0.000001     -0.000005      0.000010      0.000000
    187 O2    s       0.000015     -0.000148      0.000226      0.000000
    188 O2    s       0.000036      0.000039      0.000015      0.000000
    189 O3    s      -0.000109     -0.000059      0.000246      0.000000
    190 O2    s       0.000026      0.000050      0.000231      0.000000
    191 O2    s       0.000083      0.000019      0.000102      0.000000
    192 O2    s       0.000043      0.000022      0.000172      0.000000
    193 O2    s       0.000021     -0.000054      0.000002      0.000000
    194 O2    s      -0.000012     -0.000011     -0.000015      0.000000
    195 O2    s       0.000005      0.000010      0.000012      0.000000
    196 O2    s      -0.000065      0.000090      0.000205      0.000000
    197 O2    s       0.000045     -0.000023     -0.000019      0.000000
    198 O2    s      -0.000004      0.000012      0.000056      0.000000
    199 O3    s       0.000027     -0.000032      0.000183      0.000000
    200 O2    s      -0.000001      0.000028     -0.000058      0.000000
    201 O2    s       0.000014      0.000007      0.000044      0.000000
    202 O2    s       0.000004      0.000003     -0.000058      0.000000
    203 O2    s       0.000015     -0.000003     -0.000042      0.000000
    204 O3    s      -0.000015     -0.000027     -0.000039      0.000000
    205 O2    s       0.000019      0.000083     -0.000153      0.000000
    206 O2    s      -0.000033      0.000021     -0.000029      0.000000
    207 O2    s      -0.000067      0.000111      0.000141      0.000000
    208 O2    s      -0.000027     -0.000009      0.000006      0.000000
    209 O2    s      -0.000168      0.000123     -0.000059      0.000000
    210 O2    s      -0.000081      0.000085      0.000073      0.000000
    211 O2    s       0.000002      0.000031     -0.000069      0.000000
    212 O2    s       0.000143     -0.000210     -0.000158      0.000000
    213 O3    s      -0.000105     -0.000064     -0.000159      0.000000
    214 O2    s      -0.000056     -0.000046     -0.000047      0.000000
    215 O2    s       0.000011      0.000000      0.000025      0.000000
    216 O2    s       0.000111     -0.000003     -0.000011      0.000000
    217 O2    s       0.000098      0.000044     -0.000142      0.000000
    218 O2    s       0.000044     -0.000036      0.000384      0.000000
    219 O2    s       0.000095      0.000066     -0.000328      0.000000
    220 O3    s      -0.000072     -0.000084     -0.002323      0.000000
    221 O2    s      -0.000204      0.000001      0.000093      0.000000
    222 O2    s      -0.000008      0.000010      0.000207      0.000000
    223 O2    s      -0.000040      0.000130      0.000050      0.000000
    224 O2    s      -0.000098      0.000028      0.000068      0.000000
    225 O2    s      -0.000148      0.000078     -0.000310      0.000000
    226 O2    s       0.000005     -0.000015      0.000105      0.000000
    227 O2    s      -0.000101     -0.000019     -0.000328      0.000000
    228 O2    s      -0.000093      0.000005      0.000015      0.000000
    229 O2    s       0.000031     -0.000006      0.000068      0.000000
    230 O2    s      -0.000257      0.000080      0.000163      0.000000
    231 O3    s       0.000150     -0.000035      0.000078      0.000000
    232 O2    s      -0.000073      0.000207      0.000555      0.000000
    233 O2    s      -0.000036      0.000023      0.000038      0.000000
    234 O2    s       0.000089     -0.000203     -0.000283      0.000000
    235 O2    s       0.000007      0.000090      0.000277      0.000000
    236 O2    s       0.000031     -0.000016      0.000013      0.000000
    237 O2    s      -0.000136      0.000108      0.000013      0.000000
    238 O2    s       0.000009      0.000046     -0.000061      0.000000
    239 O2    s      -0.000024     -0.000002      0.000277      0.000000
    240 O2    s       0.000018     -0.000021      0.000011      0.000000
    241 O3    s       0.000205     -0.000021     -0.000081      0.000000
    242 O2    s       0.000067     -0.000004      0.000060      0.000000
    243 O2    s       0.000015      0.000006     -0.000015      0.000000
    244 O2    s       0.000006     -0.000006      0.000008      0.000000
    245 O3    s       0.000030     -0.000114     -0.000061      0.000000
    246 O2    s       0.000008     -0.000014      0.000007      0.000000
    247 O2    s      -0.000028      0.000016     -0.000048      0.000000
    248 O2    s       0.000001     -0.000020      0.000150      0.000000
    249 O2    s      -0.000079     -0.000015      0.000182      0.000000
    250 O2    s       0.000055     -0.000150      0.000189      0.000000
    251 O2    s      -0.000017      0.000014      0.000016      0.000000
    252 O2    s      -0.000028      0.000012     -0.000074      0.000000
    253 O2    s       0.000077     -0.000090     -0.000124      0.000000
    254 O2    s      -0.000003     -0.000008      0.000012      0.000000
    255 O2    s      -0.000014      0.000049     -0.000259      0.000000
    256 O2    s       0.000020      0.000000     -0.000050      0.000000
    257 O2    s      -0.000071      0.000022     -0.000196      0.000000
    258 O2    s      -0.000047      0.000004     -0.000048      0.000000
    259 O2    s       0.000081     -0.000085     -0.000249      0.000000
    260 O2    s       0.000053     -0.000017      0.000235      0.000000
    261 O2    s       0.000002     -0.000001     -0.000013      0.000000
    262 O2    s       0.000026      0.000091      0.000249      0.000000
    263 O2    s       0.000010     -0.000009      0.000072      0.000000
    264 O2    s      -0.000041      0.000049      0.000022      0.000000
    265 O2    s       0.000005     -0.000097     -0.000030      0.000000
    266 O2    s      -0.000002      0.000002     -0.000016      0.000000
    267 O2    s       0.000038      0.000002     -0.000208      0.000000
    268 O2    s       0.000007     -0.000002      0.000030      0.000000
    269 O2    s      -0.000047      0.000072     -0.000195      0.000000
    270 O2    s       0.000043     -0.000045      0.000019      0.000000
    271 O2    s      -0.000097      0.000022     -0.000161      0.000000
    272 O2    s      -0.000065     -0.000069      0.000057      0.000000
    273 O2    s      -0.000019      0.000012      0.000065      0.000000
    274 O2    s      -0.000099      0.000067      0.000185      0.000000
    275 O2    s      -0.000009      0.000008      0.000033      0.000000
    276 O2    s       0.000034      0.000004     -0.000091      0.000000
    277 O2    s      -0.000072     -0.000040     -0.000123      0.000000
    278 O2    s       0.000009      0.000029     -0.000007      0.000000
    279 O2    s      -0.000008     -0.000010      0.000095      0.000000
    280 O2    s       0.000016      0.000035      0.000029      0.000000
    281 O2    s       0.000023     -0.000004      0.000068      0.000000
    282 O2    s       0.000003     -0.000049     -0.000023      0.000000
    283 O2    s       0.000000     -0.000022      0.000045      0.000000
    284 O2    s      -0.000020      0.000026     -0.000059      0.000000
    285 O2    s       0.000036      0.000028      0.000069      0.000000
    286 O2    s       0.000004      0.000049      0.000506      0.000000
    287 O2    s       0.000009      0.000043     -0.000031      0.000000
    288 O2    s      -0.000021      0.000019      0.000116      0.000000
    289 O3    s      -0.000108     -0.000109     -0.000768      0.000000
    290 O2    s      -0.000022      0.000051      0.000159      0.000000
    291 O2    s      -0.000007      0.000035     -0.000027      0.000000
    292 O2    s      -0.000013      0.000023      0.000079      0.000000
    293 O3    s      -0.000126     -0.000101      0.000081      0.000000
    294 O2    s       0.000023      0.000004     -0.000004      0.000000
    295 O2    s      -0.000016      0.000001     -0.000004      0.000000
    296 O2    s       0.000001     -0.000027     -0.000052      0.000000
    297 O2    s       0.000062     -0.000139      0.000070      0.000000
    298 O2    s       0.000097     -0.000038      0.000113      0.000000
    299 O2    s      -0.000022      0.000011      0.000008      0.000000
    300 O2    s       0.000047     -0.000067     -0.000068      0.000000
    301 O2    s       0.000017      0.000017      0.000131      0.000000
    302 O2    s      -0.000002      0.000004     -0.000014      0.000000
    303 O3    s      -0.000481      0.000546      0.000595      0.000000
    304 O3    s       0.000019      0.000450      0.000130      0.000000
    305 O2    s      -0.000026      0.000018      0.000011      0.000000
    306 O2    s       0.000004     -0.000011     -0.000009      0.000000
    307 F     s      -0.000038      0.000099     -0.000301      0.000000
    308 F     s       0.000023     -0.000023      0.000032      0.000000
    309 F     s       0.000713     -0.000772      0.000885      0.000000
    310 F     s      -0.000099     -0.000346      0.000291      0.000000
    311 F     s      -0.000010      0.000076      0.000005      0.000000
    312 F     s       0.000007      0.000019     -0.000026      0.000000
--------------------------------------------------------------------------------
  Maximum abs         0.000900      0.000960      0.003988      0.000000
--------------------------------------------------------------------------------


  Time to end of optimisation =       7.1206 seconds


  Peak dynamic memory used =      19.13 MB 


  Timing analysis for GULP :

--------------------------------------------------------------------------------
  Task / Subroutine                                          Time (Seconds)
--------------------------------------------------------------------------------
  Calculation of reciprocal space energy and derivatives          0.2811
  Calculation of real space energy and derivatives                5.9516
  Calculation of three-body energy and derivatives                0.6583
  Calculation of matrix inversion                                 0.1920
--------------------------------------------------------------------------------
  Total CPU time                                                  7.1207
--------------------------------------------------------------------------------


  Dump file written as out.res                                                 
  CIF file written as out.cif                                                 


  Job Finished at 02:41.43 30th November   2016                               

