********************************************************************************
*                       GENERAL UTILITY LATTICE PROGRAM                        *
*                                 Julian Gale                                  *
*                      Nanochemistry Research Institute                        *
*                           Department of Chemistry                            *
*                    Curtin University, Western Australia                      *
********************************************************************************
* Version = 4.2.0 * Last modified =  20th January 2014                         *
********************************************************************************
*  optimise     - perform optimisation run                                     *
*  conp         - constant pressure calculation                                *
*  qok          - running with non charge neutral cell is OK                   *
********************************************************************************

  Job Started  at 02:39.04 30th November   2016                               

  Number of CPUs =     1


  Total number of configurations input =   1

********************************************************************************
*  Input for Configuration =   1                                               *
********************************************************************************

  Formula = Si57Ge3O120F6                                               

  Number of irreducible atoms/shells =     312


  Total number atoms/shells =     312

  Dimensionality = 3               :  Bulk   


  Charge on solid   =  -6.000000 =>neutralising background added


  Cartesian lattice vectors (Angstroms) :

       11.999635    0.000000    0.000000
       -5.937373   10.345820    0.000000
       -0.079680    0.265670   29.515941

  Cell parameters (Angstroms/Degrees):

  a =      11.9996    alpha =  89.4757
  b =      11.9285    beta  =  90.1547
  c =      29.5172    gamma = 119.8511

  Initial cell volume =        3664.288047 Angs**3

  Temperature of configuration =  0.000     K 

  Pressure of configuration =         0.000 GPa 

  Fractional coordinates of asymmetric unit :

--------------------------------------------------------------------------------
   No.  Atomic       x           y          z         Charge      Occupancy
        Label      (Frac)      (Frac)     (Frac)        (e)         (Frac)  
--------------------------------------------------------------------------------
      1 Si    c    0.699600    0.375700    0.033890     4.00000    1.000000    
      2 Si    c    0.620063 *  0.321496 *  0.367562 *   4.00000    1.000000    
      3 Si    c    0.678013 *  0.291731 *  0.697968 *   4.00000    1.000000    
      4 Si    c    0.296820 *  0.619665 *  0.530926 *   4.00000    1.000000    
      5 Si    c    0.378662 *  0.680724 *  0.867753 *   4.00000    1.000000    
      6 Si    c    0.323595 *  0.703401 *  0.200974 *   4.00000    1.000000    
      7 Si    c    0.379012 *  0.704195 *  0.301373 *   4.00000    1.000000    
      8 Si    c    0.328009 *  0.625457 *  0.970747 *   4.00000    1.000000    
      9 Si    c    0.298728 *  0.673649 *  0.631389 *   4.00000    1.000000    
     10 Si    c    0.623822 *  0.298490 *  0.799219 *   4.00000    1.000000    
     11 Si    c    0.673843 *  0.377163 *  0.467753 *   4.00000    1.000000    
     12 Si    c    0.705213 *  0.324923 *  0.135583 *   4.00000    1.000000    
     13 Ge    c    0.533937 *  0.432227 *  0.966513 *   4.00000    1.000000    
     14 Si    c    0.581383 *  0.111894 *  0.302641 *   4.00000    1.000000    
     15 Si    c    0.889121 *  0.466610 *  0.632750 *   4.00000    1.000000    
     16 Si    c    0.470299 *  0.581820 *  0.467422 *   4.00000    1.000000    
     17 Ge    c    0.436668 *  0.901030 *  0.797943 *   4.00000    1.000000    
     18 Si    c    0.114152 *  0.531598 *  0.136029 *   4.00000    1.000000    
     19 Si    c    0.417656 *  0.530881 *  0.366103 *   4.00000    1.000000    
     20 Si    c    0.113687 *  0.583954 *  0.034634 *   4.00000    1.000000    
     21 Si    c    0.470926 *  0.870783 *  0.699020 *   4.00000    1.000000    
     22 Si    c    0.589050 *  0.464738 *  0.867006 *   4.00000    1.000000    
     23 Si    c    0.885449 *  0.414903 *  0.531495 *   4.00000    1.000000    
     24 Si    c    0.530747 *  0.115627 *  0.201045 *   4.00000    1.000000    
     25 Si    c    0.303964 *  0.396562 *  0.855713 *   4.00000    1.000000    
     26 Si    c    0.601576 *  0.905045 *  0.186991 *   4.00000    1.000000    
     27 Si    c    0.094903 *  0.696267 *  0.517627 *   4.00000    1.000000    
     28 Si    c    0.697685 *  0.601123 *  0.352989 *   4.00000    1.000000    
     29 Si    c    0.397540 *  0.085400 *  0.684375 *   4.00000    1.000000    
     30 Si    c    0.905283 *  0.303294 *  0.021000 *   4.00000    1.000000    
     31 Si    c    0.397259 *  0.300387 *  0.482565 *   4.00000    1.000000    
     32 Si    c    0.906075 *  0.603246 *  0.150212 *   4.00000    1.000000    
     33 Si    c    0.707429 *  0.098273 *  0.819885 *   4.00000    1.000000    
     34 Si    c    0.611257 *  0.707134 *  0.987055 *   4.00000    1.000000    
     35 Si    c    0.097098 *  0.395320 *  0.646722 *   4.00000    1.000000    
     36 Si    c    0.301419 *  0.904386 *  0.316829 *   4.00000    1.000000    
     37 Si    c    0.255287 *  0.337275 *  0.957869 *   4.00000    1.000000    
     38 Si    c    0.659616 *  0.910838 *  0.287470 *   4.00000    1.000000    
     39 Si    c    0.089396 *  0.745771 *  0.618143 *   4.00000    1.000000    
     40 Si    c    0.748255 *  0.659712 *  0.453320 *   4.00000    1.000000    
     41 Si    c    0.338694 *  0.083315 *  0.786199 *   4.00000    1.000000    
     42 Si    c    0.914068 *  0.253606 *  0.121425 *   4.00000    1.000000    
     43 Si    c    0.339816 *  0.250898 *  0.382101 *   4.00000    1.000000    
     44 Si    c    0.910454 *  0.658342 *  0.049302 *   4.00000    1.000000    
     45 Si    c    0.750207 *  0.077485 *  0.717428 *   4.00000    1.000000    
     46 Si    c    0.662263 *  0.745293 *  0.883716 *   4.00000    1.000000    
     47 Si    c    0.087587 *  0.338028 *  0.546371 *   4.00000    1.000000    
     48 Si    c    0.252701 *  0.914017 *  0.216190 *   4.00000    1.000000    
     49 Si    c    0.974699 *  0.123814 *  0.973151 *   4.00000    1.000000    
     50 Si    c    0.878877 *  0.849655 *  0.302609 *   4.00000    1.000000    
     51 Si    c    0.150877 *  0.025469 *  0.634699 *   4.00000    1.000000    
     52 Si    c    0.027223 *  0.878375 *  0.468070 *   4.00000    1.000000    
     53 Si    c    0.127023 *  0.155577 *  0.801779 *   4.00000    1.000000    
     54 Si    c    0.850482 *  0.972504 *  0.138026 *   4.00000    1.000000    
     55 Si    c    0.121379 *  0.972148 *  0.367254 *   4.00000    1.000000    
     56 Si    c    0.853740 *  0.882623 *  0.037787 *   4.00000    1.000000    
     57 Si    c    0.032387 *  0.149586 *  0.700320 *   4.00000    1.000000    
     58 Ge    c    0.886899 *  0.030042 *  0.870049 *   4.00000    1.000000    
     59 Si    c    0.149952 *  0.120034 *  0.533517 *   4.00000    1.000000    
     60 Si    c    0.973078 *  0.849796 *  0.202121 *   4.00000    1.000000    
     61 O2    c    0.941730 *  0.009362 *  0.008526 *   0.87073    1.000000    
     62 O2    c    0.998811 *  0.930530 *  0.335543 *   0.87073    1.000000    
     63 O2    c    0.075663 *  0.066970 *  0.669654 *   0.87073    1.000000    
     64 O2    c    0.069171 *  0.996507 *  0.502242 *   0.87073    1.000000    
     65 O3    c    0.012235 *  0.064691 *  0.834179 *   1.33043    1.000000    
     66 O2    c    0.928956 *  0.932718 *  0.172121 *   0.87073    1.000000    
     67 O2    c    0.340538 *  0.579354 *  0.333880 *   0.87073    1.000000    
     68 O2    c    0.425973 *  0.756628 *  0.661889 *   0.87073    1.000000    
     69 O2    c    0.240049 *  0.661090 *  0.002313 *   0.87073    1.000000    
     70 O2    c    0.660895 *  0.424940 *  0.828639 *   0.87073    1.000000    
     71 O2    c    0.581908 *  0.241756 *  0.168559 *   0.87073    1.000000    
     72 O2    c    0.759411 *  0.338055 *  0.500083 *   0.87073    1.000000    
     73 O3    c    0.582833 *  0.342950 *  0.001974 *   1.33043    1.000000    
     74 O2    c    0.762320 *  0.413092 *  0.664936 *   0.87073    1.000000    
     75 O2    c    0.657996 *  0.236835 *  0.335130 *   0.87073    1.000000    
     76 O2    c    0.420018 *  0.658931 *  0.498824 *   0.87073    1.000000    
     77 O2    c    0.239736 *  0.581251 *  0.168392 *   0.87073    1.000000    
     78 O3    c    0.347697 *  0.764435 *  0.834838 *   1.33043    1.000000    
     79 O2    c    0.125618 *  0.219528 *  0.978477 *   0.87073    1.000000    
     80 O2    c    0.786834 *  0.911933 *  0.307070 *   0.87073    1.000000    
     81 O2    c    0.086603 *  0.870390 *  0.638617 *   0.87073    1.000000    
     82 O2    c    0.873467 *  0.786834 *  0.473166 *   0.87073    1.000000    
     83 O2    c    0.221139 *  0.097236 *  0.804601 *   0.87073    1.000000    
     84 O2    c    0.914237 *  0.126924 *  0.141908 *   0.87073    1.000000    
     85 O2    c    0.213748 *  0.126473 *  0.361679 *   0.87073    1.000000    
     86 O2    c    0.907919 *  0.784721 *  0.029553 *   0.87073    1.000000    
     87 O2    c    0.877776 *  0.083371 *  0.696328 *   0.87073    1.000000    
     88 O3    c    0.781756 *  0.868608 *  0.861020 *   1.33043    1.000000    
     89 O2    c    0.087056 *  0.211314 *  0.526695 *   0.87073    1.000000    
     90 O2    c    0.126745 *  0.914160 *  0.196114 *   0.87073    1.000000    
     91 O2    c    0.935097 *  0.859999 *  0.253076 *   0.87073    1.000000    
     92 O2    c    0.137384 *  0.071365 *  0.585027 *   0.87073    1.000000    
     93 O3    c    0.940328 *  0.060460 *  0.924289 *   1.33043    1.000000    
     94 O2    c    0.074252 *  0.148392 *  0.751400 *   0.87073    1.000000    
     95 O2    c    0.864904 *  0.925125 *  0.089307 *   0.87073    1.000000    
     96 O2    c    0.069065 *  0.935437 *  0.418099 *   0.87073    1.000000    
     97 O2    c    0.901327 *  0.203963 *  0.982474 *   0.87073    1.000000    
     98 O2    c    0.796836 *  0.697752 *  0.314949 *   0.87073    1.000000    
     99 O2    c    0.302434 *  0.088779 *  0.645893 *   0.87073    1.000000    
    100 O2    c    0.096149 *  0.794880 *  0.479276 *   0.87073    1.000000    
    101 O2    c    0.204198 *  0.305030 *  0.816998 *   0.87073    1.000000    
    102 O2    c    0.698692 *  0.904409 *  0.149012 *   0.87073    1.000000    
    103 O2    c    0.202509 *  0.901681 *  0.355158 *   0.87073    1.000000    
    104 O2    c    0.705177 *  0.817726 *  0.022626 *   0.87073    1.000000    
    105 O2    c    0.099884 *  0.298950 *  0.685156 *   0.87073    1.000000    
    106 O3    c    0.816581 *  0.121106 *  0.856082 *   1.33043    1.000000    
    107 O2    c    0.300788 *  0.201349 *  0.521150 *   0.87073    1.000000    
    108 O2    c    0.904021 *  0.699389 *  0.188584 *   0.87073    1.000000    
    109 O2    c    0.322313 *  0.645912 *  0.251497 *   0.87073    1.000000    
    110 O2    c    0.353357 *  0.673687 *  0.581098 *   0.87073    1.000000    
    111 O2    c    0.330035 *  0.677696 *  0.919656 *   0.87073    1.000000    
    112 O2    c    0.674673 *  0.345277 *  0.747771 *   0.87073    1.000000    
    113 O2    c    0.648967 *  0.323529 *  0.085504 *   0.87073    1.000000    
    114 O2    c    0.675177 *  0.319728 *  0.418019 *   0.87073    1.000000    
    115 O3    c    0.367769 *  0.318667 *  0.977079 *   1.33043    1.000000    
    116 O2    c    0.668758 *  0.042834 *  0.306016 *   0.87073    1.000000    
    117 O2    c    0.957800 *  0.622770 *  0.637199 *   0.87073    1.000000    
    118 O2    c    0.625754 *  0.669296 *  0.471522 *   0.87073    1.000000    
    119 O3    c    0.321942 *  0.953181 *  0.806845 *   1.33043    1.000000    
    120 O2    c    0.046135 *  0.374978 *  0.140151 *   0.87073    1.000000    
    121 O2    c    0.330663 *  0.374410 *  0.363904 *   0.87073    1.000000    
    122 O2    c    0.044866 *  0.671687 *  0.031311 *   0.87073    1.000000    
    123 O2    c    0.628940 *  0.945145 *  0.699229 *   0.87073    1.000000    
    124 O2    c    0.673138 *  0.622316 *  0.866732 *   0.87073    1.000000    
    125 O2    c    0.954568 *  0.327454 *  0.528922 *   0.87073    1.000000    
    126 O2    c    0.374970 *  0.047346 *  0.198205 *   0.87073    1.000000    
    127 O2    c    0.771649 *  0.301596 *  0.013624 *   0.87073    1.000000    
    128 O2    c    0.696346 *  0.466152 *  0.345827 *   0.87073    1.000000    
    129 O2    c    0.533387 *  0.217973 *  0.678014 *   0.87073    1.000000    
    130 O2    c    0.228178 *  0.696085 *  0.509707 *   0.87073    1.000000    
    131 O2    c    0.305453 *  0.531414 *  0.850599 *   0.87073    1.000000    
    132 O2    c    0.467472 *  0.771900 *  0.179432 *   0.87073    1.000000    
    133 O2    c    0.302928 *  0.770414 *  0.324427 *   0.87073    1.000000    
    134 O2    c    0.472404 *  0.700306 *  0.991162 *   0.87073    1.000000    
    135 O2    c    0.229126 *  0.530239 *  0.654473 *   0.87073    1.000000    
    136 O2    c    0.699036 *  0.230004 *  0.820636 *   0.87073    1.000000    
    137 O2    c    0.531530 *  0.301469 *  0.490731 *   0.87073    1.000000    
    138 O2    c    0.773797 *  0.468025 *  0.157984 *   0.87073    1.000000    
    139 O2    c    0.788273 *  0.533017 *  0.029334 *   0.87073    1.000000    
    140 O2    c    0.464800 *  0.249697 *  0.362948 *   0.87073    1.000000    
    141 O2    c    0.740952 *  0.199953 *  0.698625 *   0.87073    1.000000    
    142 O2    c    0.212168 *  0.463746 *  0.526226 *   0.87073    1.000000    
    143 O2    c    0.531988 *  0.735951 *  0.865858 *   0.87073    1.000000    
    144 O2    c    0.252117 *  0.788131 *  0.196559 *   0.87073    1.000000    
    145 O2    c    0.534646 *  0.783728 *  0.307051 *   0.87073    1.000000    
    146 O2    c    0.263506 *  0.470687 *  0.974335 *   0.87073    1.000000    
    147 O2    c    0.217749 *  0.749223 *  0.636963 *   0.87073    1.000000    
    148 O2    c    0.470107 *  0.209578 *  0.802711 *   0.87073    1.000000    
    149 O2    c    0.749495 *  0.533648 *  0.473095 *   0.87073    1.000000    
    150 O2    c    0.786882 *  0.250289 *  0.140945 *   0.87073    1.000000    
    151 O2    c    0.239078 *  0.323256 *  0.902810 *   0.87073    1.000000    
    152 O2    c    0.676040 *  0.909124 *  0.233316 *   0.87073    1.000000    
    153 O2    c    0.089995 *  0.765858 *  0.563961 *   0.87073    1.000000    
    154 O2    c    0.767062 *  0.676455 *  0.399126 *   0.87073    1.000000    
    155 O2    c    0.327546 *  0.081712 *  0.731178 *   0.87073    1.000000    
    156 O2    c    0.912852 *  0.233238 *  0.067303 *   0.87073    1.000000    
    157 O2    c    0.322781 *  0.230451 *  0.436445 *   0.87073    1.000000    
    158 O2    c    0.908952 *  0.676360 *  0.103536 *   0.87073    1.000000    
    159 O2    c    0.766551 *  0.081195 *  0.771674 *   0.87073    1.000000    
    160 O2    c    0.679141 *  0.767099 *  0.937885 *   0.87073    1.000000    
    161 O2    c    0.092616 *  0.321256 *  0.600590 *   0.87073    1.000000    
    162 O2    c    0.232501 *  0.910636 *  0.270454 *   0.87073    1.000000    
    163 O3    c    0.607940 *  0.576891 *  0.999958 *   1.33043    1.000000    
    164 O2    c    0.440371 *  0.029451 *  0.325951 *   0.87073    1.000000    
    165 O2    c    0.969536 *  0.405252 *  0.656082 *   0.87073    1.000000    
    166 O2    c    0.410804 *  0.440099 *  0.491288 *   0.87073    1.000000    
    167 O3    c    0.578101 *  0.970804 *  0.832911 *   1.33043    1.000000    
    168 O2    c    0.032296 *  0.590874 *  0.159257 *   0.87073    1.000000    
    169 O2    c    0.558888 *  0.586905 *  0.343656 *   0.87073    1.000000    
    170 O2    c    0.030970 *  0.442886 *  0.011380 *   0.87073    1.000000    
    171 O2    c    0.418927 *  0.964052 *  0.678190 *   0.87073    1.000000    
    172 O2    c    0.443579 *  0.412079 *  0.847309 *   0.87073    1.000000    
    173 O2    c    0.970419 *  0.556927 *  0.508710 *   0.87073    1.000000    
    174 O2    c    0.586541 *  0.030306 *  0.178354 *   0.87073    1.000000    
    175 O2    c    0.582449 *  0.166894 *  0.251974 *   0.87073    1.000000    
    176 O2    c    0.833800 *  0.415348 *  0.582429 *   0.87073    1.000000    
    177 O3    c    0.598038 *  0.406535 *  0.914433 *   1.33043    1.000000    
    178 O3    c    0.415357 *  0.808457 *  0.747319 *   1.33043    1.000000    
    179 O2    c    0.168739 *  0.584737 *  0.085210 *   0.87073    1.000000    
    180 O2    c    0.418553 *  0.583793 *  0.416767 *   0.87073    1.000000    
    181 F     c    0.451885 *  0.904569 *  0.253055 *   0.56000    1.000000    
    182 F     c    0.093319 *  0.545608 *  0.583440 *   0.56000    1.000000    
    183 F     c    0.477324 *  0.523986 *  0.928909 *   0.56000    1.000000    
    184 F     c    0.528528 *  0.047790 *  0.760133 *   0.56000    1.000000    
    185 F     c    0.912288 *  0.453682 *  0.086315 *   0.56000    1.000000    
    186 F     c    0.548152 *  0.451415 *  0.418964 *   0.56000    1.000000    
    187 O2    s    0.935387 *  0.007803 *  0.007874 *  -2.87073    1.000000    
    188 O2    s    0.999296 *  0.926260 *  0.335457 *  -2.87073    1.000000    
    189 O2    s    0.079177 *  0.071423 *  0.669165 *  -2.87073    1.000000    
    190 O2    s    0.073573 *  0.997258 *  0.501965 *  -2.87073    1.000000    
    191 O3    s    0.013922 *  0.071584 *  0.833753 *  -3.33043    1.000000    
    192 O2    s    0.925138 *  0.927757 *  0.171692 *  -2.87073    1.000000    
    193 O2    s    0.352550 *  0.586979 *  0.333945 *  -2.87073    1.000000    
    194 O2    s    0.417440 *  0.759716 *  0.662519 *  -2.87073    1.000000    
    195 O2    s    0.236555 *  0.649669 *  0.002256 *  -2.87073    1.000000    
    196 O2    s    0.649818 *  0.415184 *  0.829212 *  -2.87073    1.000000    
    197 O2    s    0.589024 *  0.236985 *  0.168614 *  -2.87073    1.000000    
    198 O2    s    0.763917 *  0.350067 *  0.500086 *  -2.87073    1.000000    
    199 O3    s    0.592202 *  0.352623 *  0.003017 *  -3.33043    1.000000    
    200 O2    s    0.766034 *  0.405438 *  0.665249 *  -2.87073    1.000000    
    201 O2    s    0.646238 *  0.232924 *  0.335211 *  -2.87073    1.000000    
    202 O2    s    0.412212 *  0.646929 *  0.498997 *  -2.87073    1.000000    
    203 O2    s    0.235747 *  0.588943 *  0.168515 *  -2.87073    1.000000    
    204 O3    s    0.357032 *  0.764032 *  0.836092 *  -3.33043    1.000000    
    205 O2    s    0.122796 *  0.221687 *  0.975637 *  -2.87073    1.000000    
    206 O2    s    0.783521 *  0.905208 *  0.304609 *  -2.87073    1.000000    
    207 O2    s    0.093718 *  0.874083 *  0.636128 *  -2.87073    1.000000    
    208 O2    s    0.876886 *  0.783482 *  0.470621 *  -2.87073    1.000000    
    209 O2    s    0.223793 *  0.102324 *  0.802216 *  -2.87073    1.000000    
    210 O2    s    0.907334 *  0.123359 *  0.139398 *  -2.87073    1.000000    
    211 O2    s    0.217026 *  0.123001 *  0.364366 *  -2.87073    1.000000    
    212 O2    s    0.902432 *  0.782145 *  0.032419 *  -2.87073    1.000000    
    213 O2    s    0.880763 *  0.089670 *  0.698909 *  -2.87073    1.000000    
    214 O3    s    0.778484 *  0.869608 *  0.864019 *  -3.33043    1.000000    
    215 O2    s    0.093771 *  0.214813 *  0.529442 *  -2.87073    1.000000    
    216 O2    s    0.123536 *  0.907344 *  0.198802 *  -2.87073    1.000000    
    217 O2    s    0.932909 *  0.857661 *  0.253030 *  -2.87073    1.000000    
    218 O2    s    0.140279 *  0.071539 *  0.584944 *  -2.87073    1.000000    
    219 O3    s    0.939115 *  0.064374 *  0.924513 *  -3.33043    1.000000    
    220 O2    s    0.075283 *  0.149297 *  0.751121 *  -2.87073    1.000000    
    221 O2    s    0.861963 *  0.925698 *  0.088993 *  -2.87073    1.000000    
    222 O2    s    0.070123 *  0.933022 *  0.418124 *  -2.87073    1.000000    
    223 O2    s    0.909429 *  0.205355 *  0.985274 *  -2.87073    1.000000    
    224 O2    s    0.795256 *  0.703893 *  0.317600 *  -2.87073    1.000000    
    225 O2    s    0.296442 *  0.081818 *  0.648695 *  -2.87073    1.000000    
    226 O2    s    0.088653 *  0.793524 *  0.482074 *  -2.87073    1.000000    
    227 O2    s    0.206132 *  0.298503 *  0.819318 *  -2.87073    1.000000    
    228 O2    s    0.704693 *  0.911675 *  0.151774 *  -2.87073    1.000000    
    229 O2    s    0.203832 *  0.909423 *  0.352596 *  -2.87073    1.000000    
    230 O2    s    0.711369 *  0.813480 *  0.020635 *  -2.87073    1.000000    
    231 O2    s    0.092260 *  0.292745 *  0.682791 *  -2.87073    1.000000    
    232 O3    s    0.811754 *  0.111570 *  0.853718 *  -3.33043    1.000000    
    233 O2    s    0.294444 *  0.202662 *  0.518579 *  -2.87073    1.000000    
    234 O2    s    0.911619 *  0.705740 *  0.186150 *  -2.87073    1.000000    
    235 O2    s    0.328259 *  0.657743 *  0.251477 *  -2.87073    1.000000    
    236 O2    s    0.341768 *  0.668059 *  0.581146 *  -2.87073    1.000000    
    237 O2    s    0.334648 *  0.672644 *  0.919781 *  -2.87073    1.000000    
    238 O2    s    0.669806 *  0.334814 *  0.747801 *  -2.87073    1.000000    
    239 O2    s    0.659891 *  0.328826 *  0.085676 *  -2.87073    1.000000    
    240 O2    s    0.669414 *  0.325798 *  0.417994 *  -2.87073    1.000000    
    241 O3    s    0.367024 *  0.328411 *  0.974270 *  -3.33043    1.000000    
    242 O2    s    0.658815 *  0.036169 *  0.303730 *  -2.87073    1.000000    
    243 O2    s    0.964256 *  0.619286 *  0.634772 *  -2.87073    1.000000    
    244 O2    s    0.622542 *  0.659302 *  0.469204 *  -2.87073    1.000000    
    245 O3    s    0.331563 *  0.963437 *  0.804018 *  -3.33043    1.000000    
    246 O2    s    0.039397 *  0.378447 *  0.137773 *  -2.87073    1.000000    
    247 O2    s    0.340629 *  0.377504 *  0.366074 *  -2.87073    1.000000    
    248 O2    s    0.038280 *  0.661338 *  0.033488 *  -2.87073    1.000000    
    249 O2    s    0.626393 *  0.951809 *  0.701132 *  -2.87073    1.000000    
    250 O2    s    0.663560 *  0.619286 *  0.868559 *  -2.87073    1.000000    
    251 O2    s    0.961429 *  0.337549 *  0.531033 *  -2.87073    1.000000    
    252 O2    s    0.378130 *  0.040402 *  0.200390 *  -2.87073    1.000000    
    253 O2    s    0.778961 *  0.309250 *  0.016508 *  -2.87073    1.000000    
    254 O2    s    0.688588 *  0.465461 *  0.348873 *  -2.87073    1.000000    
    255 O2    s    0.534375 *  0.211865 *  0.680776 *  -2.87073    1.000000    
    256 O2    s    0.221196 *  0.688173 *  0.512779 *  -2.87073    1.000000    
    257 O2    s    0.312627 *  0.531725 *  0.852895 *  -2.87073    1.000000    
    258 O2    s    0.466824 *  0.778890 *  0.182473 *  -2.87073    1.000000    
    259 O2    s    0.310545 *  0.777734 *  0.321242 *  -2.87073    1.000000    
    260 O2    s    0.471367 *  0.693212 *  0.988602 *  -2.87073    1.000000    
    261 O2    s    0.222257 *  0.530664 *  0.651256 *  -2.87073    1.000000    
    262 O2    s    0.691859 *  0.223668 *  0.818239 *  -2.87073    1.000000    
    263 O2    s    0.532036 *  0.309093 *  0.487501 *  -2.87073    1.000000    
    264 O2    s    0.780747 *  0.467650 *  0.154846 *  -2.87073    1.000000    
    265 O2    s    0.793347 *  0.531401 *  0.031997 *  -2.87073    1.000000    
    266 O2    s    0.467437 *  0.257444 *  0.365498 *  -2.87073    1.000000    
    267 O2    s    0.735054 *  0.196665 *  0.700563 *  -2.87073    1.000000    
    268 O2    s    0.207351 *  0.466379 *  0.528885 *  -2.87073    1.000000    
    269 O2    s    0.530401 *  0.731068 *  0.868039 *  -2.87073    1.000000    
    270 O2    s    0.259794 *  0.793064 *  0.199141 *  -2.87073    1.000000    
    271 O2    s    0.532104 *  0.789332 *  0.304395 *  -2.87073    1.000000    
    272 O2    s    0.269810 *  0.473617 *  0.972245 *  -2.87073    1.000000    
    273 O2    s    0.212228 *  0.741038 *  0.634417 *  -2.87073    1.000000    
    274 O2    s    0.473213 *  0.206006 *  0.800633 *  -2.87073    1.000000    
    275 O2    s    0.741472 *  0.531071 *  0.470455 *  -2.87073    1.000000    
    276 O2    s    0.792186 *  0.258494 *  0.138317 *  -2.87073    1.000000    
    277 O2    s    0.247474 *  0.332289 *  0.903264 *  -2.87073    1.000000    
    278 O2    s    0.666487 *  0.908885 *  0.234265 *  -2.87073    1.000000    
    279 O2    s    0.090423 *  0.756486 *  0.564932 *  -2.87073    1.000000    
    280 O2    s    0.757814 *  0.666813 *  0.400122 *  -2.87073    1.000000    
    281 O2    s    0.336244 *  0.082219 *  0.731679 *  -2.87073    1.000000    
    282 O2    s    0.912232 *  0.242685 *  0.068189 *  -2.87073    1.000000    
    283 O2    s    0.332381 *  0.239929 *  0.435579 *  -2.87073    1.000000    
    284 O2    s    0.908826 *  0.666715 *  0.102803 *  -2.87073    1.000000    
    285 O2    s    0.759172 *  0.082302 *  0.770420 *  -2.87073    1.000000    
    286 O2    s    0.670795 *  0.758989 *  0.937020 *  -2.87073    1.000000    
    287 O2    s    0.092554 *  0.330877 *  0.599726 *  -2.87073    1.000000    
    288 O2    s    0.241898 *  0.910347 *  0.269628 *  -2.87073    1.000000    
    289 O3    s    0.603128 *  0.581090 *  0.996330 *  -3.33043    1.000000    
    290 O2    s    0.440093 *  0.024427 *  0.322560 *  -2.87073    1.000000    
    291 O2    s    0.974741 *  0.410708 *  0.652656 *  -2.87073    1.000000    
    292 O2    s    0.415667 *  0.439803 *  0.487894 *  -2.87073    1.000000    
    293 O3    s    0.582117 *  0.979519 *  0.829228 *  -3.33043    1.000000    
    294 O2    s    0.027124 *  0.585887 *  0.155874 *  -2.87073    1.000000    
    295 O2    s    0.559096 *  0.582386 *  0.347029 *  -2.87073    1.000000    
    296 O2    s    0.026147 *  0.442751 *  0.014793 *  -2.87073    1.000000    
    297 O2    s    0.421856 *  0.968361 *  0.680967 *  -2.87073    1.000000    
    298 O2    s    0.442863 *  0.415666 *  0.850171 *  -2.87073    1.000000    
    299 O2    s    0.975102 *  0.557023 *  0.512082 *  -2.87073    1.000000    
    300 O2    s    0.582135 *  0.025477 *  0.181685 *  -2.87073    1.000000    
    301 O2    s    0.577008 *  0.155890 *  0.252012 *  -2.87073    1.000000    
    302 O2    s    0.844954 *  0.420716 *  0.582498 *  -2.87073    1.000000    
    303 O3    s    0.592979 *  0.414268 *  0.912810 *  -3.33043    1.000000    
    304 O3    s    0.422536 *  0.821018 *  0.745670 *  -3.33043    1.000000    
    305 O2    s    0.157471 *  0.579190 *  0.085228 *  -2.87073    1.000000    
    306 O2    s    0.423916 *  0.578097 *  0.416843 *  -2.87073    1.000000    
    307 F     s    0.451665 *  0.904070 *  0.253215 *  -1.56000    1.000000    
    308 F     s    0.093400 *  0.545747 *  0.583602 *  -1.56000    1.000000    
    309 F     s    0.481248 *  0.518102 *  0.931264 *  -1.56000    1.000000    
    310 F     s    0.522661 *  0.038066 *  0.762620 *  -1.56000    1.000000    
    311 F     s    0.912714 *  0.453610 *  0.086435 *  -1.56000    1.000000    
    312 F     s    0.548434 *  0.451224 *  0.419132 *  -1.56000    1.000000    
--------------------------------------------------------------------------------



********************************************************************************
*  General input information                                                   *
********************************************************************************

  Species output for all configurations : 

--------------------------------------------------------------------------------
  Species    Type    Atomic    Atomic    Charge       Radii (Angs)     Library
                     Number     Mass       (e)     Cova   Ionic  VDW   Symbol
--------------------------------------------------------------------------------
    Si       Core       14      28.09   4.000000   1.200  0.000  2.100          
    O1       Core        8      16.00   1.733957   0.730  0.000  1.360          
    O1       Shell       8       0.00  -3.733957   0.730  0.000  1.360          
    O2       Core        8      16.00   0.870733   0.730  0.000  1.360          
    O2       Shell       8       0.00  -2.870733   0.730  0.000  1.360          
    O3       Core        8      16.00   1.330431   0.730  0.000  1.360          
    O3       Shell       8       0.00  -3.330431   0.730  0.000  1.360          
    F        Core        9      19.00   0.560000   0.710  0.000  1.300          
    F        Shell       9       0.00  -1.560000   0.710  0.000  1.300          
    Ge       Core       32      72.61   4.000000   1.170  0.000  1.750          
--------------------------------------------------------------------------------


  Lattice summation method               =    Ewald          (3-D)
                                         =    Parry          (2-D)
                                         =    Saunders et al (1-D)
  Accuracy factor for lattice sums       =   12.000


  Time limit = Infinity

  Maximum range for interatomic potentials =        16.000000 Angstroms

  Taper potentials to zero over   1.0000 Angstroms using polynomial

  General interatomic potentials :

--------------------------------------------------------------------------------
Atom  Types   Potential         A         B         C         D     Cutoffs(Ang)
  1     2                                                            Min    Max 
--------------------------------------------------------------------------------
Si   c O1   s Buckingham    0.132E+04 0.318      10.1      0.00     0.000 16.000
Si   c O2   s Buckingham    0.132E+04 0.318      10.1      0.00     0.000 16.000
Si   c O3   s Buckingham    0.132E+04 0.318      10.1      0.00     0.000 16.000
Ge   c O1   s Buckingham    0.150E+04 0.326      16.8      0.00     0.000 16.000
Ge   c O2   s Buckingham    0.150E+04 0.326      16.8      0.00     0.000 16.000
Ge   c O3   s Buckingham    0.150E+04 0.326      16.8      0.00     0.000 16.000
O1   s O1   s Buckingham    0.228E+05 0.149      10.9      0.00     0.000 16.000
O1   s O2   s Buckingham    0.228E+05 0.149      10.9      0.00     0.000 16.000
O1   s O3   s Buckingham    0.228E+05 0.149      10.9      0.00     0.000 16.000
O2   s O2   s Buckingham    0.228E+05 0.149      10.9      0.00     0.000 16.000
O2   s O3   s Buckingham    0.228E+05 0.149      10.9      0.00     0.000 16.000
O3   s O3   s Buckingham    0.228E+05 0.149      10.9      0.00     0.000 16.000
Si   c F    s Buckingham     977.     0.282      0.00      0.00     0.000 16.000
Ge   c F    s Buckingham     681.     0.320      0.00      0.00     0.000 16.000
F    s F    s Buckingham     540.     0.262      0.00      0.00     0.000 16.000
O1   s F    s Buckingham    0.168E+04 0.268      0.00      0.00     0.000 16.000
O2   s F    s Buckingham    0.168E+04 0.268      0.00      0.00     0.000 16.000
O3   s F    s Buckingham    0.168E+04 0.268      0.00      0.00     0.000 16.000
O2   c O2   s Spring (c-s)   76.0      0.00      0.00      0.00     0.000  0.800
O3   c O3   s Spring (c-s)   128.      0.00      0.00      0.00     0.000  0.800
O1   c O1   s Spring (c-s)   180.      0.00      0.00      0.00     0.000  0.800
F    c F    s Spring (c-s)   33.5      0.00      0.00      0.00     0.000  0.800
--------------------------------------------------------------------------------

  General Three-body potentials :

  Harmonic form:

--------------------------------------------------------------------------------
Atom    Atom    Atom           Force Constants            Theta     Cutoffs  
  1       2       3     (eVrad**-2/eVrad**-3/eVrad**-4)   (deg)  1-2  1-3  2-3
--------------------------------------------------------------------------------
Si    c O1    s O1    s  1.261        0.0000    0.0000   109.470 0.00 0.00 0.00
                                                                 1.90 1.90 3.50
Si    c O1    s O2    s  1.261        0.0000    0.0000   109.470 0.00 0.00 0.00
                                                                 1.90 1.90 3.50
Si    c O2    s O2    s  1.261        0.0000    0.0000   109.470 0.00 0.00 0.00
                                                                 1.90 1.90 3.50
--------------------------------------------------------------------------------

********************************************************************************
*  Output for configuration   1                                                *
********************************************************************************


  Components of energy : 

--------------------------------------------------------------------------------
  Interatomic potentials     =        2063.77512248 eV
  Three-body potentials      =           0.46429974 eV
  Monopole - monopole (real) =       -6615.37266073 eV
  Monopole - monopole (recip)=       -3169.18548952 eV
  Monopole - monopole (total)=       -9784.55815025 eV
  Neutralising energy        =          -6.45563166 eV
--------------------------------------------------------------------------------
  Total lattice energy       =       -7726.77435969 eV
--------------------------------------------------------------------------------
  Total lattice energy       =         -745515.6111 kJ/(mole unit cells)
--------------------------------------------------------------------------------


  Number of variables =      939

  Maximum number of calculations  =          1000
  Maximum Hessian update interval =            10
  Maximum step size               =   1.000000000
  Maximum parameter tolerance     =   0.000010000
  Maximum function  tolerance     =   0.000010000
  Maximum gradient  tolerance     =   0.001000000
  Maximum gradient  component     =   0.010000000

  Symmetry not applied to optimisation

  Cell parameters to be optimised using strains

  Newton-Raphson optimiser to be used

  BFGS hessian update to be used

  Dumpfile to be written after every cycle

  Start of bulk optimisation :

  Cycle:      0 Energy:     -7726.774360  Gnorm:      0.000750  CPU:    1.068
  ** Hessian calculated **
  Cycle:      1 Energy:     -7726.813154  Gnorm:      0.002809  CPU:    2.972
  Cycle:      2 Energy:     -7726.813464  Gnorm:      0.000614  CPU:    4.351
  Cycle:      3 Energy:     -7726.813566  Gnorm:      0.000243  CPU:    5.730
  Cycle:      4 Energy:     -7726.813570  Gnorm:      0.000041  CPU:    7.109


  **** Optimisation achieved ****


  Final energy =   -7726.81356998 eV
  Final Gnorm  =       0.00000431

  Components of energy : 

--------------------------------------------------------------------------------
  Interatomic potentials     =        2064.15515486 eV
  Three-body potentials      =           0.46498377 eV
  Monopole - monopole (real) =       -6616.00208527 eV
  Monopole - monopole (recip)=       -3168.97641695 eV
  Monopole - monopole (total)=       -9784.97850222 eV
  Neutralising energy        =          -6.45520639 eV
--------------------------------------------------------------------------------
  Total lattice energy       =       -7726.81356998 eV
--------------------------------------------------------------------------------
  Total lattice energy       =         -745519.3943 kJ/(mole unit cells)
--------------------------------------------------------------------------------

  Final fractional coordinates of atoms :

--------------------------------------------------------------------------------
   No.  Atomic        x           y          z          Radius
        Label       (Frac)      (Frac)     (Frac)       (Angs) 
--------------------------------------------------------------------------------
     1  Si    c     0.699600    0.375700    0.033890    0.000000
     2  Si    c     0.616368    0.310548    0.367593    0.000000
     3  Si    c     0.673208    0.274770    0.697651    0.000000
     4  Si    c     0.291758    0.602878    0.531437    0.000000
     5  Si    c     0.378864    0.671035    0.867716    0.000000
     6  Si    c     0.322865    0.696713    0.201144    0.000000
     7  Si    c     0.377311    0.694730    0.301656    0.000000
     8  Si    c     0.329150    0.618627    0.970834    0.000000
     9  Si    c     0.292837    0.655957    0.632005    0.000000
    10  Si    c     0.621437    0.285807    0.798894    0.000000
    11  Si    c     0.669628    0.363123    0.467927    0.000000
    12  Si    c     0.704913    0.321087    0.135565    0.000000
    13  Ge    c     0.532336    0.425909    0.965674    0.000000
    14  Si    c     0.579396    0.102570    0.302562    0.000000
    15  Si    c     0.884071    0.449201    0.632537    0.000000
    16  Si    c     0.466513    0.567547    0.467868    0.000000
    17  Ge    c     0.434730    0.889422    0.798108    0.000000
    18  Si    c     0.113915    0.526077    0.136026    0.000000
    19  Si    c     0.414231    0.519654    0.366450    0.000000
    20  Si    c     0.115205    0.579823    0.034687    0.000000
    21  Si    c     0.465931    0.853551    0.699443    0.000000
    22  Si    c     0.589069    0.454932    0.866298    0.000000
    23  Si    c     0.880657    0.398111    0.531368    0.000000
    24  Si    c     0.530572    0.109813    0.200967    0.000000
    25  Si    c     0.303947    0.387422    0.855071    0.000000
    26  Si    c     0.600607    0.898550    0.187344    0.000000
    27  Si    c     0.089921    0.679516    0.517726    0.000000
    28  Si    c     0.694411    0.590322    0.353153    0.000000
    29  Si    c     0.392858    0.068393    0.684564    0.000000
    30  Si    c     0.904424    0.300726    0.020920    0.000000
    31  Si    c     0.392917    0.286067    0.483034    0.000000
    32  Si    c     0.906957    0.598801    0.150271    0.000000
    33  Si    c     0.705380    0.085905    0.819927    0.000000
    34  Si    c     0.612838    0.700988    0.986841    0.000000
    35  Si    c     0.091244    0.377403    0.646972    0.000000
    36  Si    c     0.299859    0.895366    0.316965    0.000000
    37  Si    c     0.253985    0.329703    0.957422    0.000000
    38  Si    c     0.657820    0.901854    0.287739    0.000000
    39  Si    c     0.083747    0.728458    0.618333    0.000000
    40  Si    c     0.744303    0.645823    0.453701    0.000000
    41  Si    c     0.336064    0.070759    0.786443    0.000000
    42  Si    c     0.913116    0.248400    0.121182    0.000000
    43  Si    c     0.336164    0.239537    0.382388    0.000000
    44  Si    c     0.913511    0.656224    0.049488    0.000000
    45  Si    c     0.745344    0.060595    0.717483    0.000000
    46  Si    c     0.662628    0.735689    0.883202    0.000000
    47  Si    c     0.082431    0.321168    0.546564    0.000000
    48  Si    c     0.252413    0.907762    0.216326    0.000000
    49  Si    c     0.971942    0.118917    0.973662    0.000000
    50  Si    c     0.876317    0.839671    0.303080    0.000000
    51  Si    c     0.145718    0.008262    0.635263    0.000000
    52  Si    c     0.023690    0.863137    0.468474    0.000000
    53  Si    c     0.125855    0.145040    0.802341    0.000000
    54  Si    c     0.849907    0.966874    0.138524    0.000000
    55  Si    c     0.118441    0.960583    0.367849    0.000000
    56  Si    c     0.854462    0.878296    0.038277    0.000000
    57  Si    c     0.027284    0.132304    0.701026    0.000000
    58  Ge    c     0.885854    0.020507    0.870869    0.000000
    59  Si    c     0.145954    0.104188    0.534129    0.000000
    60  Si    c     0.972915    0.844438    0.202533    0.000000
    61  O2    c     0.941396    0.008249    0.010484    0.000000
    62  O2    c     0.995216    0.918743    0.336528    0.000000
    63  O2    c     0.071688    0.049481    0.670939    0.000000
    64  O2    c     0.066165    0.980027    0.503168    0.000000
    65  O3    c     0.015634    0.058269    0.836977    0.000000
    66  O2    c     0.929047    0.928811    0.173090    0.000000
    67  O2    c     0.338298    0.569593    0.334158    0.000000
    68  O2    c     0.419839    0.738527    0.662637    0.000000
    69  O2    c     0.241924    0.655374    0.002375    0.000000
    70  O2    c     0.659470    0.413227    0.827965    0.000000
    71  O2    c     0.581792    0.236435    0.168599    0.000000
    72  O2    c     0.754741    0.322476    0.499861    0.000000
    73  O3    c     0.582428    0.339635    0.002069    0.000000
    74  O2    c     0.756778    0.395623    0.664410    0.000000
    75  O2    c     0.655514    0.227150    0.335115    0.000000
    76  O2    c     0.415590    0.643530    0.499553    0.000000
    77  O2    c     0.239174    0.574862    0.168496    0.000000
    78  O3    c     0.346175    0.753944    0.835121    0.000000
    79  O2    c     0.123360    0.213044    0.977580    0.000000
    80  O2    c     0.784610    0.902338    0.307463    0.000000
    81  O2    c     0.080678    0.853026    0.638712    0.000000
    82  O2    c     0.869868    0.772465    0.473522    0.000000
    83  O2    c     0.219183    0.085855    0.804664    0.000000
    84  O2    c     0.913128    0.121415    0.141480    0.000000
    85  O2    c     0.209785    0.115024    0.362236    0.000000
    86  O2    c     0.911820    0.783150    0.029693    0.000000
    87  O2    c     0.872766    0.065546    0.696568    0.000000
    88  O3    c     0.782335    0.859336    0.860649    0.000000
    89  O2    c     0.082317    0.194662    0.526908    0.000000
    90  O2    c     0.126624    0.908816    0.196499    0.000000
    91  O2    c     0.934251    0.851947    0.253695    0.000000
    92  O2    c     0.132849    0.056098    0.585804    0.000000
    93  O3    c     0.932353    0.049434    0.925888    0.000000
    94  O2    c     0.067482    0.132543    0.752542    0.000000
    95  O2    c     0.862833    0.916504    0.090197    0.000000
    96  O2    c     0.066784    0.922230    0.418762    0.000000
    97  O2    c     0.900643    0.201360    0.982348    0.000000
    98  O2    c     0.793397    0.687551    0.315133    0.000000
    99  O2    c     0.297190    0.070545    0.646111    0.000000
   100  O2    c     0.091375    0.778200    0.479324    0.000000
   101  O2    c     0.205259    0.295705    0.816113    0.000000
   102  O2    c     0.698242    0.898678    0.149456    0.000000
   103  O2    c     0.200373    0.891318    0.355321    0.000000
   104  O2    c     0.706606    0.812019    0.022199    0.000000
   105  O2    c     0.094532    0.281207    0.685400    0.000000
   106  O3    c     0.815850    0.111060    0.855761    0.000000
   107  O2    c     0.296716    0.186282    0.521594    0.000000
   108  O2    c     0.904114    0.694537    0.188595    0.000000
   109  O2    c     0.321443    0.638226    0.251556    0.000000
   110  O2    c     0.347487    0.655971    0.581738    0.000000
   111  O2    c     0.330752    0.669235    0.919544    0.000000
   112  O2    c     0.670444    0.330224    0.747149    0.000000
   113  O2    c     0.649510    0.322768    0.085614    0.000000
   114  O2    c     0.670918    0.307250    0.417971    0.000000
   115  O3    c     0.366534    0.310981    0.976441    0.000000
   116  O2    c     0.667070    0.033877    0.306216    0.000000
   117  O2    c     0.952291    0.605215    0.637285    0.000000
   118  O2    c     0.621892    0.655312    0.472109    0.000000
   119  O3    c     0.319634    0.941146    0.807291    0.000000
   120  O2    c     0.045263    0.369391    0.139987    0.000000
   121  O2    c     0.326971    0.363177    0.364200    0.000000
   122  O2    c     0.047371    0.668636    0.031291    0.000000
   123  O2    c     0.624037    0.928212    0.699389    0.000000
   124  O2    c     0.673501    0.612679    0.866122    0.000000
   125  O2    c     0.949480    0.310326    0.528855    0.000000
   126  O2    c     0.374707    0.041009    0.198227    0.000000
   127  O2    c     0.772123    0.301388    0.013696    0.000000
   128  O2    c     0.692714    0.455304    0.345928    0.000000
   129  O2    c     0.528735    0.200361    0.677688    0.000000
   130  O2    c     0.223292    0.679423    0.510190    0.000000
   131  O2    c     0.305611    0.522282    0.850133    0.000000
   132  O2    c     0.466675    0.765613    0.179527    0.000000
   133  O2    c     0.301297    0.761301    0.324435    0.000000
   134  O2    c     0.473848    0.694141    0.990866    0.000000
   135  O2    c     0.222898    0.512403    0.654958    0.000000
   136  O2    c     0.697337    0.217919    0.820145    0.000000
   137  O2    c     0.527313    0.287241    0.490897    0.000000
   138  O2    c     0.774372    0.463860    0.158145    0.000000
   139  O2    c     0.789825    0.532376    0.029496    0.000000
   140  O2    c     0.461101    0.238781    0.362939    0.000000
   141  O2    c     0.736203    0.182998    0.698524    0.000000
   142  O2    c     0.207110    0.447052    0.526540    0.000000
   143  O2    c     0.532180    0.726075    0.865407    0.000000
   144  O2    c     0.251681    0.781781    0.196765    0.000000
   145  O2    c     0.532818    0.774550    0.307257    0.000000
   146  O2    c     0.264673    0.463870    0.974372    0.000000
   147  O2    c     0.211781    0.731493    0.637285    0.000000
   148  O2    c     0.467879    0.196881    0.802764    0.000000
   149  O2    c     0.745314    0.519500    0.473404    0.000000
   150  O2    c     0.786205    0.245978    0.140510    0.000000
   151  O2    c     0.238726    0.315460    0.902336    0.000000
   152  O2    c     0.674799    0.901174    0.233582    0.000000
   153  O2    c     0.084430    0.748433    0.564136    0.000000
   154  O2    c     0.763417    0.664030    0.399520    0.000000
   155  O2    c     0.324296    0.067307    0.731417    0.000000
   156  O2    c     0.911675    0.229458    0.067017    0.000000
   157  O2    c     0.318928    0.217753    0.436709    0.000000
   158  O2    c     0.911457    0.673471    0.103730    0.000000
   159  O2    c     0.762210    0.065509    0.771709    0.000000
   160  O2    c     0.680096    0.758558    0.937338    0.000000
   161  O2    c     0.087136    0.303744    0.600790    0.000000
   162  O2    c     0.231920    0.903308    0.270599    0.000000
   163  O3    c     0.607660    0.570035    0.999575    0.000000
   164  O2    c     0.438653    0.020263    0.326139    0.000000
   165  O2    c     0.963406    0.386940    0.656194    0.000000
   166  O2    c     0.406726    0.425792    0.491816    0.000000
   167  O3    c     0.575930    0.959586    0.833386    0.000000
   168  O2    c     0.032837    0.585953    0.159514    0.000000
   169  O2    c     0.555527    0.576059    0.344024    0.000000
   170  O2    c     0.031552    0.439268    0.011334    0.000000
   171  O2    c     0.413231    0.946351    0.678692    0.000000
   172  O2    c     0.443569    0.402851    0.846844    0.000000
   173  O2    c     0.965959    0.540136    0.508621    0.000000
   174  O2    c     0.586533    0.024390    0.178514    0.000000
   175  O2    c     0.581407    0.159410    0.252080    0.000000
   176  O2    c     0.828574    0.398092    0.582245    0.000000
   177  O3    c     0.597155    0.397909    0.914048    0.000000
   178  O3    c     0.412038    0.793811    0.748073    0.000000
   179  O2    c     0.169700    0.580006    0.085319    0.000000
   180  O2    c     0.414786    0.571205    0.417312    0.000000
   181  F     c     0.451750    0.897583    0.253144    0.000000
   182  F     c     0.086890    0.527269    0.583763    0.000000
   183  F     c     0.477301    0.516860    0.928239    0.000000
   184  F     c     0.525443    0.033870    0.760026    0.000000
   185  F     c     0.914092    0.451823    0.086355    0.000000
   186  F     c     0.544003    0.439288    0.419299    0.000000
   187  O2    s     0.934844    0.005805    0.009517    0.000000
   188  O2    s     0.995887    0.914688    0.336341    0.000000
   189  O2    s     0.074922    0.053987    0.670319    0.000000
   190  O2    s     0.070431    0.981022    0.502802    0.000000
   191  O3    s     0.016364    0.064424    0.836154    0.000000
   192  O2    s     0.925167    0.923536    0.172551    0.000000
   193  O2    s     0.350189    0.577077    0.334223    0.000000
   194  O2    s     0.411477    0.741772    0.663224    0.000000
   195  O2    s     0.238313    0.644010    0.002319    0.000000
   196  O2    s     0.648465    0.403662    0.828593    0.000000
   197  O2    s     0.588830    0.231776    0.168638    0.000000
   198  O2    s     0.759285    0.334522    0.499913    0.000000
   199  O3    s     0.591923    0.349570    0.003070    0.000000
   200  O2    s     0.760629    0.387987    0.664785    0.000000
   201  O2    s     0.643628    0.223149    0.335200    0.000000
   202  O2    s     0.407752    0.631487    0.499683    0.000000
   203  O2    s     0.235227    0.582622    0.168623    0.000000
   204  O3    s     0.355819    0.753678    0.836307    0.000000
   205  O2    s     0.120708    0.215380    0.974911    0.000000
   206  O2    s     0.781315    0.895631    0.305000    0.000000
   207  O2    s     0.087897    0.856745    0.636284    0.000000
   208  O2    s     0.873266    0.769080    0.470984    0.000000
   209  O2    s     0.221878    0.090927    0.802336    0.000000
   210  O2    s     0.906303    0.117879    0.139090    0.000000
   211  O2    s     0.213199    0.111553    0.364896    0.000000
   212  O2    s     0.905927    0.780264    0.032585    0.000000
   213  O2    s     0.875800    0.072008    0.699171    0.000000
   214  O3    s     0.778913    0.860267    0.863714    0.000000
   215  O2    s     0.089075    0.198219    0.529693    0.000000
   216  O2    s     0.123400    0.901922    0.199156    0.000000
   217  O2    s     0.931934    0.849700    0.253620    0.000000
   218  O2    s     0.135725    0.055982    0.585690    0.000000
   219  O3    s     0.932326    0.054134    0.925932    0.000000
   220  O2    s     0.069351    0.133879    0.752183    0.000000
   221  O2    s     0.860390    0.917932    0.089797    0.000000
   222  O2    s     0.067617    0.919766    0.418759    0.000000
   223  O2    s     0.908506    0.202434    0.985189    0.000000
   224  O2    s     0.791920    0.693622    0.317806    0.000000
   225  O2    s     0.291243    0.063803    0.648955    0.000000
   226  O2    s     0.084008    0.776981    0.482164    0.000000
   227  O2    s     0.206839    0.289116    0.818593    0.000000
   228  O2    s     0.704211    0.905908    0.152224    0.000000
   229  O2    s     0.201669    0.899085    0.352799    0.000000
   230  O2    s     0.712694    0.807819    0.020310    0.000000
   231  O2    s     0.086871    0.274997    0.683091    0.000000
   232  O3    s     0.810826    0.101316    0.853506    0.000000
   233  O2    s     0.290373    0.187588    0.519052    0.000000
   234  O2    s     0.911790    0.700917    0.186206    0.000000
   235  O2    s     0.327321    0.649956    0.251591    0.000000
   236  O2    s     0.335964    0.650446    0.581781    0.000000
   237  O2    s     0.335382    0.664187    0.919687    0.000000
   238  O2    s     0.665690    0.319797    0.747262    0.000000
   239  O2    s     0.660240    0.327774    0.085816    0.000000
   240  O2    s     0.665198    0.313363    0.417993    0.000000
   241  O3    s     0.365678    0.320765    0.973642    0.000000
   242  O2    s     0.657082    0.027146    0.303904    0.000000
   243  O2    s     0.958829    0.601825    0.634833    0.000000
   244  O2    s     0.618691    0.645315    0.469755    0.000000
   245  O3    s     0.329208    0.951495    0.804410    0.000000
   246  O2    s     0.038596    0.372911    0.137621    0.000000
   247  O2    s     0.336932    0.366268    0.366362    0.000000
   248  O2    s     0.040704    0.658321    0.033493    0.000000
   249  O2    s     0.621530    0.934868    0.701297    0.000000
   250  O2    s     0.663957    0.609686    0.867934    0.000000
   251  O2    s     0.956345    0.320473    0.530982    0.000000
   252  O2    s     0.377861    0.034144    0.200405    0.000000
   253  O2    s     0.779510    0.308670    0.016524    0.000000
   254  O2    s     0.684990    0.454665    0.348974    0.000000
   255  O2    s     0.529681    0.194357    0.680511    0.000000
   256  O2    s     0.216244    0.671489    0.513229    0.000000
   257  O2    s     0.312773    0.522478    0.852461    0.000000
   258  O2    s     0.466026    0.772554    0.182605    0.000000
   259  O2    s     0.308935    0.768561    0.321288    0.000000
   260  O2    s     0.472706    0.686975    0.988354    0.000000
   261  O2    s     0.216135    0.512885    0.651727    0.000000
   262  O2    s     0.690023    0.211566    0.817814    0.000000
   263  O2    s     0.527809    0.294881    0.487701    0.000000
   264  O2    s     0.781203    0.463424    0.154982    0.000000
   265  O2    s     0.794719    0.530355    0.032149    0.000000
   266  O2    s     0.463707    0.246468    0.365523    0.000000
   267  O2    s     0.730300    0.179701    0.700459    0.000000
   268  O2    s     0.202283    0.449659    0.529206    0.000000
   269  O2    s     0.530643    0.721257    0.867618    0.000000
   270  O2    s     0.259330    0.786707    0.199334    0.000000
   271  O2    s     0.530221    0.780094    0.304617    0.000000
   272  O2    s     0.270712    0.466755    0.972243    0.000000
   273  O2    s     0.206334    0.723360    0.634755    0.000000
   274  O2    s     0.470988    0.193395    0.800671    0.000000
   275  O2    s     0.737314    0.516939    0.470763    0.000000
   276  O2    s     0.791521    0.254126    0.137945    0.000000
   277  O2    s     0.247058    0.324380    0.902767    0.000000
   278  O2    s     0.665217    0.900977    0.234555    0.000000
   279  O2    s     0.084916    0.739151    0.565102    0.000000
   280  O2    s     0.754164    0.654390    0.400478    0.000000
   281  O2    s     0.332910    0.067732    0.731907    0.000000
   282  O2    s     0.911112    0.238860    0.067974    0.000000
   283  O2    s     0.328519    0.227222    0.435885    0.000000
   284  O2    s     0.911222    0.663750    0.102950    0.000000
   285  O2    s     0.754995    0.066809    0.770444    0.000000
   286  O2    s     0.671754    0.750583    0.936508    0.000000
   287  O2    s     0.087075    0.313401    0.599936    0.000000
   288  O2    s     0.241257    0.902951    0.269774    0.000000
   289  O3    s     0.603030    0.574605    0.995955    0.000000
   290  O2    s     0.438292    0.015187    0.322718    0.000000
   291  O2    s     0.968797    0.392517    0.652760    0.000000
   292  O2    s     0.411575    0.425436    0.488413    0.000000
   293  O3    s     0.580178    0.968297    0.829663    0.000000
   294  O2    s     0.027596    0.580965    0.156089    0.000000
   295  O2    s     0.555722    0.571505    0.347373    0.000000
   296  O2    s     0.026733    0.439269    0.014758    0.000000
   297  O2    s     0.416344    0.950802    0.681425    0.000000
   298  O2    s     0.442866    0.406397    0.849665    0.000000
   299  O2    s     0.970567    0.540256    0.512010    0.000000
   300  O2    s     0.581991    0.019568    0.181842    0.000000
   301  O2    s     0.575947    0.148393    0.252055    0.000000
   302  O2    s     0.839834    0.403509    0.582301    0.000000
   303  O3    s     0.592187    0.405669    0.912305    0.000000
   304  O3    s     0.419184    0.806308    0.746263    0.000000
   305  O2    s     0.158374    0.574456    0.085304    0.000000
   306  O2    s     0.420160    0.565470    0.417332    0.000000
   307  F     s     0.451649    0.897199    0.253293    0.000000
   308  F     s     0.086845    0.527298    0.583940    0.000000
   309  F     s     0.481366    0.510598    0.930754    0.000000
   310  F     s     0.519363    0.023871    0.762645    0.000000
   311  F     s     0.914662    0.451933    0.086480    0.000000
   312  F     s     0.544249    0.439162    0.419468    0.000000
--------------------------------------------------------------------------------

  Final Cartesian lattice vectors (Angstroms) :

       12.000780    0.002176    0.001932
       -5.936063   10.348081    0.003854
       -0.074886    0.279464   29.509559


  Final cell parameters and derivatives :

--------------------------------------------------------------------------------
       a           12.000780 Angstrom     dE/de1(xx)     0.000017 eV/strain
       b           11.929780 Angstrom     dE/de2(yy)     0.000145 eV/strain
       c           29.510977 Angstrom     dE/de3(zz)     0.000295 eV/strain
       alpha       89.438494 Degrees      dE/de4(yz)     0.000081 eV/strain
       beta        90.136068 Degrees      dE/de5(xz)     0.000073 eV/strain
       gamma      119.829873 Degrees      dE/de6(xy)    -0.000016 eV/strain
--------------------------------------------------------------------------------

  Primitive cell volume =          3665.012319 Angs**3

  Density of cell =      1.745722 g/cm**3

  Non-primitive cell volume =          3665.012319 Angs**3


  Final internal derivatives :

--------------------------------------------------------------------------------
   No.  Atomic          a             b             c           Radius
        Label          (eV)          (eV)          (eV)        (eV/Angs)
--------------------------------------------------------------------------------
      1 Si    c       0.000000      0.000000      0.000000      0.000000
      2 Si    c      -0.000023      0.000032     -0.000247      0.000000
      3 Si    c       0.000037     -0.000092     -0.000358      0.000000
      4 Si    c      -0.000051     -0.000005      0.000110      0.000000
      5 Si    c       0.000009     -0.000065     -0.000241      0.000000
      6 Si    c      -0.000054      0.000073     -0.000295      0.000000
      7 Si    c       0.000077     -0.000027      0.000513      0.000000
      8 Si    c       0.000022     -0.000096      0.000246      0.000000
      9 Si    c       0.000032     -0.000026     -0.000001      0.000000
     10 Si    c       0.000007     -0.000136      0.000198      0.000000
     11 Si    c      -0.000083      0.000128      0.000112      0.000000
     12 Si    c       0.000113     -0.000021      0.000154      0.000000
     13 Ge    c       0.000529     -0.000554      0.001501      0.000000
     14 Si    c       0.000002     -0.000057      0.000310      0.000000
     15 Si    c      -0.000035      0.000025      0.000013      0.000000
     16 Si    c       0.000055     -0.000063      0.000073      0.000000
     17 Ge    c       0.000014      0.000111      0.000378      0.000000
     18 Si    c      -0.000025     -0.000051     -0.000126      0.000000
     19 Si    c       0.000073     -0.000093      0.000033      0.000000
     20 Si    c       0.000096     -0.000069     -0.000073      0.000000
     21 Si    c       0.000080     -0.000018     -0.000509      0.000000
     22 Si    c      -0.000187      0.000304     -0.000222      0.000000
     23 Si    c       0.000087      0.000030      0.000128      0.000000
     24 Si    c      -0.000013     -0.000054     -0.000285      0.000000
     25 Si    c       0.000061      0.000070     -0.000038      0.000000
     26 Si    c      -0.000050      0.000030     -0.000131      0.000000
     27 Si    c      -0.000022     -0.000017     -0.000008      0.000000
     28 Si    c      -0.000030     -0.000047     -0.000218      0.000000
     29 Si    c       0.000032     -0.000027     -0.000064      0.000000
     30 Si    c       0.000059     -0.000016     -0.000091      0.000000
     31 Si    c       0.000015      0.000070      0.000103      0.000000
     32 Si    c      -0.000012      0.000002      0.000154      0.000000
     33 Si    c      -0.000083     -0.000033      0.000028      0.000000
     34 Si    c      -0.000031     -0.000107      0.000208      0.000000
     35 Si    c       0.000001      0.000000     -0.000075      0.000000
     36 Si    c       0.000109     -0.000048      0.000151      0.000000
     37 Si    c      -0.000085      0.000080      0.000276      0.000000
     38 Si    c      -0.000055      0.000036      0.000189      0.000000
     39 Si    c      -0.000007      0.000000     -0.000045      0.000000
     40 Si    c       0.000002     -0.000040      0.000244      0.000000
     41 Si    c       0.000109     -0.000030      0.000321      0.000000
     42 Si    c       0.000077     -0.000081      0.000142      0.000000
     43 Si    c       0.000006      0.000043     -0.000091      0.000000
     44 Si    c       0.000030     -0.000058     -0.000127      0.000000
     45 Si    c      -0.000048      0.000007     -0.000057      0.000000
     46 Si    c      -0.000014     -0.000078     -0.000141      0.000000
     47 Si    c       0.000006      0.000034      0.000007      0.000000
     48 Si    c       0.000073     -0.000040     -0.000183      0.000000
     49 Si    c       0.000056     -0.000342      0.000663      0.000000
     50 Si    c      -0.000142      0.000005      0.000391      0.000000
     51 Si    c      -0.000041      0.000048      0.000239      0.000000
     52 Si    c      -0.000037      0.000020      0.000287      0.000000
     53 Si    c      -0.000302     -0.000042      0.000243      0.000000
     54 Si    c       0.000152     -0.000152     -0.000526      0.000000
     55 Si    c       0.000018     -0.000018     -0.000303      0.000000
     56 Si    c       0.000189      0.000309     -0.000367      0.000000
     57 Si    c      -0.000045     -0.000078      0.000084      0.000000
     58 Ge    c       0.000200      0.000150      0.000012      0.000000
     59 Si    c      -0.000039     -0.000027      0.000199      0.000000
     60 Si    c       0.000060     -0.000052     -0.000431      0.000000
     61 O2    c      -0.000369      0.000015      0.000592      0.000000
     62 O2    c       0.000082      0.000020      0.000182      0.000000
     63 O2    c       0.000072     -0.000021     -0.000157      0.000000
     64 O2    c       0.000013     -0.000066     -0.000106      0.000000
     65 O3    c      -0.000154      0.000055     -0.001048      0.000000
     66 O2    c      -0.000112      0.000117     -0.000140      0.000000
     67 O2    c      -0.000097      0.000098     -0.000167      0.000000
     68 O2    c      -0.000012     -0.000060     -0.000120      0.000000
     69 O2    c      -0.000046     -0.000017      0.000112      0.000000
     70 O2    c       0.000204     -0.000102     -0.000396      0.000000
     71 O2    c      -0.000114     -0.000010      0.000201      0.000000
     72 O2    c       0.000010     -0.000062     -0.000023      0.000000
     73 O3    c       0.000151      0.000036      0.000130      0.000000
     74 O2    c       0.000013      0.000026     -0.000049      0.000000
     75 O2    c       0.000012     -0.000026     -0.000084      0.000000
     76 O2    c       0.000021      0.000020     -0.000027      0.000000
     77 O2    c       0.000014     -0.000007      0.000018      0.000000
     78 O3    c      -0.000109      0.000232     -0.000490      0.000000
     79 O2    c      -0.000056      0.000080      0.000021      0.000000
     80 O2    c       0.000045     -0.000031      0.000046      0.000000
     81 O2    c      -0.000002     -0.000003     -0.000035      0.000000
     82 O2    c      -0.000021     -0.000006      0.000020      0.000000
     83 O2    c      -0.000059      0.000068      0.000020      0.000000
     84 O2    c      -0.000042      0.000068     -0.000127      0.000000
     85 O2    c      -0.000009      0.000031     -0.000061      0.000000
     86 O2    c      -0.000217      0.000274      0.000049      0.000000
     87 O2    c       0.000160     -0.000036     -0.000007      0.000000
     88 O3    c       0.000008     -0.000129     -0.000227      0.000000
     89 O2    c      -0.000017      0.000012     -0.000031      0.000000
     90 O2    c      -0.000062      0.000031     -0.000017      0.000000
     91 O2    c       0.000047      0.000010     -0.000026      0.000000
     92 O2    c      -0.000017      0.000064     -0.000369      0.000000
     93 O3    c       0.000098     -0.000054      0.000341      0.000000
     94 O2    c       0.000119     -0.000004      0.000652      0.000000
     95 O2    c      -0.000138      0.000099     -0.000041      0.000000
     96 O2    c      -0.000011     -0.000001      0.000158      0.000000
     97 O2    c       0.000138     -0.000092     -0.000066      0.000000
     98 O2    c       0.000004     -0.000009     -0.000053      0.000000
     99 O2    c      -0.000037      0.000016     -0.000031      0.000000
    100 O2    c       0.000051     -0.000070     -0.000012      0.000000
    101 O2    c       0.000008      0.000119      0.000095      0.000000
    102 O2    c      -0.000021      0.000006      0.000011      0.000000
    103 O2    c      -0.000022     -0.000002      0.000057      0.000000
    104 O2    c       0.000053     -0.000055     -0.000093      0.000000
    105 O2    c       0.000006      0.000052     -0.000036      0.000000
    106 O3    c       0.000239     -0.000242      0.000053      0.000000
    107 O2    c       0.000040     -0.000013      0.000025      0.000000
    108 O2    c       0.000009     -0.000001      0.000028      0.000000
    109 O2    c      -0.000016     -0.000103     -0.000232      0.000000
    110 O2    c       0.000006     -0.000004     -0.000023      0.000000
    111 O2    c      -0.000059      0.000040      0.000164      0.000000
    112 O2    c      -0.000014      0.000100     -0.000045      0.000000
    113 O2    c      -0.000107      0.000070     -0.000458      0.000000
    114 O2    c       0.000050     -0.000060      0.000022      0.000000
    115 O3    c      -0.000016      0.000005     -0.000008      0.000000
    116 O2    c       0.000003     -0.000008      0.000003      0.000000
    117 O2    c      -0.000005     -0.000001      0.000007      0.000000
    118 O2    c       0.000007     -0.000004      0.000002      0.000000
    119 O3    c      -0.000032      0.000024      0.000068      0.000000
    120 O2    c      -0.000022      0.000018     -0.000043      0.000000
    121 O2    c       0.000008     -0.000006     -0.000001      0.000000
    122 O2    c      -0.000005      0.000023     -0.000023      0.000000
    123 O2    c      -0.000004      0.000007      0.000010      0.000000
    124 O2    c      -0.000000     -0.000014     -0.000014      0.000000
    125 O2    c       0.000010     -0.000012     -0.000030      0.000000
    126 O2    c      -0.000007     -0.000005     -0.000006      0.000000
    127 O2    c      -0.000062      0.000014      0.000009      0.000000
    128 O2    c      -0.000013      0.000004      0.000002      0.000000
    129 O2    c      -0.000017     -0.000003      0.000006      0.000000
    130 O2    c       0.000029     -0.000018     -0.000018      0.000000
    131 O2    c       0.000028     -0.000012      0.000020      0.000000
    132 O2    c      -0.000011     -0.000017     -0.000022      0.000000
    133 O2    c      -0.000038      0.000036      0.000069      0.000000
    134 O2    c       0.000021     -0.000012      0.000020      0.000000
    135 O2    c       0.000007      0.000002      0.000031      0.000000
    136 O2    c      -0.000058      0.000070     -0.000065      0.000000
    137 O2    c      -0.000007      0.000003      0.000028      0.000000
    138 O2    c       0.000012     -0.000024      0.000024      0.000000
    139 O2    c      -0.000081      0.000053      0.000152      0.000000
    140 O2    c       0.000004     -0.000006     -0.000031      0.000000
    141 O2    c       0.000000      0.000005      0.000009      0.000000
    142 O2    c      -0.000003     -0.000008      0.000009      0.000000
    143 O2    c       0.000033      0.000001     -0.000058      0.000000
    144 O2    c       0.000012     -0.000005      0.000005      0.000000
    145 O2    c       0.000023     -0.000026      0.000051      0.000000
    146 O2    c       0.000054     -0.000096     -0.000058      0.000000
    147 O2    c      -0.000022      0.000028      0.000031      0.000000
    148 O2    c       0.000018      0.000010     -0.000031      0.000000
    149 O2    c       0.000001      0.000002      0.000011      0.000000
    150 O2    c      -0.000030     -0.000005      0.000068      0.000000
    151 O2    c      -0.000035     -0.000062     -0.000093      0.000000
    152 O2    c       0.000067     -0.000046      0.000020      0.000000
    153 O2    c      -0.000006      0.000009      0.000006      0.000000
    154 O2    c       0.000026      0.000051      0.000026      0.000000
    155 O2    c      -0.000018     -0.000001     -0.000538      0.000000
    156 O2    c       0.000045     -0.000089     -0.000172      0.000000
    157 O2    c      -0.000024     -0.000038     -0.000021      0.000000
    158 O2    c      -0.000004      0.000018      0.000171      0.000000
    159 O2    c       0.000074     -0.000090     -0.000070      0.000000
    160 O2    c       0.000046      0.000064     -0.000004      0.000000
    161 O2    c       0.000003      0.000001      0.000022      0.000000
    162 O2    c      -0.000078      0.000037     -0.000071      0.000000
    163 O3    c      -0.000223      0.000055     -0.000520      0.000000
    164 O2    c       0.000009     -0.000011     -0.000022      0.000000
    165 O2    c       0.000027     -0.000031      0.000067      0.000000
    166 O2    c       0.000005     -0.000005     -0.000008      0.000000
    167 O3    c       0.000071      0.000053      0.000083      0.000000
    168 O2    c      -0.000010      0.000010      0.000032      0.000000
    169 O2    c       0.000007      0.000002     -0.000006      0.000000
    170 O2    c      -0.000011     -0.000071      0.000029      0.000000
    171 O2    c      -0.000021      0.000030     -0.000003      0.000000
    172 O2    c       0.000028     -0.000004      0.000014      0.000000
    173 O2    c      -0.000014     -0.000013      0.000014      0.000000
    174 O2    c      -0.000009      0.000041     -0.000060      0.000000
    175 O2    c       0.000002      0.000086      0.000022      0.000000
    176 O2    c      -0.000006      0.000003     -0.000009      0.000000
    177 O3    c       0.000178     -0.000247      0.000493      0.000000
    178 O3    c       0.000029     -0.000311     -0.000109      0.000000
    179 O2    c      -0.000004     -0.000008      0.000035      0.000000
    180 O2    c      -0.000038      0.000055      0.000027      0.000000
    181 F     c       0.000016     -0.000034      0.000055      0.000000
    182 F     c      -0.000009      0.000014      0.000012      0.000000
    183 F     c      -0.000112      0.000239     -0.000332      0.000000
    184 F     c      -0.000013      0.000011      0.000106      0.000000
    185 F     c       0.000021     -0.000036      0.000111      0.000000
    186 F     c       0.000011     -0.000009      0.000025      0.000000
    187 O2    s      -0.000069      0.000031     -0.000160      0.000000
    188 O2    s      -0.000035      0.000041      0.000056      0.000000
    189 O2    s      -0.000059     -0.000037      0.000131      0.000000
    190 O2    s       0.000014      0.000030      0.000132      0.000000
    191 O3    s       0.000033     -0.000051      0.000394      0.000000
    192 O2    s       0.000043      0.000020     -0.000276      0.000000
    193 O2    s       0.000050     -0.000073      0.000026      0.000000
    194 O2    s       0.000006      0.000026      0.000032      0.000000
    195 O2    s       0.000013      0.000024     -0.000012      0.000000
    196 O2    s      -0.000094      0.000043      0.000091      0.000000
    197 O2    s       0.000067     -0.000000     -0.000011      0.000000
    198 O2    s      -0.000006      0.000022      0.000016      0.000000
    199 O3    s      -0.000070     -0.000226     -0.000110      0.000000
    200 O2    s       0.000001      0.000009      0.000005      0.000000
    201 O2    s      -0.000001      0.000013      0.000073      0.000000
    202 O2    s      -0.000006     -0.000008      0.000034      0.000000
    203 O2    s       0.000010     -0.000011     -0.000018      0.000000
    204 O3    s       0.000077     -0.000067      0.000124      0.000000
    205 O2    s      -0.000006     -0.000143     -0.000016      0.000000
    206 O2    s      -0.000028      0.000048     -0.000019      0.000000
    207 O2    s      -0.000031      0.000020      0.000036      0.000000
    208 O2    s      -0.000028      0.000016     -0.000037      0.000000
    209 O2    s      -0.000142      0.000010     -0.000138      0.000000
    210 O2    s       0.000067     -0.000147      0.000072      0.000000
    211 O2    s      -0.000022      0.000034      0.000055      0.000000
    212 O2    s      -0.000073      0.000177      0.000217      0.000000
    213 O2    s      -0.000005     -0.000054     -0.000097      0.000000
    214 O3    s       0.000068      0.000064      0.000086      0.000000
    215 O2    s       0.000012     -0.000010      0.000038      0.000000
    216 O2    s       0.000013      0.000018     -0.000064      0.000000
    217 O2    s      -0.000012     -0.000032     -0.000138      0.000000
    218 O2    s       0.000030     -0.000052      0.000177      0.000000
    219 O3    s      -0.000091      0.000167     -0.000053      0.000000
    220 O2    s       0.000155     -0.000118      0.000014      0.000000
    221 O2    s       0.000146     -0.000220     -0.000343      0.000000
    222 O2    s       0.000002      0.000026     -0.000016      0.000000
    223 O2    s       0.000024     -0.000152     -0.000117      0.000000
    224 O2    s      -0.000010     -0.000032     -0.000069      0.000000
    225 O2    s       0.000015     -0.000018     -0.000023      0.000000
    226 O2    s      -0.000006      0.000010      0.000061      0.000000
    227 O2    s      -0.000108      0.000048     -0.000235      0.000000
    228 O2    s       0.000063     -0.000025     -0.000216      0.000000
    229 O2    s       0.000042     -0.000019      0.000019      0.000000
    230 O2    s       0.000241      0.000056     -0.000034      0.000000
    231 O2    s      -0.000007      0.000004      0.000090      0.000000
    232 O3    s      -0.000048      0.000176      0.000322      0.000000
    233 O2    s      -0.000007     -0.000005      0.000051      0.000000
    234 O2    s      -0.000012     -0.000012     -0.000067      0.000000
    235 O2    s       0.000005      0.000067      0.000169      0.000000
    236 O2    s      -0.000017      0.000021      0.000091      0.000000
    237 O2    s       0.000025     -0.000017     -0.000203      0.000000
    238 O2    s      -0.000005     -0.000027      0.000077      0.000000
    239 O2    s       0.000032      0.000029      0.000082      0.000000
    240 O2    s      -0.000026      0.000030     -0.000097      0.000000
    241 O3    s      -0.000133      0.000097     -0.000082      0.000000
    242 O2    s       0.000020      0.000011     -0.000016      0.000000
    243 O2    s      -0.000001      0.000003      0.000026      0.000000
    244 O2    s       0.000002      0.000009     -0.000024      0.000000
    245 O3    s       0.000009     -0.000087     -0.000058      0.000000
    246 O2    s       0.000014     -0.000032      0.000041      0.000000
    247 O2    s      -0.000022     -0.000011      0.000005      0.000000
    248 O2    s      -0.000046      0.000006      0.000084      0.000000
    249 O2    s      -0.000041     -0.000026     -0.000020      0.000000
    250 O2    s       0.000028      0.000036     -0.000004      0.000000
    251 O2    s      -0.000014     -0.000015      0.000043      0.000000
    252 O2    s      -0.000007      0.000010      0.000039      0.000000
    253 O2    s       0.000018      0.000092     -0.000002      0.000000
    254 O2    s       0.000028     -0.000010      0.000055      0.000000
    255 O2    s      -0.000005     -0.000027     -0.000010      0.000000
    256 O2    s      -0.000008      0.000024      0.000006      0.000000
    257 O2    s      -0.000045      0.000026      0.000053      0.000000
    258 O2    s      -0.000008      0.000015      0.000048      0.000000
    259 O2    s       0.000049     -0.000058     -0.000148      0.000000
    260 O2    s      -0.000034      0.000056      0.000020      0.000000
    261 O2    s       0.000006      0.000007     -0.000031      0.000000
    262 O2    s       0.000003     -0.000009     -0.000002      0.000000
    263 O2    s       0.000006     -0.000009     -0.000080      0.000000
    264 O2    s      -0.000030      0.000084     -0.000034      0.000000
    265 O2    s       0.000106      0.000007     -0.000087      0.000000
    266 O2    s      -0.000002      0.000002      0.000031      0.000000
    267 O2    s      -0.000016      0.000013     -0.000039      0.000000
    268 O2    s       0.000005     -0.000008     -0.000040      0.000000
    269 O2    s      -0.000029     -0.000036      0.000111      0.000000
    270 O2    s      -0.000020     -0.000008     -0.000014      0.000000
    271 O2    s      -0.000061      0.000026     -0.000091      0.000000
    272 O2    s       0.000033     -0.000074     -0.000045      0.000000
    273 O2    s       0.000020     -0.000033     -0.000059      0.000000
    274 O2    s       0.000056     -0.000005      0.000035      0.000000
    275 O2    s      -0.000007     -0.000018     -0.000070      0.000000
    276 O2    s       0.000063      0.000000     -0.000148      0.000000
    277 O2    s       0.000034      0.000112      0.000236      0.000000
    278 O2    s      -0.000045      0.000045     -0.000022      0.000000
    279 O2    s       0.000019     -0.000009      0.000034      0.000000
    280 O2    s       0.000001     -0.000050      0.000026      0.000000
    281 O2    s       0.000025     -0.000004      0.000178      0.000000
    282 O2    s      -0.000111      0.000205      0.000147      0.000000
    283 O2    s       0.000007      0.000035     -0.000069      0.000000
    284 O2    s       0.000055     -0.000099     -0.000087      0.000000
    285 O2    s      -0.000083      0.000055      0.000097      0.000000
    286 O2    s      -0.000018     -0.000080     -0.000008      0.000000
    287 O2    s      -0.000018      0.000011     -0.000021      0.000000
    288 O2    s       0.000029      0.000005     -0.000005      0.000000
    289 O3    s       0.000271      0.000028      0.000675      0.000000
    290 O2    s      -0.000032      0.000051      0.000068      0.000000
    291 O2    s      -0.000019      0.000021     -0.000099      0.000000
    292 O2    s      -0.000020     -0.000000      0.000027      0.000000
    293 O3    s      -0.000038     -0.000066     -0.000056      0.000000
    294 O2    s      -0.000033      0.000029     -0.000082      0.000000
    295 O2    s      -0.000010      0.000002     -0.000015      0.000000
    296 O2    s      -0.000001      0.000004     -0.000037      0.000000
    297 O2    s       0.000008     -0.000036      0.000067      0.000000
    298 O2    s      -0.000029     -0.000017      0.000015      0.000000
    299 O2    s       0.000005     -0.000004     -0.000038      0.000000
    300 O2    s       0.000014     -0.000029      0.000067      0.000000
    301 O2    s       0.000004     -0.000035      0.000009      0.000000
    302 O2    s       0.000039     -0.000016      0.000061      0.000000
    303 O3    s      -0.000100      0.000112     -0.000153      0.000000
    304 O3    s      -0.000049      0.000313      0.000339      0.000000
    305 O2    s       0.000015      0.000025     -0.000023      0.000000
    306 O2    s       0.000022     -0.000048      0.000039      0.000000
    307 F     s      -0.000019      0.000039     -0.000089      0.000000
    308 F     s       0.000000     -0.000025      0.000024      0.000000
    309 F     s      -0.000311      0.000213     -0.000542      0.000000
    310 F     s      -0.000003     -0.000101      0.000050      0.000000
    311 F     s      -0.000051      0.000076     -0.000173      0.000000
    312 F     s      -0.000016      0.000013     -0.000028      0.000000
--------------------------------------------------------------------------------
  Maximum abs         0.000529      0.000554      0.001501      0.000000
--------------------------------------------------------------------------------


  Time to end of optimisation =       8.4896 seconds


  Peak dynamic memory used =      19.13 MB 


  Timing analysis for GULP :

--------------------------------------------------------------------------------
  Task / Subroutine                                          Time (Seconds)
--------------------------------------------------------------------------------
  Calculation of reciprocal space energy and derivatives          0.3115
  Calculation of real space energy and derivatives                7.1517
  Calculation of three-body energy and derivatives                0.7944
  Calculation of matrix inversion                                 0.1920
--------------------------------------------------------------------------------
  Total CPU time                                                  8.4896
--------------------------------------------------------------------------------


  Dump file written as out.res                                                 
  CIF file written as out.cif                                                 


  Job Finished at 02:39.12 30th November   2016                               

