********************************************************************************
*                       GENERAL UTILITY LATTICE PROGRAM                        *
*                                 Julian Gale                                  *
*                      Nanochemistry Research Institute                        *
*                           Department of Chemistry                            *
*                    Curtin University, Western Australia                      *
********************************************************************************
* Version = 4.2.0 * Last modified =  20th January 2014                         *
********************************************************************************
*  optimise     - perform optimisation run                                     *
*  conp         - constant pressure calculation                                *
*  qok          - running with non charge neutral cell is OK                   *
********************************************************************************

  Job Started  at 22:21.37 29th November   2016                               

  Number of CPUs =     1


  Total number of configurations input =   1

********************************************************************************
*  Input for Configuration =   1                                               *
********************************************************************************

  Formula = Si57Ge3O120F6                                               

  Number of irreducible atoms/shells =     312


  Total number atoms/shells =     312

  Dimensionality = 3               :  Bulk   


  Charge on solid   =  -6.000000 =>neutralising background added


  Cartesian lattice vectors (Angstroms) :

       11.938046    0.000000    0.000000
       -5.897217   10.398982    0.000000
       -0.103213    0.079050   29.430177

  Cell parameters (Angstroms/Degrees):

  a =      11.9380    alpha =  89.7670
  b =      11.9547    beta  =  90.2009
  c =      29.4305    gamma = 119.5574

  Initial cell volume =        3653.566067 Angs**3

  Temperature of configuration =  0.000     K 

  Pressure of configuration =         0.000 GPa 

  Fractional coordinates of asymmetric unit :

--------------------------------------------------------------------------------
   No.  Atomic       x           y          z         Charge      Occupancy
        Label      (Frac)      (Frac)     (Frac)        (e)         (Frac)  
--------------------------------------------------------------------------------
      1 Si    c    0.699600    0.375700    0.033890     4.00000    1.000000    
      2 Si    c    0.622549 *  0.323084 *  0.364856 *   4.00000    1.000000    
      3 Si    c    0.677585 *  0.307184 *  0.692724 *   4.00000    1.000000    
      4 Si    c    0.299243 *  0.616071 *  0.530137 *   4.00000    1.000000    
      5 Si    c    0.373789 *  0.679975 *  0.862295 *   4.00000    1.000000    
      6 Si    c    0.327153 *  0.705436 *  0.197389 *   4.00000    1.000000    
      7 Si    c    0.380574 *  0.701524 *  0.298198 *   4.00000    1.000000    
      8 Si    c    0.321296 *  0.622977 *  0.964492 *   4.00000    1.000000    
      9 Si    c    0.301485 *  0.667485 *  0.630954 *   4.00000    1.000000    
     10 Si    c    0.616970 *  0.309808 *  0.795388 *   4.00000    1.000000    
     11 Si    c    0.677732 *  0.377846 *  0.465327 *   4.00000    1.000000    
     12 Si    c    0.705967 *  0.325064 *  0.135185 *   4.00000    1.000000    
     13 Ge    c    0.533109 *  0.415603 *  0.964761 *   4.00000    1.000000    
     14 Si    c    0.583584 *  0.111987 *  0.300581 *   4.00000    1.000000    
     15 Si    c    0.897089 *  0.475146 *  0.631089 *   4.00000    1.000000    
     16 Si    c    0.471420 *  0.580151 *  0.464791 *   4.00000    1.000000    
     17 Si    c    0.410095 *  0.890863 *  0.796378 *   4.00000    1.000000    
     18 Si    c    0.117251 *  0.532889 *  0.132416 *   4.00000    1.000000    
     19 Si    c    0.419047 *  0.528307 *  0.363149 *   4.00000    1.000000    
     20 Si    c    0.109918 *  0.581258 *  0.030765 *   4.00000    1.000000    
     21 Si    c    0.465220 *  0.879480 *  0.693608 *   4.00000    1.000000    
     22 Ge    c    0.570194 *  0.474161 *  0.864748 *   4.00000    1.000000    
     23 Si    c    0.890544 *  0.418215 *  0.529897 *   4.00000    1.000000    
     24 Si    c    0.531084 *  0.113656 *  0.198901 *   4.00000    1.000000    
     25 Si    c    0.292085 *  0.397082 *  0.844401 *   4.00000    1.000000    
     26 Si    c    0.604286 *  0.906225 *  0.183240 *   4.00000    1.000000    
     27 Si    c    0.100081 *  0.697470 *  0.515902 *   4.00000    1.000000    
     28 Si    c    0.699769 *  0.600331 *  0.349379 *   4.00000    1.000000    
     29 Ge    c    0.408668 *  0.096753 *  0.687055 *   4.00000    1.000000    
     30 Si    c    0.903646 *  0.302316 *  0.018408 *   4.00000    1.000000    
     31 Si    c    0.398514 *  0.298861 *  0.479900 *   4.00000    1.000000    
     32 Si    c    0.906263 *  0.603425 *  0.147208 *   4.00000    1.000000    
     33 Si    c    0.693981 *  0.103514 *  0.810711 *   4.00000    1.000000    
     34 Si    c    0.604734 *  0.702914 *  0.980193 *   4.00000    1.000000    
     35 Si    c    0.098513 *  0.392503 *  0.645545 *   4.00000    1.000000    
     36 Si    c    0.303276 *  0.903071 *  0.313795 *   4.00000    1.000000    
     37 Si    c    0.249219 *  0.335961 *  0.947354 *   4.00000    1.000000    
     38 Si    c    0.661099 *  0.910395 *  0.284090 *   4.00000    1.000000    
     39 Si    c    0.099259 *  0.751872 *  0.616776 *   4.00000    1.000000    
     40 Si    c    0.750852 *  0.659265 *  0.450100 *   4.00000    1.000000    
     41 Si    c    0.329568 *  0.095021 *  0.782982 *   4.00000    1.000000    
     42 Si    c    0.916654 *  0.254212 *  0.119064 *   4.00000    1.000000    
     43 Si    c    0.341171 *  0.249826 *  0.378811 *   4.00000    1.000000    
     44 Si    c    0.906529 *  0.657460 *  0.045991 *   4.00000    1.000000    
     45 Si    c    0.745608 *  0.089048 *  0.709196 *   4.00000    1.000000    
     46 Si    c    0.661983 *  0.753699 *  0.877480 *   4.00000    1.000000    
     47 Si    c    0.090154 *  0.336933 *  0.544708 *   4.00000    1.000000    
     48 Si    c    0.253632 *  0.913277 *  0.212957 *   4.00000    1.000000    
     49 Si    c    0.967317 *  0.123013 *  0.965344 *   4.00000    1.000000    
     50 Si    c    0.879711 *  0.848235 *  0.299113 *   4.00000    1.000000    
     51 Si    c    0.158774 *  0.031617 *  0.632683 *   4.00000    1.000000    
     52 Si    c    0.030042 *  0.877092 *  0.465289 *   4.00000    1.000000    
     53 Si    c    0.110173 *  0.151294 *  0.798069 *   4.00000    1.000000    
     54 Si    c    0.852138 *  0.973766 *  0.132385 *   4.00000    1.000000    
     55 Si    c    0.123050 *  0.971009 *  0.364314 *   4.00000    1.000000    
     56 Si    c    0.850414 *  0.882058 *  0.030841 *   4.00000    1.000000    
     57 Si    c    0.024547 *  0.143155 *  0.695802 *   4.00000    1.000000    
     58 Si    c    0.871301 *  0.036874 *  0.863972 *   4.00000    1.000000    
     59 Si    c    0.151345 *  0.118388 *  0.530919 *   4.00000    1.000000    
     60 Si    c    0.973462 *  0.850643 *  0.197967 *   4.00000    1.000000    
     61 O2    c    0.933408 *  0.001241 *  0.997417 *   0.87073    1.000000    
     62 O2    c    0.001678 *  0.928883 *  0.331320 *   0.87073    1.000000    
     63 O2    c    0.064914 *  0.061839 *  0.663849 *   0.87073    1.000000    
     64 O2    c    0.071591 *  0.997624 *  0.498003 *   0.87073    1.000000    
     65 O2    c    0.991682 *  0.074432 *  0.831867 *   0.87073    1.000000    
     66 O2    c    0.930856 *  0.928935 *  0.164519 *   0.87073    1.000000    
     67 O2    c    0.342244 *  0.577722 *  0.330417 *   0.87073    1.000000    
     68 O2    c    0.423617 *  0.748573 *  0.664754 *   0.87073    1.000000    
     69 O2    c    0.234274 *  0.656706 *  0.997357 *   0.87073    1.000000    
     70 O3    c    0.655412 *  0.429744 *  0.826051 *   1.33043    1.000000    
     71 O2    c    0.582883 *  0.241760 *  0.167572 *   0.87073    1.000000    
     72 O2    c    0.764057 *  0.340918 *  0.498055 *   0.87073    1.000000    
     73 O3    c    0.573802 *  0.333277 *  0.004573 *   1.33043    1.000000    
     74 O2    c    0.774731 *  0.433304 *  0.664116 *   0.87073    1.000000    
     75 O2    c    0.660740 *  0.236636 *  0.332779 *   0.87073    1.000000    
     76 O2    c    0.421879 *  0.656018 *  0.497158 *   0.87073    1.000000    
     77 O2    c    0.243882 *  0.583304 *  0.164256 *   0.87073    1.000000    
     78 O2    c    0.337992 *  0.768104 *  0.830474 *   0.87073    1.000000    
     79 O2    c    0.120421 *  0.216118 *  0.968169 *   0.87073    1.000000    
     80 O2    c    0.787461 *  0.910553 *  0.304473 *   0.87073    1.000000    
     81 O2    c    0.101626 *  0.876972 *  0.637895 *   0.87073    1.000000    
     82 O2    c    0.875949 *  0.785500 *  0.470146 *   0.87073    1.000000    
     83 O2    c    0.209105 *  0.098413 *  0.807990 *   0.87073    1.000000    
     84 O2    c    0.917323 *  0.127583 *  0.138793 *   0.87073    1.000000    
     85 O2    c    0.214588 *  0.124595 *  0.358692 *   0.87073    1.000000    
     86 O2    c    0.906430 *  0.784180 *  0.025755 *   0.87073    1.000000    
     87 O2    c    0.870838 *  0.086741 *  0.689835 *   0.87073    1.000000    
     88 O2    c    0.779132 *  0.885402 *  0.858034 *   0.87073    1.000000    
     89 O2    c    0.088798 *  0.210488 *  0.524327 *   0.87073    1.000000    
     90 O2    c    0.127469 *  0.914465 *  0.192759 *   0.87073    1.000000    
     91 O2    c    0.931959 *  0.862551 *  0.248297 *   0.87073    1.000000    
     92 O2    c    0.137393 *  0.065623 *  0.581331 *   0.87073    1.000000    
     93 O2    c    0.920865 *  0.072914 *  0.914971 *   0.87073    1.000000    
     94 O2    c    0.055654 *  0.125983 *  0.747524 *   0.87073    1.000000    
     95 O2    c    0.865120 *  0.936107 *  0.081284 *   0.87073    1.000000    
     96 O2    c    0.069350 *  0.931394 *  0.414707 *   0.87073    1.000000    
     97 O2    c    0.896978 *  0.202161 *  0.980070 *   0.87073    1.000000    
     98 O2    c    0.798695 *  0.696947 *  0.311058 *   0.87073    1.000000    
     99 O3    c    0.304278 *  0.105323 *  0.644946 *   1.33043    1.000000    
    100 O2    c    0.100265 *  0.794839 *  0.477106 *   0.87073    1.000000    
    101 O2    c    0.182208 *  0.304457 *  0.808181 *   0.87073    1.000000    
    102 O2    c    0.700906 *  0.905976 *  0.144383 *   0.87073    1.000000    
    103 O2    c    0.205115 *  0.900755 *  0.352271 *   0.87073    1.000000    
    104 O2    c    0.699208 *  0.807025 *  0.017617 *   0.87073    1.000000    
    105 O2    c    0.097672 *  0.294989 *  0.684307 *   0.87073    1.000000    
    106 O2    c    0.790230 *  0.107593 *  0.850483 *   0.87073    1.000000    
    107 O2    c    0.302787 *  0.200490 *  0.518140 *   0.87073    1.000000    
    108 O2    c    0.905638 *  0.699908 *  0.185579 *   0.87073    1.000000    
    109 O2    c    0.325642 *  0.646299 *  0.247504 *   0.87073    1.000000    
    110 O2    c    0.358450 *  0.670164 *  0.580473 *   0.87073    1.000000    
    111 O2    c    0.320952 *  0.675801 *  0.913538 *   0.87073    1.000000    
    112 O2    c    0.668261 *  0.354675 *  0.743830 *   0.87073    1.000000    
    113 O2    c    0.648856 *  0.323083 *  0.085024 *   0.87073    1.000000    
    114 O2    c    0.679590 *  0.321628 *  0.415067 *   0.87073    1.000000    
    115 O3    c    0.364555 *  0.318853 *  0.965930 *   1.33043    1.000000    
    116 O2    c    0.670726 *  0.042096 *  0.302763 *   0.87073    1.000000    
    117 O2    c    0.965895 *  0.630191 *  0.634132 *   0.87073    1.000000    
    118 O2    c    0.627206 *  0.668362 *  0.467783 *   0.87073    1.000000    
    119 O2    c    0.323938 *  0.960796 *  0.799486 *   0.87073    1.000000    
    120 O2    c    0.049972 *  0.377001 *  0.135996 *   0.87073    1.000000    
    121 O2    c    0.331515 *  0.372611 *  0.360010 *   0.87073    1.000000    
    122 O2    c    0.039041 *  0.667361 *  0.026907 *   0.87073    1.000000    
    123 O2    c    0.622475 *  0.955681 *  0.693236 *   0.87073    1.000000    
    124 O3    c    0.679410 *  0.641553 *  0.857063 *   1.33043    1.000000    
    125 O2    c    0.958692 *  0.329711 *  0.526228 *   0.87073    1.000000    
    126 O2    c    0.375155 *  0.045934 *  0.194688 *   0.87073    1.000000    
    127 O2    c    0.770484 *  0.303569 *  0.010853 *   0.87073    1.000000    
    128 O2    c    0.698440 *  0.465422 *  0.341766 *   0.87073    1.000000    
    129 O3    c    0.541340 *  0.244465 *  0.668500 *   1.33043    1.000000    
    130 O2    c    0.231825 *  0.692952 *  0.507895 *   0.87073    1.000000    
    131 O2    c    0.299435 *  0.536653 *  0.841492 *   0.87073    1.000000    
    132 O2    c    0.470320 *  0.773620 *  0.174985 *   0.87073    1.000000    
    133 O2    c    0.304506 *  0.769222 *  0.320418 *   0.87073    1.000000    
    134 O2    c    0.466907 *  0.698734 *  0.983893 *   0.87073    1.000000    
    135 O2    c    0.233564 *  0.524070 *  0.652959 *   0.87073    1.000000    
    136 O2    c    0.689549 *  0.234328 *  0.815293 *   0.87073    1.000000    
    137 O2    c    0.534340 *  0.301338 *  0.487211 *   0.87073    1.000000    
    138 O2    c    0.774978 *  0.469332 *  0.156177 *   0.87073    1.000000    
    139 O2    c    0.779544 *  0.532521 *  0.026833 *   0.87073    1.000000    
    140 O2    c    0.466615 *  0.248307 *  0.359301 *   0.87073    1.000000    
    141 O2    c    0.740907 *  0.212690 *  0.690392 *   0.87073    1.000000    
    142 O2    c    0.217356 *  0.460662 *  0.525153 *   0.87073    1.000000    
    143 O2    c    0.527911 *  0.744301 *  0.860564 *   0.87073    1.000000    
    144 O2    c    0.251909 *  0.787071 *  0.192705 *   0.87073    1.000000    
    145 O2    c    0.536153 *  0.783994 *  0.303083 *   0.87073    1.000000    
    146 O2    c    0.264101 *  0.469952 *  0.965956 *   0.87073    1.000000    
    147 O2    c    0.221376 *  0.743510 *  0.636170 *   0.87073    1.000000    
    148 O2    c    0.461477 *  0.217824 *  0.800586 *   0.87073    1.000000    
    149 O2    c    0.750835 *  0.533443 *  0.469928 *   0.87073    1.000000    
    150 O2    c    0.792130 *  0.254696 *  0.139766 *   0.87073    1.000000    
    151 O2    c    0.232480 *  0.326373 *  0.892908 *   0.87073    1.000000    
    152 O2    c    0.678819 *  0.909175 *  0.229626 *   0.87073    1.000000    
    153 O2    c    0.100366 *  0.769902 *  0.562196 *   0.87073    1.000000    
    154 O2    c    0.769937 *  0.675347 *  0.395633 *   0.87073    1.000000    
    155 O3    c    0.302067 *  0.095285 *  0.730434 *   1.33043    1.000000    
    156 O2    c    0.911271 *  0.233154 *  0.064751 *   0.87073    1.000000    
    157 O2    c    0.324836 *  0.230562 *  0.433147 *   0.87073    1.000000    
    158 O2    c    0.906105 *  0.675146 *  0.100365 *   0.87073    1.000000    
    159 O2    c    0.758540 *  0.094375 *  0.763959 *   0.87073    1.000000    
    160 O2    c    0.674942 *  0.764444 *  0.932404 *   0.87073    1.000000    
    161 O2    c    0.091648 *  0.317448 *  0.599085 *   0.87073    1.000000    
    162 O2    c    0.233857 *  0.910032 *  0.267286 *   0.87073    1.000000    
    163 O3    c    0.588337 *  0.565986 *  0.990679 *   1.33043    1.000000    
    164 O2    c    0.442420 *  0.026696 *  0.323177 *   0.87073    1.000000    
    165 O2    c    0.975886 *  0.411627 *  0.654675 *   0.87073    1.000000    
    166 O2    c    0.414345 *  0.439199 *  0.487966 *   0.87073    1.000000    
    167 O2    c    0.552861 *  0.980262 *  0.817079 *   0.87073    1.000000    
    168 O2    c    0.032834 *  0.590201 *  0.155174 *   0.87073    1.000000    
    169 O2    c    0.560310 *  0.586761 *  0.339937 *   0.87073    1.000000    
    170 O2    c    0.030545 *  0.439544 *  0.007983 *   0.87073    1.000000    
    171 O3    c    0.404331 *  0.953915 *  0.667909 *   1.33043    1.000000    
    172 O3    c    0.424812 *  0.406286 *  0.832224 *   1.33043    1.000000    
    173 O2    c    0.973557 *  0.559737 *  0.507163 *   0.87073    1.000000    
    174 O2    c    0.590094 *  0.032072 *  0.174744 *   0.87073    1.000000    
    175 O2    c    0.582596 *  0.165473 *  0.249787 *   0.87073    1.000000    
    176 O2    c    0.839429 *  0.419320 *  0.580892 *   0.87073    1.000000    
    177 O1    c    0.596247 *  0.405419 *  0.914110 *   1.73396    1.000000    
    178 O2    c    0.412475 *  0.837805 *  0.746080 *   0.87073    1.000000    
    179 O2    c    0.168128 *  0.584844 *  0.081099 *   0.87073    1.000000    
    180 O2    c    0.418156 *  0.580990 *  0.413866 *   0.87073    1.000000    
    181 F     c    0.453359 *  0.905253 *  0.247430 *   0.56000    1.000000    
    182 F     c    0.099296 *  0.543438 *  0.580445 *   0.56000    1.000000    
    183 F     c    0.476782 *  0.525185 *  0.907690 *   0.56000    1.000000    
    184 F     c    0.513620 *  0.095087 *  0.735343 *   0.56000    1.000000    
    185 F     c    0.908790 *  0.454694 *  0.081028 *   0.56000    1.000000    
    186 F     c    0.549976 *  0.450755 *  0.413376 *   0.56000    1.000000    
    187 O2    s    0.928033 *  0.001490 *  0.997571 *  -2.87073    1.000000    
    188 O2    s    0.001499 *  0.924526 *  0.331372 *  -2.87073    1.000000    
    189 O2    s    0.069966 *  0.068008 *  0.664285 *  -2.87073    1.000000    
    190 O2    s    0.075680 *  0.997300 *  0.497925 *  -2.87073    1.000000    
    191 O2    s    0.991113 *  0.078777 *  0.831770 *  -2.87073    1.000000    
    192 O2    s    0.926715 *  0.925237 *  0.164623 *  -2.87073    1.000000    
    193 O2    s    0.354068 *  0.585547 *  0.330394 *  -2.87073    1.000000    
    194 O2    s    0.415634 *  0.753573 *  0.664271 *  -2.87073    1.000000    
    195 O2    s    0.231143 *  0.645606 *  0.997176 *  -2.87073    1.000000    
    196 O3    s    0.645276 *  0.419527 *  0.825324 *  -3.33043    1.000000    
    197 O2    s    0.590429 *  0.237331 *  0.167394 *  -2.87073    1.000000    
    198 O2    s    0.768099 *  0.352718 *  0.497920 *  -2.87073    1.000000    
    199 O3    s    0.583767 *  0.343947 *  0.004591 *  -3.33043    1.000000    
    200 O2    s    0.777199 *  0.424249 *  0.663715 *  -2.87073    1.000000    
    201 O2    s    0.648796 *  0.232421 *  0.332689 *  -2.87073    1.000000    
    202 O2    s    0.414393 *  0.643986 *  0.497196 *  -2.87073    1.000000    
    203 O2    s    0.239201 *  0.590499 *  0.164322 *  -2.87073    1.000000    
    204 O2    s    0.349087 *  0.771168 *  0.830410 *  -2.87073    1.000000    
    205 O2    s    0.117184 *  0.218528 *  0.965690 *  -2.87073    1.000000    
    206 O2    s    0.784114 *  0.903885 *  0.301799 *  -2.87073    1.000000    
    207 O2    s    0.107089 *  0.879016 *  0.635122 *  -2.87073    1.000000    
    208 O2    s    0.879211 *  0.782068 *  0.467580 *  -2.87073    1.000000    
    209 O2    s    0.210651 *  0.103646 *  0.804540 *  -2.87073    1.000000    
    210 O2    s    0.910393 *  0.124467 *  0.136097 *  -2.87073    1.000000    
    211 O2    s    0.217873 *  0.121180 *  0.361317 *  -2.87073    1.000000    
    212 O2    s    0.900504 *  0.781525 *  0.028336 *  -2.87073    1.000000    
    213 O2    s    0.873484 *  0.092860 *  0.692492 *  -2.87073    1.000000    
    214 O2    s    0.776724 *  0.888127 *  0.860791 *  -2.87073    1.000000    
    215 O2    s    0.095522 *  0.213946 *  0.527107 *  -2.87073    1.000000    
    216 O2    s    0.124072 *  0.907550 *  0.195370 *  -2.87073    1.000000    
    217 O2    s    0.930848 *  0.859596 *  0.248246 *  -2.87073    1.000000    
    218 O2    s    0.141246 *  0.068124 *  0.580914 *  -2.87073    1.000000    
    219 O2    s    0.920501 *  0.074501 *  0.914888 *  -2.87073    1.000000    
    220 O2    s    0.058422 *  0.130771 *  0.747602 *  -2.87073    1.000000    
    221 O2    s    0.862026 *  0.934178 *  0.081252 *  -2.87073    1.000000    
    222 O2    s    0.071063 *  0.929825 *  0.414622 *  -2.87073    1.000000    
    223 O2    s    0.905333 *  0.203878 *  0.982431 *  -2.87073    1.000000    
    224 O2    s    0.797338 *  0.703282 *  0.313652 *  -2.87073    1.000000    
    225 O3    s    0.294637 *  0.096340 *  0.646344 *  -3.33043    1.000000    
    226 O2    s    0.092769 *  0.793697 *  0.479788 *  -2.87073    1.000000    
    227 O2    s    0.185841 *  0.298065 *  0.810794 *  -2.87073    1.000000    
    228 O2    s    0.707246 *  0.913227 *  0.147032 *  -2.87073    1.000000    
    229 O2    s    0.206549 *  0.908418 *  0.349578 *  -2.87073    1.000000    
    230 O2    s    0.705483 *  0.804380 *  0.015225 *  -2.87073    1.000000    
    231 O2    s    0.090022 *  0.288897 *  0.681562 *  -2.87073    1.000000    
    232 O2    s    0.788817 *  0.099711 *  0.847796 *  -2.87073    1.000000    
    233 O2    s    0.296956 *  0.202135 *  0.515498 *  -2.87073    1.000000    
    234 O2    s    0.912951 *  0.705970 *  0.182908 *  -2.87073    1.000000    
    235 O2    s    0.331380 *  0.657980 *  0.247504 *  -2.87073    1.000000    
    236 O2    s    0.346588 *  0.664379 *  0.580521 *  -2.87073    1.000000    
    237 O2    s    0.326327 *  0.670825 *  0.913544 *  -2.87073    1.000000    
    238 O2    s    0.663856 *  0.345217 *  0.743996 *  -2.87073    1.000000    
    239 O2    s    0.660163 *  0.328723 *  0.085077 *  -2.87073    1.000000    
    240 O2    s    0.673530 *  0.327515 *  0.415014 *  -2.87073    1.000000    
    241 O3    s    0.365006 *  0.327794 *  0.963873 *  -3.33043    1.000000    
    242 O2    s    0.660710 *  0.035428 *  0.300555 *  -2.87073    1.000000    
    243 O2    s    0.972640 *  0.626576 *  0.631969 *  -2.87073    1.000000    
    244 O2    s    0.624159 *  0.658323 *  0.465601 *  -2.87073    1.000000    
    245 O2    s    0.333550 *  0.966435 *  0.797546 *  -2.87073    1.000000    
    246 O2    s    0.042937 *  0.380105 *  0.133848 *  -2.87073    1.000000    
    247 O2    s    0.341515 *  0.375798 *  0.362298 *  -2.87073    1.000000    
    248 O2    s    0.032770 *  0.657481 *  0.029263 *  -2.87073    1.000000    
    249 O2    s    0.619715 *  0.962164 *  0.694980 *  -2.87073    1.000000    
    250 O3    s    0.669934 *  0.641916 *  0.859823 *  -3.33043    1.000000    
    251 O2    s    0.965489 *  0.339605 *  0.528555 *  -2.87073    1.000000    
    252 O2    s    0.378536 *  0.039106 *  0.197021 *  -2.87073    1.000000    
    253 O2    s    0.777645 *  0.310863 *  0.014056 *  -2.87073    1.000000    
    254 O2    s    0.690831 *  0.465021 *  0.344950 *  -2.87073    1.000000    
    255 O3    s    0.546202 *  0.240590 *  0.672367 *  -3.33043    1.000000    
    256 O2    s    0.224820 *  0.685503 *  0.511065 *  -2.87073    1.000000    
    257 O2    s    0.306580 *  0.537730 *  0.844024 *  -2.87073    1.000000    
    258 O2    s    0.469711 *  0.780540 *  0.178169 *  -2.87073    1.000000    
    259 O2    s    0.312219 *  0.776384 *  0.317388 *  -2.87073    1.000000    
    260 O2    s    0.465709 *  0.691236 *  0.981459 *  -2.87073    1.000000    
    261 O2    s    0.226314 *  0.524965 *  0.649871 *  -2.87073    1.000000    
    262 O2    s    0.682848 *  0.227106 *  0.812791 *  -2.87073    1.000000    
    263 O2    s    0.534891 *  0.308969 *  0.484149 *  -2.87073    1.000000    
    264 O2    s    0.781745 *  0.468615 *  0.153030 *  -2.87073    1.000000    
    265 O2    s    0.785296 *  0.530502 *  0.029483 *  -2.87073    1.000000    
    266 O2    s    0.469205 *  0.256284 *  0.361941 *  -2.87073    1.000000    
    267 O2    s    0.735081 *  0.208139 *  0.692687 *  -2.87073    1.000000    
    268 O2    s    0.212129 *  0.463591 *  0.527753 *  -2.87073    1.000000    
    269 O2    s    0.524935 *  0.738159 *  0.862497 *  -2.87073    1.000000    
    270 O2    s    0.260038 *  0.792245 *  0.195343 *  -2.87073    1.000000    
    271 O2    s    0.533456 *  0.789218 *  0.300524 *  -2.87073    1.000000    
    272 O2    s    0.268858 *  0.472609 *  0.963849 *  -2.87073    1.000000    
    273 O2    s    0.216484 *  0.736208 *  0.633547 *  -2.87073    1.000000    
    274 O2    s    0.463263 *  0.214014 *  0.798232 *  -2.87073    1.000000    
    275 O2    s    0.743121 *  0.530931 *  0.467313 *  -2.87073    1.000000    
    276 O2    s    0.796772 *  0.262109 *  0.137068 *  -2.87073    1.000000    
    277 O2    s    0.240283 *  0.334480 *  0.893872 *  -2.87073    1.000000    
    278 O2    s    0.669125 *  0.908994 *  0.230459 *  -2.87073    1.000000    
    279 O2    s    0.100226 *  0.760365 *  0.563020 *  -2.87073    1.000000    
    280 O2    s    0.760564 *  0.665784 *  0.396521 *  -2.87073    1.000000    
    281 O3    s    0.312011 *  0.095327 *  0.733108 *  -3.33043    1.000000    
    282 O2    s    0.911059 *  0.242696 *  0.065630 *  -2.87073    1.000000    
    283 O2    s    0.334274 *  0.239745 *  0.432220 *  -2.87073    1.000000    
    284 O2    s    0.906174 *  0.665789 *  0.099469 *  -2.87073    1.000000    
    285 O2    s    0.750294 *  0.094778 *  0.763248 *  -2.87073    1.000000    
    286 O2    s    0.666230 *  0.756813 *  0.931761 *  -2.87073    1.000000    
    287 O2    s    0.092205 *  0.327393 *  0.598247 *  -2.87073    1.000000    
    288 O2    s    0.243211 *  0.909660 *  0.266355 *  -2.87073    1.000000    
    289 O3    s    0.585788 *  0.569292 *  0.987590 *  -3.33043    1.000000    
    290 O2    s    0.442194 *  0.022106 *  0.319788 *  -2.87073    1.000000    
    291 O2    s    0.981069 *  0.416284 *  0.651242 *  -2.87073    1.000000    
    292 O2    s    0.418784 *  0.438774 *  0.484661 *  -2.87073    1.000000    
    293 O2    s    0.553037 *  0.984176 *  0.814231 *  -2.87073    1.000000    
    294 O2    s    0.027875 *  0.585426 *  0.151899 *  -2.87073    1.000000    
    295 O2    s    0.560623 *  0.581984 *  0.343356 *  -2.87073    1.000000    
    296 O2    s    0.025378 *  0.439858 *  0.011435 *  -2.87073    1.000000    
    297 O3    s    0.411154 *  0.956637 *  0.671947 *  -3.33043    1.000000    
    298 O3    s    0.420628 *  0.410180 *  0.835805 *  -3.33043    1.000000    
    299 O2    s    0.978611 *  0.559719 *  0.510476 *  -2.87073    1.000000    
    300 O2    s    0.585347 *  0.026853 *  0.178154 *  -2.87073    1.000000    
    301 O2    s    0.577260 *  0.154444 *  0.249710 *  -2.87073    1.000000    
    302 O2    s    0.850710 *  0.424949 *  0.580758 *  -2.87073    1.000000    
    303 O1    s    0.589528 *  0.410822 *  0.914812 *  -3.73396    1.000000    
    304 O2    s    0.417273 *  0.847433 *  0.746354 *  -2.87073    1.000000    
    305 O2    s    0.156899 *  0.579176 *  0.081096 *  -2.87073    1.000000    
    306 O2    s    0.423749 *  0.575403 *  0.413825 *  -2.87073    1.000000    
    307 F     s    0.453140 *  0.904943 *  0.247295 *  -1.56000    1.000000    
    308 F     s    0.099586 *  0.543370 *  0.580438 *  -1.56000    1.000000    
    309 F     s    0.482051 *  0.521423 *  0.906130 *  -1.56000    1.000000    
    310 F     s    0.506645 *  0.094989 *  0.732308 *  -1.56000    1.000000    
    311 F     s    0.908831 *  0.454692 *  0.080832 *  -1.56000    1.000000    
    312 F     s    0.550270 *  0.450571 *  0.413241 *  -1.56000    1.000000    
--------------------------------------------------------------------------------



********************************************************************************
*  General input information                                                   *
********************************************************************************

  Species output for all configurations : 

--------------------------------------------------------------------------------
  Species    Type    Atomic    Atomic    Charge       Radii (Angs)     Library
                     Number     Mass       (e)     Cova   Ionic  VDW   Symbol
--------------------------------------------------------------------------------
    Si       Core       14      28.09   4.000000   1.200  0.000  2.100          
    O1       Core        8      16.00   1.733957   0.730  0.000  1.360          
    O1       Shell       8       0.00  -3.733957   0.730  0.000  1.360          
    O2       Core        8      16.00   0.870733   0.730  0.000  1.360          
    O2       Shell       8       0.00  -2.870733   0.730  0.000  1.360          
    O3       Core        8      16.00   1.330431   0.730  0.000  1.360          
    O3       Shell       8       0.00  -3.330431   0.730  0.000  1.360          
    F        Core        9      19.00   0.560000   0.710  0.000  1.300          
    F        Shell       9       0.00  -1.560000   0.710  0.000  1.300          
    Ge       Core       32      72.61   4.000000   1.170  0.000  1.750          
--------------------------------------------------------------------------------


  Lattice summation method               =    Ewald          (3-D)
                                         =    Parry          (2-D)
                                         =    Saunders et al (1-D)
  Accuracy factor for lattice sums       =   12.000


  Time limit = Infinity

  Maximum range for interatomic potentials =        16.000000 Angstroms

  Taper potentials to zero over   1.0000 Angstroms using polynomial

  General interatomic potentials :

--------------------------------------------------------------------------------
Atom  Types   Potential         A         B         C         D     Cutoffs(Ang)
  1     2                                                            Min    Max 
--------------------------------------------------------------------------------
Si   c O1   s Buckingham    0.132E+04 0.318      10.1      0.00     0.000 16.000
Si   c O2   s Buckingham    0.132E+04 0.318      10.1      0.00     0.000 16.000
Si   c O3   s Buckingham    0.132E+04 0.318      10.1      0.00     0.000 16.000
Ge   c O1   s Buckingham    0.150E+04 0.326      16.8      0.00     0.000 16.000
Ge   c O2   s Buckingham    0.150E+04 0.326      16.8      0.00     0.000 16.000
Ge   c O3   s Buckingham    0.150E+04 0.326      16.8      0.00     0.000 16.000
O1   s O1   s Buckingham    0.228E+05 0.149      10.9      0.00     0.000 16.000
O1   s O2   s Buckingham    0.228E+05 0.149      10.9      0.00     0.000 16.000
O1   s O3   s Buckingham    0.228E+05 0.149      10.9      0.00     0.000 16.000
O2   s O2   s Buckingham    0.228E+05 0.149      10.9      0.00     0.000 16.000
O2   s O3   s Buckingham    0.228E+05 0.149      10.9      0.00     0.000 16.000
O3   s O3   s Buckingham    0.228E+05 0.149      10.9      0.00     0.000 16.000
Si   c F    s Buckingham     977.     0.282      0.00      0.00     0.000 16.000
Ge   c F    s Buckingham     681.     0.320      0.00      0.00     0.000 16.000
F    s F    s Buckingham     540.     0.262      0.00      0.00     0.000 16.000
O1   s F    s Buckingham    0.168E+04 0.268      0.00      0.00     0.000 16.000
O2   s F    s Buckingham    0.168E+04 0.268      0.00      0.00     0.000 16.000
O3   s F    s Buckingham    0.168E+04 0.268      0.00      0.00     0.000 16.000
O2   c O2   s Spring (c-s)   76.0      0.00      0.00      0.00     0.000  0.800
O3   c O3   s Spring (c-s)   128.      0.00      0.00      0.00     0.000  0.800
O1   c O1   s Spring (c-s)   180.      0.00      0.00      0.00     0.000  0.800
F    c F    s Spring (c-s)   33.5      0.00      0.00      0.00     0.000  0.800
--------------------------------------------------------------------------------

  General Three-body potentials :

  Harmonic form:

--------------------------------------------------------------------------------
Atom    Atom    Atom           Force Constants            Theta     Cutoffs  
  1       2       3     (eVrad**-2/eVrad**-3/eVrad**-4)   (deg)  1-2  1-3  2-3
--------------------------------------------------------------------------------
Si    c O1    s O1    s  1.261        0.0000    0.0000   109.470 0.00 0.00 0.00
                                                                 1.90 1.90 3.50
Si    c O1    s O2    s  1.261        0.0000    0.0000   109.470 0.00 0.00 0.00
                                                                 1.90 1.90 3.50
Si    c O2    s O2    s  1.261        0.0000    0.0000   109.470 0.00 0.00 0.00
                                                                 1.90 1.90 3.50
--------------------------------------------------------------------------------

********************************************************************************
*  Output for configuration   1                                                *
********************************************************************************


  Components of energy : 

--------------------------------------------------------------------------------
  Interatomic potentials     =        2064.82317276 eV
  Three-body potentials      =           0.46519184 eV
  Monopole - monopole (real) =       -6613.00101314 eV
  Monopole - monopole (recip)=       -3172.61629135 eV
  Monopole - monopole (total)=       -9785.61730450 eV
  Neutralising energy        =          -6.46194053 eV
--------------------------------------------------------------------------------
  Total lattice energy       =       -7726.79088042 eV
--------------------------------------------------------------------------------
  Total lattice energy       =         -745517.2051 kJ/(mole unit cells)
--------------------------------------------------------------------------------


  Number of variables =      939

  Maximum number of calculations  =          1000
  Maximum Hessian update interval =            10
  Maximum step size               =   1.000000000
  Maximum parameter tolerance     =   0.000010000
  Maximum function  tolerance     =   0.000010000
  Maximum gradient  tolerance     =   0.001000000
  Maximum gradient  component     =   0.010000000

  Symmetry not applied to optimisation

  Cell parameters to be optimised using strains

  Newton-Raphson optimiser to be used

  BFGS hessian update to be used

  Dumpfile to be written after every cycle

  Start of bulk optimisation :

  Cycle:      0 Energy:     -7726.790880  Gnorm:      0.001021  CPU:    1.065
  ** Hessian calculated **
  Cycle:      1 Energy:     -7726.809374  Gnorm:      0.002670  CPU:    2.972
  Cycle:      2 Energy:     -7726.809634  Gnorm:      0.001246  CPU:    4.354
  Cycle:      3 Energy:     -7726.809774  Gnorm:      0.000046  CPU:    5.737


  **** Optimisation achieved ****


  Final energy =   -7726.80977459 eV
  Final Gnorm  =       0.00001809

  Components of energy : 

--------------------------------------------------------------------------------
  Interatomic potentials     =        2064.89220307 eV
  Three-body potentials      =           0.46885278 eV
  Monopole - monopole (real) =       -6612.73663325 eV
  Monopole - monopole (recip)=       -3172.97153355 eV
  Monopole - monopole (total)=       -9785.70816680 eV
  Neutralising energy        =          -6.46266364 eV
--------------------------------------------------------------------------------
  Total lattice energy       =       -7726.80977459 eV
--------------------------------------------------------------------------------
  Total lattice energy       =         -745519.0281 kJ/(mole unit cells)
--------------------------------------------------------------------------------

  Final fractional coordinates of atoms :

--------------------------------------------------------------------------------
   No.  Atomic        x           y          z          Radius
        Label       (Frac)      (Frac)     (Frac)       (Angs) 
--------------------------------------------------------------------------------
     1  Si    c     0.699600    0.375700    0.033890    0.000000
     2  Si    c     0.626631    0.322215    0.363513    0.000000
     3  Si    c     0.677018    0.309257    0.691162    0.000000
     4  Si    c     0.300264    0.615564    0.527469    0.000000
     5  Si    c     0.372519    0.678424    0.859278    0.000000
     6  Si    c     0.332568    0.708078    0.194602    0.000000
     7  Si    c     0.384005    0.699922    0.295403    0.000000
     8  Si    c     0.320282    0.622850    0.961572    0.000000
     9  Si    c     0.303051    0.667619    0.628198    0.000000
    10  Si    c     0.613546    0.308549    0.793793    0.000000
    11  Si    c     0.679108    0.377946    0.463921    0.000000
    12  Si    c     0.711648    0.327596    0.134824    0.000000
    13  Ge    c     0.532369    0.414006    0.964272    0.000000
    14  Si    c     0.588022    0.110497    0.299950    0.000000
    15  Si    c     0.898397    0.476424    0.629879    0.000000
    16  Si    c     0.472261    0.579388    0.461820    0.000000
    17  Si    c     0.407675    0.889246    0.793338    0.000000
    18  Si    c     0.122616    0.535869    0.129463    0.000000
    19  Si    c     0.422348    0.526307    0.360098    0.000000
    20  Si    c     0.109407    0.581621    0.027840    0.000000
    21  Si    c     0.464799    0.880784    0.690506    0.000000
    22  Ge    c     0.567447    0.472746    0.863794    0.000000
    23  Si    c     0.891559    0.418879    0.528657    0.000000
    24  Si    c     0.537173    0.115809    0.198370    0.000000
    25  Si    c     0.290415    0.395027    0.842068    0.000000
    26  Si    c     0.610283    0.908971    0.181680    0.000000
    27  Si    c     0.101186    0.697636    0.514013    0.000000
    28  Si    c     0.703674    0.598861    0.346915    0.000000
    29  Ge    c     0.408466    0.098400    0.684693    0.000000
    30  Si    c     0.902984    0.302299    0.016540    0.000000
    31  Si    c     0.399278    0.298166    0.477604    0.000000
    32  Si    c     0.911847    0.606304    0.145239    0.000000
    33  Si    c     0.691160    0.102175    0.808299    0.000000
    34  Si    c     0.603242    0.702568    0.978125    0.000000
    35  Si    c     0.100160    0.393346    0.643535    0.000000
    36  Si    c     0.307287    0.901401    0.312184    0.000000
    37  Si    c     0.248334    0.335575    0.945240    0.000000
    38  Si    c     0.665038    0.909093    0.282492    0.000000
    39  Si    c     0.101176    0.752926    0.614837    0.000000
    40  Si    c     0.752232    0.658877    0.447702    0.000000
    41  Si    c     0.326595    0.093171    0.780489    0.000000
    42  Si    c     0.921835    0.256751    0.117125    0.000000
    43  Si    c     0.344745    0.248233    0.376408    0.000000
    44  Si    c     0.906409    0.657941    0.044125    0.000000
    45  Si    c     0.744905    0.090535    0.706859    0.000000
    46  Si    c     0.660653    0.752338    0.875240    0.000000
    47  Si    c     0.090991    0.337007    0.542733    0.000000
    48  Si    c     0.259294    0.915684    0.211371    0.000000
    49  Si    c     0.965731    0.123014    0.963053    0.000000
    50  Si    c     0.883641    0.846952    0.296923    0.000000
    51  Si    c     0.158606    0.032220    0.630474    0.000000
    52  Si    c     0.031177    0.876953    0.463027    0.000000
    53  Si    c     0.107411    0.149556    0.795721    0.000000
    54  Si    c     0.857631    0.976431    0.130142    0.000000
    55  Si    c     0.126772    0.969341    0.362168    0.000000
    56  Si    c     0.849619    0.882036    0.028502    0.000000
    57  Si    c     0.023582    0.143146    0.693393    0.000000
    58  Si    c     0.868712    0.036028    0.861781    0.000000
    59  Si    c     0.151378    0.118079    0.528600    0.000000
    60  Si    c     0.979430    0.853818    0.195812    0.000000
    61  O2    c     0.931961    0.000522    0.994741    0.000000
    62  O2    c     0.006085    0.927048    0.328880    0.000000
    63  O2    c     0.063181    0.061251    0.661335    0.000000
    64  O2    c     0.071924    0.997789    0.495490    0.000000
    65  O2    c     0.988845    0.073605    0.829547    0.000000
    66  O2    c     0.937572    0.931652    0.161753    0.000000
    67  O2    c     0.345480    0.574889    0.326976    0.000000
    68  O2    c     0.425513    0.750391    0.661681    0.000000
    69  O2    c     0.232486    0.656855    0.993944    0.000000
    70  O3    c     0.651995    0.426803    0.825271    0.000000
    71  O2    c     0.590049    0.245436    0.167854    0.000000
    72  O2    c     0.764524    0.341264    0.497169    0.000000
    73  O3    c     0.572656    0.333361    0.004866    0.000000
    74  O2    c     0.776307    0.435720    0.663024    0.000000
    75  O2    c     0.665366    0.234530    0.332328    0.000000
    76  O2    c     0.421949    0.655070    0.493964    0.000000
    77  O2    c     0.250506    0.587550    0.160697    0.000000
    78  O2    c     0.336204    0.765731    0.827173    0.000000
    79  O2    c     0.118816    0.216226    0.966012    0.000000
    80  O2    c     0.790568    0.908058    0.303099    0.000000
    81  O2    c     0.103675    0.878012    0.636001    0.000000
    82  O2    c     0.876957    0.785593    0.467632    0.000000
    83  O2    c     0.205560    0.095603    0.805527    0.000000
    84  O2    c     0.923907    0.130413    0.136454    0.000000
    85  O2    c     0.218886    0.122662    0.356164    0.000000
    86  O2    c     0.905013    0.783589    0.023521    0.000000
    87  O2    c     0.870251    0.088823    0.687204    0.000000
    88  O2    c     0.777778    0.884389    0.856081    0.000000
    89  O2    c     0.088862    0.210297    0.522250    0.000000
    90  O2    c     0.133749    0.918459    0.191299    0.000000
    91  O2    c     0.935276    0.864302    0.245885    0.000000
    92  O2    c     0.136802    0.064512    0.578920    0.000000
    93  O2    c     0.918788    0.073663    0.912668    0.000000
    94  O2    c     0.052795    0.124321    0.745180    0.000000
    95  O2    c     0.866796    0.937430    0.078846    0.000000
    96  O2    c     0.071867    0.930939    0.412462    0.000000
    97  O2    c     0.894877    0.201476    0.978235    0.000000
    98  O2    c     0.803334    0.695295    0.308599    0.000000
    99  O3    c     0.304123    0.107835    0.642723    0.000000
   100  O2    c     0.101247    0.794804    0.475181    0.000000
   101  O2    c     0.180171    0.302608    0.805938    0.000000
   102  O2    c     0.707016    0.909405    0.142795    0.000000
   103  O2    c     0.208546    0.898257    0.350651    0.000000
   104  O2    c     0.698112    0.806918    0.015506    0.000000
   105  O2    c     0.098747    0.295244    0.682201    0.000000
   106  O2    c     0.786556    0.105561    0.848280    0.000000
   107  O2    c     0.302885    0.200291    0.515820    0.000000
   108  O2    c     0.912815    0.703248    0.183628    0.000000
   109  O2    c     0.329981    0.646887    0.244439    0.000000
   110  O2    c     0.360188    0.669900    0.577729    0.000000
   111  O2    c     0.319769    0.674815    0.910521    0.000000
   112  O2    c     0.665565    0.355277    0.742316    0.000000
   113  O2    c     0.650911    0.323742    0.085109    0.000000
   114  O2    c     0.682769    0.321493    0.413918    0.000000
   115  O3    c     0.363348    0.318385    0.964270    0.000000
   116  O2    c     0.674919    0.040293    0.301754    0.000000
   117  O2    c     0.967971    0.631498    0.632472    0.000000
   118  O2    c     0.628039    0.667856    0.464897    0.000000
   119  O2    c     0.320904    0.958580    0.796606    0.000000
   120  O2    c     0.055750    0.380073    0.133315    0.000000
   121  O2    c     0.335102    0.370629    0.357144    0.000000
   122  O2    c     0.038026    0.667292    0.024316    0.000000
   123  O2    c     0.622091    0.957807    0.690438    0.000000
   124  O3    c     0.678165    0.639953    0.855235    0.000000
   125  O2    c     0.959385    0.330173    0.524659    0.000000
   126  O2    c     0.381385    0.048629    0.193620    0.000000
   127  O2    c     0.769069    0.302992    0.010122    0.000000
   128  O2    c     0.702861    0.463962    0.339921    0.000000
   129  O3    c     0.541334    0.246971    0.666541    0.000000
   130  O2    c     0.232564    0.692596    0.505542    0.000000
   131  O2    c     0.298183    0.534828    0.838784    0.000000
   132  O2    c     0.476260    0.777108    0.172626    0.000000
   133  O2    c     0.307580    0.766861    0.317974    0.000000
   134  O2    c     0.465554    0.699080    0.981328    0.000000
   135  O2    c     0.235753    0.524642    0.650636    0.000000
   136  O2    c     0.686424    0.232679    0.813121    0.000000
   137  O2    c     0.535235    0.301252    0.485464    0.000000
   138  O2    c     0.781275    0.472398    0.155211    0.000000
   139  O2    c     0.778189    0.532255    0.026090    0.000000
   140  O2    c     0.470758    0.246797    0.357386    0.000000
   141  O2    c     0.740531    0.214930    0.688722    0.000000
   142  O2    c     0.218155    0.460142    0.522796    0.000000
   143  O2    c     0.526743    0.742899    0.857863    0.000000
   144  O2    c     0.257513    0.790054    0.190487    0.000000
   145  O2    c     0.539466    0.782078    0.300759    0.000000
   146  O2    c     0.263419    0.469922    0.963520    0.000000
   147  O2    c     0.223429    0.744144    0.633807    0.000000
   148  O2    c     0.458100    0.215600    0.798490    0.000000
   149  O2    c     0.751932    0.533571    0.468199    0.000000
   150  O2    c     0.798382    0.257631    0.138764    0.000000
   151  O2    c     0.231296    0.325222    0.890826    0.000000
   152  O2    c     0.684017    0.909868    0.228025    0.000000
   153  O2    c     0.102022    0.770564    0.560235    0.000000
   154  O2    c     0.772562    0.674207    0.393247    0.000000
   155  O3    c     0.300223    0.095031    0.727931    0.000000
   156  O2    c     0.913634    0.234805    0.062848    0.000000
   157  O2    c     0.327018    0.229356    0.430740    0.000000
   158  O2    c     0.909145    0.677241    0.098492    0.000000
   159  O2    c     0.756878    0.093975    0.761658    0.000000
   160  O2    c     0.673113    0.762968    0.930224    0.000000
   161  O2    c     0.092892    0.317886    0.597123    0.000000
   162  O2    c     0.238980    0.910628    0.265702    0.000000
   163  O3    c     0.585767    0.565433    0.989046    0.000000
   164  O2    c     0.446569    0.024037    0.322256    0.000000
   165  O2    c     0.978040    0.413258    0.653055    0.000000
   166  O2    c     0.414866    0.438579    0.485105    0.000000
   167  O2    c     0.550069    0.978666    0.814280    0.000000
   168  O2    c     0.039020    0.593665    0.152506    0.000000
   169  O2    c     0.564010    0.584632    0.337111    0.000000
   170  O2    c     0.028951    0.439611    0.005430    0.000000
   171  O3    c     0.404414    0.955997    0.664989    0.000000
   172  O3    c     0.422942    0.403441    0.830349    0.000000
   173  O2    c     0.974185    0.560092    0.505665    0.000000
   174  O2    c     0.597104    0.035622    0.173738    0.000000
   175  O2    c     0.587561    0.165693    0.249434    0.000000
   176  O2    c     0.840985    0.420396    0.579706    0.000000
   177  O1    c     0.594787    0.404830    0.913461    0.000000
   178  O2    c     0.410938    0.837912    0.742847    0.000000
   179  O2    c     0.170190    0.586217    0.077792    0.000000
   180  O2    c     0.420228    0.579530    0.410631    0.000000
   181  F     c     0.458616    0.906045    0.245628    0.000000
   182  F     c     0.101827    0.544162    0.578421    0.000000
   183  F     c     0.474812    0.524290    0.905158    0.000000
   184  F     c     0.512177    0.095638    0.732894    0.000000
   185  F     c     0.910018    0.455991    0.079304    0.000000
   186  F     c     0.552563    0.449376    0.410939    0.000000
   187  O2    s     0.926627    0.000897    0.994983    0.000000
   188  O2    s     0.005750    0.922737    0.328990    0.000000
   189  O2    s     0.068475    0.067586    0.661811    0.000000
   190  O2    s     0.076071    0.997384    0.495463    0.000000
   191  O2    s     0.988331    0.077866    0.829460    0.000000
   192  O2    s     0.933221    0.928019    0.161984    0.000000
   193  O2    s     0.357313    0.582946    0.327051    0.000000
   194  O2    s     0.417261    0.755165    0.661228    0.000000
   195  O2    s     0.229507    0.645705    0.993883    0.000000
   196  O3    s     0.641908    0.416831    0.824427    0.000000
   197  O2    s     0.597399    0.240748    0.167510    0.000000
   198  O2    s     0.768724    0.353118    0.496943    0.000000
   199  O3    s     0.582491    0.343824    0.004724    0.000000
   200  O2    s     0.778536    0.426566    0.662554    0.000000
   201  O2    s     0.653334    0.230476    0.332120    0.000000
   202  O2    s     0.414670    0.643115    0.494073    0.000000
   203  O2    s     0.245524    0.594408    0.160894    0.000000
   204  O2    s     0.347288    0.768970    0.827164    0.000000
   205  O2    s     0.115606    0.218525    0.963533    0.000000
   206  O2    s     0.787378    0.901630    0.300309    0.000000
   207  O2    s     0.108897    0.880000    0.633191    0.000000
   208  O2    s     0.880274    0.782090    0.465104    0.000000
   209  O2    s     0.207228    0.101046    0.802089    0.000000
   210  O2    s     0.916734    0.127279    0.133814    0.000000
   211  O2    s     0.222044    0.119315    0.358846    0.000000
   212  O2    s     0.899286    0.781064    0.026137    0.000000
   213  O2    s     0.872880    0.094673    0.689915    0.000000
   214  O2    s     0.775221    0.887077    0.858790    0.000000
   215  O2    s     0.095669    0.213755    0.525015    0.000000
   216  O2    s     0.130243    0.911289    0.193824    0.000000
   217  O2    s     0.934546    0.861168    0.245882    0.000000
   218  O2    s     0.140779    0.067301    0.578529    0.000000
   219  O2    s     0.918444    0.074997    0.912612    0.000000
   220  O2    s     0.055797    0.129295    0.745243    0.000000
   221  O2    s     0.863857    0.935506    0.078855    0.000000
   222  O2    s     0.073574    0.929275    0.412378    0.000000
   223  O2    s     0.903403    0.203378    0.980552    0.000000
   224  O2    s     0.801842    0.701657    0.311201    0.000000
   225  O3    s     0.294495    0.098597    0.644108    0.000000
   226  O2    s     0.093750    0.793671    0.477838    0.000000
   227  O2    s     0.183771    0.296193    0.808531    0.000000
   228  O2    s     0.713327    0.916555    0.145396    0.000000
   229  O2    s     0.210081    0.906061    0.347910    0.000000
   230  O2    s     0.704391    0.804310    0.013121    0.000000
   231  O2    s     0.090976    0.289230    0.679436    0.000000
   232  O2    s     0.785371    0.097850    0.845575    0.000000
   233  O2    s     0.297134    0.201891    0.513177    0.000000
   234  O2    s     0.919869    0.709262    0.180912    0.000000
   235  O2    s     0.335725    0.658543    0.244499    0.000000
   236  O2    s     0.348265    0.664137    0.577780    0.000000
   237  O2    s     0.325161    0.669857    0.910563    0.000000
   238  O2    s     0.661345    0.345838    0.742438    0.000000
   239  O2    s     0.662416    0.329580    0.084997    0.000000
   240  O2    s     0.676591    0.327352    0.413811    0.000000
   241  O3    s     0.363817    0.327180    0.962264    0.000000
   242  O2    s     0.664880    0.033701    0.299521    0.000000
   243  O2    s     0.974594    0.627819    0.630329    0.000000
   244  O2    s     0.625050    0.657809    0.462759    0.000000
   245  O2    s     0.330581    0.964302    0.794692    0.000000
   246  O2    s     0.048613    0.383104    0.131220    0.000000
   247  O2    s     0.345079    0.373873    0.359462    0.000000
   248  O2    s     0.031890    0.657491    0.026718    0.000000
   249  O2    s     0.619340    0.964194    0.692208    0.000000
   250  O3    s     0.668688    0.640575    0.858013    0.000000
   251  O2    s     0.966259    0.340070    0.526985    0.000000
   252  O2    s     0.384681    0.041692    0.195957    0.000000
   253  O2    s     0.776452    0.310381    0.013268    0.000000
   254  O2    s     0.695182    0.463642    0.343082    0.000000
   255  O3    s     0.546199    0.243079    0.670405    0.000000
   256  O2    s     0.225633    0.685180    0.508731    0.000000
   257  O2    s     0.305301    0.535975    0.841325    0.000000
   258  O2    s     0.475547    0.783836    0.175859    0.000000
   259  O2    s     0.315419    0.774179    0.314999    0.000000
   260  O2    s     0.464391    0.691482    0.978915    0.000000
   261  O2    s     0.228395    0.525507    0.647545    0.000000
   262  O2    s     0.679738    0.225466    0.810647    0.000000
   263  O2    s     0.535802    0.308841    0.482379    0.000000
   264  O2    s     0.787881    0.471552    0.152009    0.000000
   265  O2    s     0.784188    0.530334    0.028690    0.000000
   266  O2    s     0.473245    0.254811    0.360026    0.000000
   267  O2    s     0.734656    0.210281    0.690955    0.000000
   268  O2    s     0.212976    0.463161    0.525405    0.000000
   269  O2    s     0.523681    0.736740    0.859803    0.000000
   270  O2    s     0.265624    0.795097    0.193132    0.000000
   271  O2    s     0.536845    0.787409    0.298227    0.000000
   272  O2    s     0.268111    0.472526    0.961398    0.000000
   273  O2    s     0.218423    0.736864    0.631190    0.000000
   274  O2    s     0.459964    0.211928    0.796135    0.000000
   275  O2    s     0.744275    0.531014    0.465543    0.000000
   276  O2    s     0.802836    0.264957    0.136032    0.000000
   277  O2    s     0.239061    0.333288    0.891797    0.000000
   278  O2    s     0.674264    0.909690    0.228857    0.000000
   279  O2    s     0.101846    0.761010    0.561067    0.000000
   280  O2    s     0.763193    0.664691    0.394116    0.000000
   281  O3    s     0.310105    0.095026    0.730644    0.000000
   282  O2    s     0.913397    0.244280    0.063731    0.000000
   283  O2    s     0.336460    0.238557    0.429834    0.000000
   284  O2    s     0.909140    0.667800    0.097580    0.000000
   285  O2    s     0.748633    0.094476    0.760930    0.000000
   286  O2    s     0.664465    0.755447    0.929638    0.000000
   287  O2    s     0.093449    0.327823    0.596268    0.000000
   288  O2    s     0.248261    0.910211    0.264757    0.000000
   289  O3    s     0.583477    0.568679    0.985996    0.000000
   290  O2    s     0.446354    0.019674    0.318825    0.000000
   291  O2    s     0.983023    0.417811    0.649621    0.000000
   292  O2    s     0.419369    0.438144    0.481846    0.000000
   293  O2    s     0.550283    0.982605    0.811447    0.000000
   294  O2    s     0.033914    0.588754    0.149269    0.000000
   295  O2    s     0.564310    0.579948    0.340540    0.000000
   296  O2    s     0.023989    0.439948    0.008919    0.000000
   297  O3    s     0.411161    0.958544    0.669037    0.000000
   298  O3    s     0.418457    0.407430    0.833909    0.000000
   299  O2    s     0.979335    0.560093    0.508964    0.000000
   300  O2    s     0.592151    0.030167    0.177133    0.000000
   301  O2    s     0.582243    0.154630    0.249290    0.000000
   302  O2    s     0.852189    0.426003    0.579568    0.000000
   303  O1    s     0.588034    0.410007    0.914266    0.000000
   304  O2    s     0.415736    0.847474    0.743178    0.000000
   305  O2    s     0.159018    0.580580    0.077900    0.000000
   306  O2    s     0.425825    0.573981    0.410653    0.000000
   307  F     s     0.458439    0.905778    0.245475    0.000000
   308  F     s     0.102242    0.544124    0.578410    0.000000
   309  F     s     0.480429    0.520441    0.903343    0.000000
   310  F     s     0.505132    0.095624    0.729787    0.000000
   311  F     s     0.909912    0.455973    0.079114    0.000000
   312  F     s     0.552877    0.449135    0.410791    0.000000
--------------------------------------------------------------------------------

  Final Cartesian lattice vectors (Angstroms) :

       11.932198    0.000416    0.001456
       -5.893965   10.401268    0.001951
       -0.099570    0.086622   29.427678


  Final cell parameters and derivatives :

--------------------------------------------------------------------------------
       a           11.932198 Angstrom     dE/de1(xx)     0.004923 eV/strain
       b           11.955133 Angstrom     dE/de2(yy)     0.004921 eV/strain
       c           29.427974 Angstrom     dE/de3(zz)     0.005880 eV/strain
       alpha       89.748345 Degrees      dE/de4(yz)     0.000079 eV/strain
       beta        90.186864 Degrees      dE/de5(xz)     0.000115 eV/strain
       gamma      119.536419 Degrees      dE/de6(xy)     0.000061 eV/strain
--------------------------------------------------------------------------------

  Primitive cell volume =          3652.339805 Angs**3

  Density of cell =      1.751779 g/cm**3

  Non-primitive cell volume =          3652.339805 Angs**3


  Final internal derivatives :

--------------------------------------------------------------------------------
   No.  Atomic          a             b             c           Radius
        Label          (eV)          (eV)          (eV)        (eV/Angs)
--------------------------------------------------------------------------------
      1 Si    c       0.000000      0.000000      0.000000      0.000000
      2 Si    c      -0.000114      0.000157      0.000818      0.000000
      3 Si    c       0.000037     -0.000245      0.000283      0.000000
      4 Si    c      -0.000117     -0.000032      0.000487      0.000000
      5 Si    c      -0.000161      0.000150     -0.000048      0.000000
      6 Si    c      -0.000074      0.000187      0.000243      0.000000
      7 Si    c       0.000013      0.000106      0.000120      0.000000
      8 Si    c      -0.000134      0.000080     -0.000492      0.000000
      9 Si    c       0.000159     -0.000090     -0.000900      0.000000
     10 Si    c       0.000065     -0.000670     -0.001657      0.000000
     11 Si    c      -0.000182      0.000202     -0.000107      0.000000
     12 Si    c       0.000389     -0.000121      0.001054      0.000000
     13 Ge    c       0.000813     -0.000504     -0.004125      0.000000
     14 Si    c       0.000070     -0.000064      0.000341      0.000000
     15 Si    c      -0.000125     -0.000046     -0.000756      0.000000
     16 Si    c       0.000145     -0.000092      0.000835      0.000000
     17 Si    c      -0.000048      0.000112      0.000432      0.000000
     18 Si    c      -0.000275     -0.000160      0.002024      0.000000
     19 Si    c       0.000099     -0.000135     -0.000596      0.000000
     20 Si    c      -0.000237      0.000096     -0.001204      0.000000
     21 Si    c       0.000068      0.000005     -0.000217      0.000000
     22 Ge    c       0.000048     -0.000085      0.004221      0.000000
     23 Si    c      -0.000017      0.000096      0.000147      0.000000
     24 Si    c       0.000073     -0.000197     -0.000290      0.000000
     25 Si    c      -0.000598     -0.000062     -0.000189      0.000000
     26 Si    c       0.000383      0.000076     -0.000724      0.000000
     27 Si    c      -0.000211      0.000225     -0.000100      0.000000
     28 Si    c       0.000005      0.000270     -0.000659      0.000000
     29 Ge    c      -0.000146      0.000035     -0.000229      0.000000
     30 Si    c       0.000552     -0.000500     -0.001675      0.000000
     31 Si    c      -0.000172     -0.000016      0.000646      0.000000
     32 Si    c       0.000157      0.000202      0.001204      0.000000
     33 Si    c       0.000157     -0.000060      0.000098      0.000000
     34 Si    c       0.000207      0.000506      0.000232      0.000000
     35 Si    c       0.000162     -0.000409      0.000203      0.000000
     36 Si    c      -0.000434      0.000420      0.000876      0.000000
     37 Si    c      -0.000238     -0.000102     -0.000738      0.000000
     38 Si    c       0.000293     -0.000024      0.000333      0.000000
     39 Si    c      -0.000181      0.000314     -0.000239      0.000000
     40 Si    c       0.000070      0.000171      0.000485      0.000000
     41 Si    c      -0.000226      0.000157      0.000778      0.000000
     42 Si    c       0.000354     -0.000434      0.001110      0.000000
     43 Si    c      -0.000145     -0.000169     -0.000375      0.000000
     44 Si    c      -0.000185      0.000641     -0.001168      0.000000
     45 Si    c       0.000317     -0.000212     -0.000320      0.000000
     46 Si    c       0.000179      0.000256      0.000327      0.000000
     47 Si    c       0.000062     -0.000125      0.000111      0.000000
     48 Si    c      -0.000261      0.000233     -0.000263      0.000000
     49 Si    c      -0.000225      0.000083     -0.000260      0.000000
     50 Si    c       0.000040     -0.000330      0.002696      0.000000
     51 Si    c      -0.000163      0.000102      0.000223      0.000000
     52 Si    c       0.000003     -0.000076      0.000679      0.000000
     53 Si    c      -0.000071      0.000035     -0.000126      0.000000
     54 Si    c      -0.000179      0.000474      0.002235      0.000000
     55 Si    c       0.000112      0.000037     -0.001197      0.000000
     56 Si    c      -0.000004     -0.000213     -0.001055      0.000000
     57 Si    c       0.000097     -0.000101     -0.000455      0.000000
     58 Si    c       0.000052      0.000066     -0.000556      0.000000
     59 Si    c       0.000091     -0.000077      0.000075      0.000000
     60 Si    c       0.000105     -0.000376     -0.001836      0.000000
     61 O2    c      -0.000020     -0.000023      0.000146      0.000000
     62 O2    c      -0.000088      0.000017     -0.000128      0.000000
     63 O2    c       0.000012     -0.000005      0.000018      0.000000
     64 O2    c       0.000015     -0.000018     -0.000090      0.000000
     65 O2    c      -0.000025      0.000009      0.000062      0.000000
     66 O2    c       0.000073     -0.000010     -0.000297      0.000000
     67 O2    c      -0.000073     -0.000362      0.000414      0.000000
     68 O2    c       0.000316     -0.000095      0.000281      0.000000
     69 O2    c      -0.000243      0.000343      0.000398      0.000000
     70 O3    c      -0.000053      0.001586      0.003046      0.000000
     71 O2    c      -0.000521      0.000277      0.000144      0.000000
     72 O2    c       0.000332     -0.000325      0.000416      0.000000
     73 O3    c      -0.000554     -0.000088      0.000823      0.000000
     74 O2    c       0.000076      0.000442     -0.000339      0.000000
     75 O2    c       0.000590     -0.000676     -0.001051      0.000000
     76 O2    c       0.000260      0.000032     -0.000539      0.000000
     77 O2    c       0.000123     -0.000617     -0.001076      0.000000
     78 O2    c      -0.000200      0.000064     -0.000058      0.000000
     79 O2    c      -0.000014     -0.000016      0.000162      0.000000
     80 O2    c      -0.000479      0.000434      0.000326      0.000000
     81 O2    c       0.000094     -0.000322      0.000124      0.000000
     82 O2    c      -0.000037     -0.000011     -0.000003      0.000000
     83 O2    c       0.000130     -0.000111      0.000095      0.000000
     84 O2    c       0.000013     -0.000003     -0.000101      0.000000
     85 O2    c       0.000008      0.000038     -0.000018      0.000000
     86 O2    c       0.000014      0.000002      0.000079      0.000000
     87 O2    c      -0.000295      0.000068     -0.000081      0.000000
     88 O2    c      -0.000113     -0.000300     -0.000109      0.000000
     89 O2    c      -0.000021      0.000001     -0.000062      0.000000
     90 O2    c       0.000337      0.000021     -0.000274      0.000000
     91 O2    c       0.000049      0.000291     -0.001612      0.000000
     92 O2    c      -0.000067      0.000100     -0.000859      0.000000
     93 O2    c       0.000159      0.000145      0.001952      0.000000
     94 O2    c       0.000106     -0.000068      0.001031      0.000000
     95 O2    c       0.000200     -0.000316     -0.002288      0.000000
     96 O2    c      -0.000137     -0.000002      0.000832      0.000000
     97 O2    c       0.000028     -0.000104      0.000085      0.000000
     98 O2    c       0.000040     -0.000105     -0.000132      0.000000
     99 O3    c       0.000276      0.000132      0.000200      0.000000
    100 O2    c       0.000051     -0.000056      0.000026      0.000000
    101 O2    c       0.000035      0.000121      0.000119      0.000000
    102 O2    c      -0.000258     -0.000031      0.000119      0.000000
    103 O2    c       0.000217     -0.000233     -0.000134      0.000000
    104 O2    c      -0.000017      0.000007     -0.000062      0.000000
    105 O2    c       0.000011      0.000323     -0.000227      0.000000
    106 O2    c      -0.000024      0.000078      0.000070      0.000000
    107 O2    c       0.000012     -0.000035     -0.000009      0.000000
    108 O2    c      -0.000098      0.000063      0.000187      0.000000
    109 O2    c       0.000006     -0.000322      0.000004      0.000000
    110 O2    c       0.000030      0.000030      0.000364      0.000000
    111 O2    c      -0.000135      0.000161     -0.000088      0.000000
    112 O2    c      -0.000040      0.000292     -0.000053      0.000000
    113 O2    c      -0.000749      0.000079     -0.001009      0.000000
    114 O2    c       0.000233     -0.000242     -0.000206      0.000000
    115 O3    c      -0.000385     -0.000361     -0.000098      0.000000
    116 O2    c      -0.000022      0.000152      0.000199      0.000000
    117 O2    c      -0.000097      0.000140      0.000101      0.000000
    118 O2    c      -0.000209      0.000104      0.000193      0.000000
    119 O2    c       0.000041     -0.000148      0.000105      0.000000
    120 O2    c       0.000162      0.000186      0.000270      0.000000
    121 O2    c      -0.000110      0.000169     -0.000171      0.000000
    122 O2    c       0.000314     -0.000103     -0.000360      0.000000
    123 O2    c      -0.000048     -0.000136     -0.000091      0.000000
    124 O3    c       0.000441     -0.000193     -0.000650      0.000000
    125 O2    c      -0.000075     -0.000014     -0.000174      0.000000
    126 O2    c      -0.000078      0.000131     -0.000180      0.000000
    127 O2    c      -0.000654      0.000083     -0.000526      0.000000
    128 O2    c       0.000242     -0.000230     -0.000299      0.000000
    129 O3    c      -0.000101      0.000319     -0.000329      0.000000
    130 O2    c       0.000251     -0.000094     -0.000183      0.000000
    131 O2    c      -0.000134      0.000191     -0.000304      0.000000
    132 O2    c      -0.000187     -0.000369     -0.000492      0.000000
    133 O2    c       0.000295     -0.000718      0.000213      0.000000
    134 O2    c      -0.000224      0.000270      0.000241      0.000000
    135 O2    c       0.000157     -0.000056      0.000194      0.000000
    136 O2    c       0.000258     -0.000132      0.000107      0.000000
    137 O2    c       0.000323     -0.000204      0.000150      0.000000
    138 O2    c      -0.000362     -0.000228      0.000512      0.000000
    139 O2    c      -0.000492      0.000019     -0.000887      0.000000
    140 O2    c       0.000103     -0.000265     -0.000457      0.000000
    141 O2    c      -0.000296      0.000578     -0.000517      0.000000
    142 O2    c       0.000134      0.000047     -0.000302      0.000000
    143 O2    c      -0.000119      0.000173     -0.000440      0.000000
    144 O2    c      -0.000078     -0.000213     -0.000686      0.000000
    145 O2    c      -0.000047     -0.000323      0.000626      0.000000
    146 O2    c      -0.000121      0.000007      0.000174      0.000000
    147 O2    c       0.000104      0.000104      0.000485      0.000000
    148 O2    c      -0.000167      0.000234      0.000462      0.000000
    149 O2    c       0.000214     -0.000362      0.000437      0.000000
    150 O2    c      -0.000464      0.000126      0.000877      0.000000
    151 O2    c      -0.000081      0.000031     -0.000059      0.000000
    152 O2    c       0.000274     -0.000122      0.000018      0.000000
    153 O2    c      -0.000040      0.000074      0.000109      0.000000
    154 O2    c       0.000146      0.000079     -0.000351      0.000000
    155 O3    c      -0.000377      0.000151     -0.000906      0.000000
    156 O2    c       0.000297     -0.000548      0.000068      0.000000
    157 O2    c      -0.000117     -0.000143     -0.000016      0.000000
    158 O2    c      -0.000214      0.000454      0.000924      0.000000
    159 O2    c       0.000112     -0.000042      0.000854      0.000000
    160 O2    c      -0.000043      0.000113     -0.000241      0.000000
    161 O2    c       0.000013     -0.000084     -0.000054      0.000000
    162 O2    c      -0.000331      0.000198     -0.000449      0.000000
    163 O3    c       0.000321      0.000106      0.001899      0.000000
    164 O2    c       0.000184      0.000193      0.000458      0.000000
    165 O2    c      -0.000112     -0.000025      0.000496      0.000000
    166 O2    c      -0.000087      0.000239      0.000123      0.000000
    167 O2    c      -0.000055     -0.000089      0.000126      0.000000
    168 O2    c       0.000347     -0.000204      0.000250      0.000000
    169 O2    c      -0.000157      0.000092     -0.000233      0.000000
    170 O2    c       0.000196      0.000155     -0.000333      0.000000
    171 O3    c       0.000030     -0.000209     -0.000874      0.000000
    172 O3    c       0.000290     -0.000652     -0.002560      0.000000
    173 O2    c      -0.000093     -0.000089     -0.000165      0.000000
    174 O2    c      -0.000093      0.000286     -0.000342      0.000000
    175 O2    c       0.000009      0.000275     -0.000001      0.000000
    176 O2    c      -0.000025      0.000042      0.000352      0.000000
    177 O1    c      -0.001252      0.001071      0.002452      0.000000
    178 O2    c       0.000041     -0.000216     -0.000391      0.000000
    179 O2    c       0.000539      0.000074     -0.000794      0.000000
    180 O2    c      -0.000280      0.000259     -0.000203      0.000000
    181 F     c       0.000004      0.000037      0.000074      0.000000
    182 F     c      -0.000025     -0.000006     -0.000112      0.000000
    183 F     c       0.000612     -0.000630      0.000926      0.000000
    184 F     c       0.000021      0.000039     -0.000002      0.000000
    185 F     c       0.000027     -0.000022      0.000172      0.000000
    186 F     c       0.000021     -0.000009      0.000060      0.000000
    187 O2    s       0.000061      0.000012     -0.000306      0.000000
    188 O2    s       0.000039      0.000137      0.000444      0.000000
    189 O2    s      -0.000011     -0.000057     -0.000138      0.000000
    190 O2    s      -0.000054      0.000055      0.000174      0.000000
    191 O2    s       0.000070     -0.000037     -0.000129      0.000000
    192 O2    s       0.000118      0.000088      0.000113      0.000000
    193 O2    s      -0.000081     -0.000049      0.000180      0.000000
    194 O2    s      -0.000132      0.000030      0.000075      0.000000
    195 O2    s       0.000081      0.000076     -0.000193      0.000000
    196 O3    s       0.000041     -0.000477     -0.001210      0.000000
    197 O2    s      -0.000186      0.000042      0.000552      0.000000
    198 O2    s       0.000023     -0.000091      0.000160      0.000000
    199 O3    s       0.000009     -0.000056     -0.000966      0.000000
    200 O2    s       0.000043     -0.000067      0.000075      0.000000
    201 O2    s       0.000004      0.000126     -0.000081      0.000000
    202 O2    s      -0.000043      0.000073      0.000045      0.000000
    203 O2    s       0.000213     -0.000082      0.000056      0.000000
    204 O2    s      -0.000053     -0.000021      0.000076      0.000000
    205 O2    s      -0.000005     -0.000035      0.000179      0.000000
    206 O2    s      -0.000082      0.000307      0.000642      0.000000
    207 O2    s      -0.000096     -0.000051      0.000208      0.000000
    208 O2    s      -0.000047      0.000175      0.000456      0.000000
    209 O2    s      -0.000107     -0.000032      0.000458      0.000000
    210 O2    s       0.000322     -0.000064      0.000958      0.000000
    211 O2    s      -0.000182      0.000222     -0.000545      0.000000
    212 O2    s      -0.000000      0.000193     -0.000885      0.000000
    213 O2    s       0.000059     -0.000203     -0.000638      0.000000
    214 O2    s       0.000132     -0.000098     -0.000123      0.000000
    215 O2    s       0.000009     -0.000073     -0.000196      0.000000
    216 O2    s       0.000091      0.000115     -0.000297      0.000000
    217 O2    s      -0.000037     -0.000050      0.000461      0.000000
    218 O2    s      -0.000092      0.000040     -0.000010      0.000000
    219 O2    s       0.000043     -0.000043     -0.000259      0.000000
    220 O2    s       0.000030     -0.000120     -0.000027      0.000000
    221 O2    s      -0.000023      0.000074      0.000180      0.000000
    222 O2    s      -0.000040      0.000050      0.000128      0.000000
    223 O2    s       0.000047     -0.000143     -0.001069      0.000000
    224 O2    s       0.000215     -0.000415      0.000183      0.000000
    225 O3    s      -0.000018      0.000094     -0.000169      0.000000
    226 O2    s       0.000078     -0.000004     -0.000124      0.000000
    227 O2    s      -0.000056      0.000038      0.000032      0.000000
    228 O2    s      -0.000203     -0.000034     -0.000324      0.000000
    229 O2    s       0.000007     -0.000116      0.000578      0.000000
    230 O2    s      -0.000119      0.000098      0.000188      0.000000
    231 O2    s       0.000108      0.000083     -0.000084      0.000000
    232 O2    s      -0.000133      0.000186     -0.000026      0.000000
    233 O2    s      -0.000048     -0.000017      0.000492      0.000000
    234 O2    s      -0.000149     -0.000040      0.000393      0.000000
    235 O2    s      -0.000000     -0.000107      0.000192      0.000000
    236 O2    s       0.000057      0.000009      0.000119      0.000000
    237 O2    s       0.000094     -0.000129     -0.000275      0.000000
    238 O2    s       0.000041     -0.000018     -0.000577      0.000000
    239 O2    s       0.000124     -0.000022      0.000262      0.000000
    240 O2    s       0.000134     -0.000140      0.000257      0.000000
    241 O3    s       0.000084      0.000272      0.001021      0.000000
    242 O2    s       0.000112      0.000051      0.000364      0.000000
    243 O2    s       0.000055     -0.000074      0.000197      0.000000
    244 O2    s      -0.000095      0.000209      0.000178      0.000000
    245 O2    s      -0.000065     -0.000026      0.000250      0.000000
    246 O2    s       0.000349     -0.000252      0.000191      0.000000
    247 O2    s      -0.000079      0.000012     -0.000161      0.000000
    248 O2    s       0.000084      0.000104     -0.000493      0.000000
    249 O2    s       0.000048     -0.000209     -0.000408      0.000000
    250 O3    s      -0.000303      0.000257     -0.000312      0.000000
    251 O2    s      -0.000026     -0.000087     -0.000169      0.000000
    252 O2    s      -0.000139      0.000057     -0.000204      0.000000
    253 O2    s       0.000131     -0.000064     -0.000591      0.000000
    254 O2    s      -0.000077      0.000152     -0.000563      0.000000
    255 O3    s      -0.000090     -0.000110     -0.000820      0.000000
    256 O2    s      -0.000071      0.000114     -0.000353      0.000000
    257 O2    s       0.000068     -0.000036      0.000229      0.000000
    258 O2    s       0.000196      0.000008     -0.000557      0.000000
    259 O2    s      -0.000205      0.000063      0.000650      0.000000
    260 O2    s       0.000048     -0.000102      0.000287      0.000000
    261 O2    s      -0.000082      0.000028      0.000274      0.000000
    262 O2    s       0.000058     -0.000263      0.000751      0.000000
    263 O2    s      -0.000074     -0.000058      0.000637      0.000000
    264 O2    s      -0.000142      0.000301      0.000834      0.000000
    265 O2    s       0.000106     -0.000063     -0.000014      0.000000
    266 O2    s      -0.000205      0.000272     -0.000019      0.000000
    267 O2    s       0.000083      0.000010     -0.000105      0.000000
    268 O2    s       0.000008     -0.000120     -0.000003      0.000000
    269 O2    s       0.000016     -0.000191      0.000300      0.000000
    270 O2    s      -0.000050      0.000252      0.000312      0.000000
    271 O2    s       0.000054      0.000080     -0.000090      0.000000
    272 O2    s       0.000244     -0.000119      0.000096      0.000000
    273 O2    s      -0.000039     -0.000194     -0.000332      0.000000
    274 O2    s       0.000075     -0.000302     -0.000100      0.000000
    275 O2    s       0.000053      0.000138      0.000318      0.000000
    276 O2    s       0.000157     -0.000240      0.000306      0.000000
    277 O2    s       0.000036     -0.000042     -0.000296      0.000000
    278 O2    s       0.000096     -0.000043      0.000047      0.000000
    279 O2    s      -0.000017      0.000040      0.000194      0.000000
    280 O2    s      -0.000102      0.000079     -0.000021      0.000000
    281 O3    s       0.000232     -0.000112      0.000127      0.000000
    282 O2    s       0.000036      0.000060     -0.000311      0.000000
    283 O2    s      -0.000054      0.000097     -0.000047      0.000000
    284 O2    s       0.000080     -0.000017     -0.000381      0.000000
    285 O2    s       0.000021     -0.000058      0.000301      0.000000
    286 O2    s       0.000192     -0.000004     -0.000072      0.000000
    287 O2    s       0.000020      0.000033      0.000284      0.000000
    288 O2    s      -0.000060      0.000038     -0.000168      0.000000
    289 O3    s      -0.000334     -0.000110     -0.000695      0.000000
    290 O2    s       0.000053      0.000144      0.000499      0.000000
    291 O2    s       0.000018      0.000132     -0.000262      0.000000
    292 O2    s      -0.000144      0.000103      0.000281      0.000000
    293 O2    s       0.000015      0.000048      0.000108      0.000000
    294 O2    s       0.000188      0.000111      0.000441      0.000000
    295 O2    s      -0.000054      0.000016     -0.000058      0.000000
    296 O2    s       0.000111      0.000046     -0.000650      0.000000
    297 O3    s      -0.000017      0.000029      0.000381      0.000000
    298 O3    s      -0.000092      0.000510      0.001496      0.000000
    299 O2    s      -0.000070      0.000054     -0.000267      0.000000
    300 O2    s       0.000044     -0.000007     -0.000439      0.000000
    301 O2    s       0.000035      0.000078      0.000476      0.000000
    302 O2    s      -0.000096     -0.000020      0.000066      0.000000
    303 O1    s       0.002238     -0.002128     -0.001266      0.000000
    304 O2    s      -0.000008      0.000007     -0.000057      0.000000
    305 O2    s      -0.000068     -0.000026      0.000048      0.000000
    306 O2    s       0.000051     -0.000025      0.000091      0.000000
    307 F     s      -0.000027     -0.000058     -0.000117      0.000000
    308 F     s       0.000032      0.000023      0.000354      0.000000
    309 F     s      -0.001327      0.001405     -0.001681      0.000000
    310 F     s       0.000018     -0.000113      0.000397      0.000000
    311 F     s       0.000015      0.000049     -0.000425      0.000000
    312 F     s      -0.000110      0.000065     -0.000167      0.000000
--------------------------------------------------------------------------------
  Maximum abs         0.002238      0.002128      0.004221      0.000000
--------------------------------------------------------------------------------


  Time to end of optimisation =       7.1204 seconds


  Peak dynamic memory used =      19.13 MB 


  Timing analysis for GULP :

--------------------------------------------------------------------------------
  Task / Subroutine                                          Time (Seconds)
--------------------------------------------------------------------------------
  Calculation of reciprocal space energy and derivatives          0.2824
  Calculation of real space energy and derivatives                5.9320
  Calculation of three-body energy and derivatives                0.6766
  Calculation of matrix inversion                                 0.1919
--------------------------------------------------------------------------------
  Total CPU time                                                  7.1204
--------------------------------------------------------------------------------


  Dump file written as out.res                                                 
  CIF file written as out.cif                                                 


  Job Finished at 22:21.44 29th November   2016                               

