********************************************************************************
*                       GENERAL UTILITY LATTICE PROGRAM                        *
*                                 Julian Gale                                  *
*                      Nanochemistry Research Institute                        *
*                           Department of Chemistry                            *
*                    Curtin University, Western Australia                      *
********************************************************************************
* Version = 4.2.0 * Last modified =  20th January 2014                         *
********************************************************************************
*  optimise     - perform optimisation run                                     *
*  conp         - constant pressure calculation                                *
*  qok          - running with non charge neutral cell is OK                   *
********************************************************************************

  Job Started  at 20:10.21 29th November   2016                               

  Number of CPUs =     1


  Total number of configurations input =   1

********************************************************************************
*  Input for Configuration =   1                                               *
********************************************************************************

  Formula = Si57Ge3O120F6                                               

  Number of irreducible atoms/shells =     312


  Total number atoms/shells =     312

  Dimensionality = 3               :  Bulk   


  Charge on solid   =  -6.000000 =>neutralising background added


  Cartesian lattice vectors (Angstroms) :

       12.012198    0.000000    0.000000
       -5.940228   10.335851    0.000000
       -0.200804    0.492388   29.458244

  Cell parameters (Angstroms/Degrees):

  a =      12.0122    alpha =  88.9752
  b =      11.9212    beta  =  90.3905
  c =      29.4630    gamma = 119.8869

  Initial cell volume =        3657.426268 Angs**3

  Temperature of configuration =  0.000     K 

  Pressure of configuration =         0.000 GPa 

  Fractional coordinates of asymmetric unit :

--------------------------------------------------------------------------------
   No.  Atomic       x           y          z         Charge      Occupancy
        Label      (Frac)      (Frac)     (Frac)        (e)         (Frac)  
--------------------------------------------------------------------------------
      1 Si    c    0.699600    0.375700    0.033890     4.00000    1.000000    
      2 Si    c    0.618040 *  0.319514 *  0.369446 *   4.00000    1.000000    
      3 Si    c    0.674734 *  0.295112 *  0.698295 *   4.00000    1.000000    
      4 Si    c    0.307734 *  0.626804 *  0.532240 *   4.00000    1.000000    
      5 Si    c    0.382497 *  0.674799 *  0.869223 *   4.00000    1.000000    
      6 Si    c    0.323574 *  0.699470 *  0.199270 *   4.00000    1.000000    
      7 Si    c    0.380238 *  0.703232 *  0.301593 *   4.00000    1.000000    
      8 Si    c    0.326101 *  0.620173 *  0.971660 *   4.00000    1.000000    
      9 Si    c    0.298826 *  0.682085 *  0.634156 *   4.00000    1.000000    
     10 Si    c    0.622154 *  0.297519 *  0.798793 *   4.00000    1.000000    
     11 Si    c    0.668742 *  0.369033 *  0.469832 *   4.00000    1.000000    
     12 Si    c    0.695645 *  0.316253 *  0.136401 *   4.00000    1.000000    
     13 Ge    c    0.532255 *  0.429345 *  0.966586 *   4.00000    1.000000    
     14 Si    c    0.590703 *  0.122356 *  0.302068 *   4.00000    1.000000    
     15 Si    c    0.883127 *  0.472526 *  0.633126 *   4.00000    1.000000    
     16 Si    c    0.476619 *  0.580532 *  0.469586 *   4.00000    1.000000    
     17 Si    c    0.419803 *  0.885426 *  0.801864 *   4.00000    1.000000    
     18 Si    c    0.109359 *  0.526677 *  0.136046 *   4.00000    1.000000    
     19 Si    c    0.420526 *  0.531734 *  0.368742 *   4.00000    1.000000    
     20 Si    c    0.111287 *  0.579877 *  0.034989 *   4.00000    1.000000    
     21 Si    c    0.469718 *  0.886360 *  0.700403 *   4.00000    1.000000    
     22 Si    c    0.594203 *  0.466083 *  0.866983 *   4.00000    1.000000    
     23 Si    c    0.880687 *  0.411691 *  0.530805 *   4.00000    1.000000    
     24 Ge    c    0.527271 *  0.094445 *  0.203085 *   4.00000    1.000000    
     25 Si    c    0.308103 *  0.393277 *  0.854715 *   4.00000    1.000000    
     26 Si    c    0.606365 *  0.900564 *  0.180823 *   4.00000    1.000000    
     27 Ge    c    0.096170 *  0.685157 *  0.524572 *   4.00000    1.000000    
     28 Si    c    0.698914 *  0.600596 *  0.354877 *   4.00000    1.000000    
     29 Si    c    0.396913 *  0.095092 *  0.685155 *   4.00000    1.000000    
     30 Si    c    0.903285 *  0.300766 *  0.020999 *   4.00000    1.000000    
     31 Si    c    0.393914 *  0.296068 *  0.483906 *   4.00000    1.000000    
     32 Si    c    0.900276 *  0.596493 *  0.149619 *   4.00000    1.000000    
     33 Si    c    0.699105 *  0.094692 *  0.815109 *   4.00000    1.000000    
     34 Si    c    0.609157 *  0.702379 *  0.989028 *   4.00000    1.000000    
     35 Si    c    0.094752 *  0.399669 *  0.649267 *   4.00000    1.000000    
     36 Si    c    0.303629 *  0.908886 *  0.315710 *   4.00000    1.000000    
     37 Si    c    0.253317 *  0.332006 *  0.956996 *   4.00000    1.000000    
     38 Si    c    0.665216 *  0.916376 *  0.283988 *   4.00000    1.000000    
     39 Si    c    0.085665 *  0.756873 *  0.620051 *   4.00000    1.000000    
     40 Si    c    0.753748 *  0.655932 *  0.455454 *   4.00000    1.000000    
     41 Si    c    0.340811 *  0.087110 *  0.786020 *   4.00000    1.000000    
     42 Si    c    0.908872 *  0.248777 *  0.121887 *   4.00000    1.000000    
     43 Si    c    0.338005 *  0.249626 *  0.383159 *   4.00000    1.000000    
     44 Si    c    0.911093 *  0.657029 *  0.048688 *   4.00000    1.000000    
     45 Si    c    0.747883 *  0.086512 *  0.714593 *   4.00000    1.000000    
     46 Si    c    0.667034 *  0.746105 *  0.885758 *   4.00000    1.000000    
     47 Si    c    0.089342 *  0.339847 *  0.547880 *   4.00000    1.000000    
     48 Si    c    0.248938 *  0.913199 *  0.213303 *   4.00000    1.000000    
     49 Si    c    0.968364 *  0.122762 *  0.968924 *   4.00000    1.000000    
     50 Si    c    0.878910 *  0.847801 *  0.302265 *   4.00000    1.000000    
     51 Si    c    0.149537 *  0.032282 *  0.636684 *   4.00000    1.000000    
     52 Si    c    0.034434 *  0.874069 *  0.470065 *   4.00000    1.000000    
     53 Si    c    0.123960 *  0.149514 *  0.803063 *   4.00000    1.000000    
     54 Si    c    0.854287 *  0.968815 *  0.135126 *   4.00000    1.000000    
     55 Si    c    0.120757 *  0.970487 *  0.367890 *   4.00000    1.000000    
     56 Si    c    0.856187 *  0.882283 *  0.035094 *   4.00000    1.000000    
     57 Si    c    0.028351 *  0.152489 *  0.702070 *   4.00000    1.000000    
     58 Si    c    0.879998 *  0.029323 *  0.867867 *   4.00000    1.000000    
     59 Si    c    0.146183 *  0.116929 *  0.534126 *   4.00000    1.000000    
     60 Si    c    0.965693 *  0.840157 *  0.201188 *   4.00000    1.000000    
     61 O2    c    0.933759 *  0.999069 *  0.000005 *   0.87073    1.000000    
     62 O2    c    0.999986 *  0.929209 *  0.334760 *   0.87073    1.000000    
     63 O2    c    0.075624 *  0.078870 *  0.669645 *   0.87073    1.000000    
     64 O2    c    0.067394 *  0.997747 *  0.501387 *   0.87073    1.000000    
     65 O2    c    0.002699 *  0.068994 *  0.835842 *   0.87073    1.000000    
     66 O2    c    0.931893 *  0.928957 *  0.169619 *   0.87073    1.000000    
     67 O2    c    0.345226 *  0.582884 *  0.335784 *   0.87073    1.000000    
     68 O2    c    0.419148 *  0.761576 *  0.667892 *   0.87073    1.000000    
     69 O2    c    0.238510 *  0.656337 *  0.002422 *   0.87073    1.000000    
     70 O2    c    0.663746 *  0.424350 *  0.828757 *   0.87073    1.000000    
     71 O3    c    0.576281 *  0.232743 *  0.167500 *   1.33043    1.000000    
     72 O2    c    0.749769 *  0.324037 *  0.502425 *   0.87073    1.000000    
     73 O3    c    0.582144 *  0.340990 *  0.001608 *   1.33043    1.000000    
     74 O2    c    0.758025 *  0.419553 *  0.665357 *   0.87073    1.000000    
     75 O2    c    0.660634 *  0.235424 *  0.339339 *   0.87073    1.000000    
     76 O2    c    0.434205 *  0.658131 *  0.503605 *   0.87073    1.000000    
     77 O2    c    0.235138 *  0.575161 *  0.168735 *   0.87073    1.000000    
     78 O2    c    0.345776 *  0.759559 *  0.835352 *   0.87073    1.000000    
     79 O2    c    0.119845 *  0.213468 *  0.974896 *   0.87073    1.000000    
     80 O2    c    0.787452 *  0.911144 *  0.305242 *   0.87073    1.000000    
     81 O2    c    0.087138 *  0.878304 *  0.645330 *   0.87073    1.000000    
     82 O2    c    0.879612 *  0.778613 *  0.475786 *   0.87073    1.000000    
     83 O2    c    0.214134 *  0.084521 *  0.806415 *   0.87073    1.000000    
     84 O2    c    0.907746 *  0.120811 *  0.142484 *   0.87073    1.000000    
     85 O2    c    0.211766 *  0.125942 *  0.362566 *   0.87073    1.000000    
     86 O2    c    0.910415 *  0.784392 *  0.028225 *   0.87073    1.000000    
     87 O2    c    0.874752 *  0.086344 *  0.695716 *   0.87073    1.000000    
     88 O2    c    0.788852 *  0.874557 *  0.864248 *   0.87073    1.000000    
     89 O2    c    0.087747 *  0.213268 *  0.528613 *   0.87073    1.000000    
     90 O2    c    0.116639 *  0.898580 *  0.194655 *   0.87073    1.000000    
     91 O2    c    0.930511 *  0.854284 *  0.252191 *   0.87073    1.000000    
     92 O2    c    0.130860 *  0.067865 *  0.585866 *   0.87073    1.000000    
     93 O2    c    0.930521 *  0.074524 *  0.917824 *   0.87073    1.000000    
     94 O2    c    0.069657 *  0.142482 *  0.752856 *   0.87073    1.000000    
     95 O2    c    0.881520 *  0.939811 *  0.084945 *   0.87073    1.000000    
     96 O2    c    0.068520 *  0.928852 *  0.418399 *   0.87073    1.000000    
     97 O2    c    0.897325 *  0.201324 *  0.982380 *   0.87073    1.000000    
     98 O2    c    0.796751 *  0.696944 *  0.316301 *   0.87073    1.000000    
     99 O2    c    0.301677 *  0.100592 *  0.646966 *   0.87073    1.000000    
    100 O3    c    0.106735 *  0.799791 *  0.482231 *   1.33043    1.000000    
    101 O2    c    0.209906 *  0.300061 *  0.816026 *   0.87073    1.000000    
    102 O2    c    0.701541 *  0.885651 *  0.145286 *   0.87073    1.000000    
    103 O2    c    0.206108 *  0.905099 *  0.354385 *   0.87073    1.000000    
    104 O2    c    0.703831 *  0.812254 *  0.024514 *   0.87073    1.000000    
    105 O2    c    0.093893 *  0.304903 *  0.689275 *   0.87073    1.000000    
    106 O2    c    0.798473 *  0.098054 *  0.853158 *   0.87073    1.000000    
    107 O2    c    0.297593 *  0.198419 *  0.522765 *   0.87073    1.000000    
    108 O2    c    0.893081 *  0.689681 *  0.188065 *   0.87073    1.000000    
    109 O2    c    0.326298 *  0.650963 *  0.251241 *   0.87073    1.000000    
    110 O2    c    0.353246 *  0.681403 *  0.584027 *   0.87073    1.000000    
    111 O2    c    0.328724 *  0.671865 *  0.919647 *   0.87073    1.000000    
    112 O2    c    0.677310 *  0.352644 *  0.748072 *   0.87073    1.000000    
    113 O2    c    0.648534 *  0.321292 *  0.084853 *   0.87073    1.000000    
    114 O2    c    0.672704 *  0.317118 *  0.419779 *   0.87073    1.000000    
    115 O3    c    0.365341 *  0.313266 *  0.976398 *   1.33043    1.000000    
    116 O2    c    0.674622 *  0.047680 *  0.302496 *   0.87073    1.000000    
    117 O2    c    0.952575 *  0.628529 *  0.636259 *   0.87073    1.000000    
    118 O2    c    0.631575 *  0.667893 *  0.472215 *   0.87073    1.000000    
    119 O2    c    0.332827 *  0.954516 *  0.804990 *   0.87073    1.000000    
    120 O2    c    0.042249 *  0.370059 *  0.140139 *   0.87073    1.000000    
    121 O2    c    0.332057 *  0.375649 *  0.364692 *   0.87073    1.000000    
    122 O2    c    0.044965 *  0.669876 *  0.030344 *   0.87073    1.000000    
    123 O2    c    0.625403 *  0.953943 *  0.696795 *   0.87073    1.000000    
    124 O2    c    0.677081 *  0.625201 *  0.866567 *   0.87073    1.000000    
    125 O2    c    0.957168 *  0.330618 *  0.530703 *   0.87073    1.000000    
    126 O3    c    0.361098 *  0.044229 *  0.193496 *   1.33043    1.000000    
    127 O2    c    0.772010 *  0.302829 *  0.013054 *   0.87073    1.000000    
    128 O2    c    0.692201 *  0.463679 *  0.346667 *   0.87073    1.000000    
    129 O2    c    0.531692 *  0.227534 *  0.676639 *   0.87073    1.000000    
    130 O3    c    0.245915 *  0.701948 *  0.507873 *   1.33043    1.000000    
    131 O2    c    0.311079 *  0.530116 *  0.849158 *   0.87073    1.000000    
    132 O2    c    0.467914 *  0.766924 *  0.178664 *   0.87073    1.000000    
    133 O2    c    0.307660 *  0.775432 *  0.321386 *   0.87073    1.000000    
    134 O2    c    0.470928 *  0.697295 *  0.991511 *   0.87073    1.000000    
    135 O2    c    0.226142 *  0.535189 *  0.654480 *   0.87073    1.000000    
    136 O2    c    0.695630 *  0.227260 *  0.821672 *   0.87073    1.000000    
    137 O2    c    0.525617 *  0.292801 *  0.491638 *   0.87073    1.000000    
    138 O2    c    0.768610 *  0.462429 *  0.156781 *   0.87073    1.000000    
    139 O2    c    0.787758 *  0.533077 *  0.028614 *   0.87073    1.000000    
    140 O2    c    0.462501 *  0.246538 *  0.364470 *   0.87073    1.000000    
    141 O2    c    0.749647 *  0.213618 *  0.693703 *   0.87073    1.000000    
    142 O2    c    0.214413 *  0.469354 *  0.530361 *   0.87073    1.000000    
    143 O2    c    0.536249 *  0.738558 *  0.867840 *   0.87073    1.000000    
    144 O2    c    0.259320 *  0.789775 *  0.196122 *   0.87073    1.000000    
    145 O2    c    0.534024 *  0.793650 *  0.302240 *   0.87073    1.000000    
    146 O2    c    0.263051 *  0.465445 *  0.974246 *   0.87073    1.000000    
    147 O2    c    0.210676 *  0.748877 *  0.637563 *   0.87073    1.000000    
    148 O2    c    0.466495 *  0.214524 *  0.804091 *   0.87073    1.000000    
    149 O2    c    0.744079 *  0.524842 *  0.475844 *   0.87073    1.000000    
    150 O2    c    0.785024 *  0.248870 *  0.141564 *   0.87073    1.000000    
    151 O2    c    0.242457 *  0.321683 *  0.901742 *   0.87073    1.000000    
    152 O2    c    0.677734 *  0.913807 *  0.229801 *   0.87073    1.000000    
    153 O3    c    0.088945 *  0.786889 *  0.567511 *   1.33043    1.000000    
    154 O2    c    0.771970 *  0.671523 *  0.400981 *   0.87073    1.000000    
    155 O2    c    0.323071 *  0.089446 *  0.731713 *   0.87073    1.000000    
    156 O2    c    0.907839 *  0.229061 *  0.067588 *   0.87073    1.000000    
    157 O2    c    0.318839 *  0.228851 *  0.437553 *   0.87073    1.000000    
    158 O2    c    0.907898 *  0.674114 *  0.102941 *   0.87073    1.000000    
    159 O2    c    0.768205 *  0.090077 *  0.768788 *   0.87073    1.000000    
    160 O2    c    0.680344 *  0.761229 *  0.939832 *   0.87073    1.000000    
    161 O2    c    0.090265 *  0.329290 *  0.602666 *   0.87073    1.000000    
    162 O2    c    0.237749 *  0.912568 *  0.268469 *   0.87073    1.000000    
    163 O3    c    0.601894 *  0.570547 *  0.001859 *   1.33043    1.000000    
    164 O2    c    0.445479 *  0.029597 *  0.322409 *   0.87073    1.000000    
    165 O2    c    0.973963 *  0.420954 *  0.654637 *   0.87073    1.000000    
    166 O2    c    0.412569 *  0.437423 *  0.493011 *   0.87073    1.000000    
    167 O2    c    0.561043 *  0.967257 *  0.824393 *   0.87073    1.000000    
    168 O2    c    0.028039 *  0.586239 *  0.159328 *   0.87073    1.000000    
    169 O2    c    0.562247 *  0.593205 *  0.346277 *   0.87073    1.000000    
    170 O2    c    0.031725 *  0.439057 *  0.011326 *   0.87073    1.000000    
    171 O2    c    0.409887 *  0.968611 *  0.676766 *   0.87073    1.000000    
    172 O2    c    0.449018 *  0.413643 *  0.846824 *   0.87073    1.000000    
    173 O3    c    0.956175 *  0.547220 *  0.504661 *   1.33043    1.000000    
    174 O3    c    0.598311 *  0.024553 *  0.167613 *   1.33043    1.000000    
    175 O3    c    0.597777 *  0.186471 *  0.254017 *   1.33043    1.000000    
    176 O2    c    0.835886 *  0.420604 *  0.582463 *   0.87073    1.000000    
    177 O3    c    0.601619 *  0.408515 *  0.914741 *   1.33043    1.000000    
    178 O2    c    0.417097 *  0.830540 *  0.751383 *   0.87073    1.000000    
    179 O2    c    0.168634 *  0.582940 *  0.085589 *   0.87073    1.000000    
    180 O2    c    0.419331 *  0.583404 *  0.419437 *   0.87073    1.000000    
    181 F     c    0.473772 *  0.947686 *  0.240709 *   0.56000    1.000000    
    182 F     c    0.093095 *  0.576668 *  0.573338 *   0.56000    1.000000    
    183 F     c    0.477984 *  0.522326 *  0.928929 *   0.56000    1.000000    
    184 F     c    0.547291 *  0.090818 *  0.749356 *   0.56000    1.000000    
    185 F     c    0.917561 *  0.456584 *  0.084661 *   0.56000    1.000000    
    186 F     c    0.544384 *  0.449455 *  0.419275 *   0.56000    1.000000    
    187 O2    s    0.928870 *  0.999999 *  0.000414 *  -2.87073    1.000000    
    188 O2    s    0.999913 *  0.924818 *  0.334809 *  -2.87073    1.000000    
    189 O2    s    0.078473 *  0.082079 *  0.669670 *  -2.87073    1.000000    
    190 O2    s    0.072941 *  0.998599 *  0.501891 *  -2.87073    1.000000    
    191 O2    s    0.002908 *  0.073649 *  0.835663 *  -2.87073    1.000000    
    192 O2    s    0.926807 *  0.923300 *  0.169284 *  -2.87073    1.000000    
    193 O2    s    0.356597 *  0.590520 *  0.335483 *  -2.87073    1.000000    
    194 O2    s    0.411812 *  0.766056 *  0.667699 *  -2.87073    1.000000    
    195 O2    s    0.235501 *  0.645014 *  0.002282 *  -2.87073    1.000000    
    196 O2    s    0.652404 *  0.415138 *  0.829394 *  -2.87073    1.000000    
    197 O3    s    0.585968 *  0.232242 *  0.166580 *  -3.33043    1.000000    
    198 O2    s    0.754924 *  0.337455 *  0.502035 *  -2.87073    1.000000    
    199 O3    s    0.591061 *  0.350998 *  0.002533 *  -3.33043    1.000000    
    200 O2    s    0.762569 *  0.412238 *  0.665381 *  -2.87073    1.000000    
    201 O2    s    0.648991 *  0.232754 *  0.338737 *  -2.87073    1.000000    
    202 O2    s    0.425123 *  0.646784 *  0.503164 *  -2.87073    1.000000    
    203 O2    s    0.232155 *  0.583617 *  0.168774 *  -2.87073    1.000000    
    204 O2    s    0.357184 *  0.763476 *  0.835508 *  -2.87073    1.000000    
    205 O2    s    0.117518 *  0.216366 *  0.972264 *  -2.87073    1.000000    
    206 O2    s    0.784404 *  0.905019 *  0.302740 *  -2.87073    1.000000    
    207 O2    s    0.093563 *  0.882330 *  0.641945 *  -2.87073    1.000000    
    208 O2    s    0.881554 *  0.775019 *  0.473072 *  -2.87073    1.000000    
    209 O2    s    0.217635 *  0.091639 *  0.803993 *  -2.87073    1.000000    
    210 O2    s    0.902092 *  0.117593 *  0.139606 *  -2.87073    1.000000    
    211 O2    s    0.215366 *  0.122579 *  0.365221 *  -2.87073    1.000000    
    212 O2    s    0.904639 *  0.781904 *  0.031023 *  -2.87073    1.000000    
    213 O2    s    0.878006 *  0.093342 *  0.698292 *  -2.87073    1.000000    
    214 O2    s    0.785936 *  0.877723 *  0.866836 *  -2.87073    1.000000    
    215 O2    s    0.094010 *  0.216857 *  0.531226 *  -2.87073    1.000000    
    216 O2    s    0.114188 *  0.893557 *  0.197429 *  -2.87073    1.000000    
    217 O2    s    0.928497 *  0.851944 *  0.252239 *  -2.87073    1.000000    
    218 O2    s    0.134620 *  0.069237 *  0.585912 *  -2.87073    1.000000    
    219 O2    s    0.928843 *  0.074616 *  0.917662 *  -2.87073    1.000000    
    220 O2    s    0.071005 *  0.144364 *  0.752700 *  -2.87073    1.000000    
    221 O2    s    0.875551 *  0.936517 *  0.084935 *  -2.87073    1.000000    
    222 O2    s    0.070885 *  0.927881 *  0.418039 *  -2.87073    1.000000    
    223 O2    s    0.905705 *  0.202659 *  0.984741 *  -2.87073    1.000000    
    224 O2    s    0.795380 *  0.703134 *  0.318834 *  -2.87073    1.000000    
    225 O2    s    0.295470 *  0.092847 *  0.649816 *  -2.87073    1.000000    
    226 O3    s    0.097831 *  0.800545 *  0.483669 *  -3.33043    1.000000    
    227 O2    s    0.210807 *  0.293609 *  0.818581 *  -2.87073    1.000000    
    228 O2    s    0.707814 *  0.895670 *  0.147777 *  -2.87073    1.000000    
    229 O2    s    0.207310 *  0.912245 *  0.351807 *  -2.87073    1.000000    
    230 O2    s    0.710025 *  0.808448 *  0.022033 *  -2.87073    1.000000    
    231 O2    s    0.087101 *  0.298963 *  0.686379 *  -2.87073    1.000000    
    232 O2    s    0.796783 *  0.090366 *  0.850731 *  -2.87073    1.000000    
    233 O2    s    0.291353 *  0.199752 *  0.519978 *  -2.87073    1.000000    
    234 O2    s    0.901634 *  0.696635 *  0.185664 *  -2.87073    1.000000    
    235 O2    s    0.331671 *  0.661271 *  0.251284 *  -2.87073    1.000000    
    236 O2    s    0.343165 *  0.676238 *  0.584308 *  -2.87073    1.000000    
    237 O2    s    0.334147 *  0.667080 *  0.919482 *  -2.87073    1.000000    
    238 O2    s    0.671323 *  0.340896 *  0.748103 *  -2.87073    1.000000    
    239 O2    s    0.658689 *  0.326452 *  0.084824 *  -2.87073    1.000000    
    240 O2    s    0.666528 *  0.322865 *  0.419819 *  -2.87073    1.000000    
    241 O3    s    0.364222 *  0.322970 *  0.973615 *  -3.33043    1.000000    
    242 O2    s    0.665487 *  0.041039 *  0.300487 *  -2.87073    1.000000    
    243 O2    s    0.958640 *  0.625039 *  0.634293 *  -2.87073    1.000000    
    244 O2    s    0.627977 *  0.657470 *  0.470181 *  -2.87073    1.000000    
    245 O2    s    0.342667 *  0.961140 *  0.802686 *  -2.87073    1.000000    
    246 O2    s    0.035554 *  0.373810 *  0.137841 *  -2.87073    1.000000    
    247 O2    s    0.341842 *  0.378666 *  0.367048 *  -2.87073    1.000000    
    248 O2    s    0.038247 *  0.659366 *  0.032680 *  -2.87073    1.000000    
    249 O2    s    0.622263 *  0.960823 *  0.699021 *  -2.87073    1.000000    
    250 O2    s    0.668023 *  0.622586 *  0.868642 *  -2.87073    1.000000    
    251 O2    s    0.963579 *  0.339817 *  0.532559 *  -2.87073    1.000000    
    252 O3    s    0.360120 *  0.033444 *  0.196306 *  -3.33043    1.000000    
    253 O2    s    0.779250 *  0.309913 *  0.016044 *  -2.87073    1.000000    
    254 O2    s    0.685199 *  0.463339 *  0.349928 *  -2.87073    1.000000    
    255 O2    s    0.532365 *  0.220582 *  0.679827 *  -2.87073    1.000000    
    256 O3    s    0.241854 *  0.692863 *  0.511655 *  -3.33043    1.000000    
    257 O2    s    0.318268 *  0.531014 *  0.851847 *  -2.87073    1.000000    
    258 O2    s    0.466804 *  0.773294 *  0.181047 *  -2.87073    1.000000    
    259 O2    s    0.314874 *  0.781705 *  0.318709 *  -2.87073    1.000000    
    260 O2    s    0.469712 *  0.689772 *  0.989163 *  -2.87073    1.000000    
    261 O2    s    0.219442 *  0.535689 *  0.651807 *  -2.87073    1.000000    
    262 O2    s    0.688398 *  0.220356 *  0.818585 *  -2.87073    1.000000    
    263 O2    s    0.526476 *  0.301054 *  0.488515 *  -2.87073    1.000000    
    264 O2    s    0.775895 *  0.462684 *  0.153937 *  -2.87073    1.000000    
    265 O2    s    0.792913 *  0.531206 *  0.031339 *  -2.87073    1.000000    
    266 O2    s    0.465152 *  0.254478 *  0.366965 *  -2.87073    1.000000    
    267 O2    s    0.741670 *  0.208311 *  0.696378 *  -2.87073    1.000000    
    268 O2    s    0.209762 *  0.470706 *  0.532468 *  -2.87073    1.000000    
    269 O2    s    0.533606 *  0.732420 *  0.869889 *  -2.87073    1.000000    
    270 O2    s    0.265454 *  0.792799 *  0.198226 *  -2.87073    1.000000    
    271 O2    s    0.531491 *  0.797130 *  0.300218 *  -2.87073    1.000000    
    272 O2    s    0.269124 *  0.468617 *  0.972188 *  -2.87073    1.000000    
    273 O2    s    0.207254 *  0.742434 *  0.635411 *  -2.87073    1.000000    
    274 O2    s    0.468882 *  0.209179 *  0.801621 *  -2.87073    1.000000    
    275 O2    s    0.737073 *  0.522627 *  0.473072 *  -2.87073    1.000000    
    276 O2    s    0.790124 *  0.255793 *  0.138889 *  -2.87073    1.000000    
    277 O2    s    0.250774 *  0.330558 *  0.902072 *  -2.87073    1.000000    
    278 O2    s    0.669446 *  0.912853 *  0.230943 *  -2.87073    1.000000    
    279 O3    s    0.089049 *  0.776976 *  0.570254 *  -3.33043    1.000000    
    280 O2    s    0.762311 *  0.662361 *  0.401891 *  -2.87073    1.000000    
    281 O2    s    0.332665 *  0.089793 *  0.732641 *  -2.87073    1.000000    
    282 O2    s    0.907521 *  0.238631 *  0.068369 *  -2.87073    1.000000    
    283 O2    s    0.328711 *  0.238086 *  0.436681 *  -2.87073    1.000000    
    284 O2    s    0.907484 *  0.664286 *  0.102104 *  -2.87073    1.000000    
    285 O2    s    0.758716 *  0.090154 *  0.767834 *  -2.87073    1.000000    
    286 O2    s    0.672007 *  0.753824 *  0.938636 *  -2.87073    1.000000    
    287 O2    s    0.090666 *  0.337956 *  0.601955 *  -2.87073    1.000000    
    288 O2    s    0.246049 *  0.912269 *  0.268055 *  -2.87073    1.000000    
    289 O3    s    0.597827 *  0.575610 *  0.998127 *  -3.33043    1.000000    
    290 O2    s    0.444125 *  0.025290 *  0.319657 *  -2.87073    1.000000    
    291 O2    s    0.977874 *  0.424153 *  0.651776 *  -2.87073    1.000000    
    292 O2    s    0.417347 *  0.437054 *  0.489584 *  -2.87073    1.000000    
    293 O2    s    0.560939 *  0.972351 *  0.821042 *  -2.87073    1.000000    
    294 O2    s    0.022964 *  0.581054 *  0.155919 *  -2.87073    1.000000    
    295 O2    s    0.561852 *  0.587438 *  0.349552 *  -2.87073    1.000000    
    296 O2    s    0.026400 *  0.439089 *  0.014756 *  -2.87073    1.000000    
    297 O2    s    0.414915 *  0.973758 *  0.680130 *  -2.87073    1.000000    
    298 O2    s    0.447657 *  0.416647 *  0.849679 *  -2.87073    1.000000    
    299 O3    s    0.958777 *  0.543300 *  0.508782 *  -3.33043    1.000000    
    300 O3    s    0.594274 *  0.015419 *  0.171375 *  -3.33043    1.000000    
    301 O3    s    0.592441 *  0.173644 *  0.255829 *  -3.33043    1.000000    
    302 O2    s    0.845493 *  0.425405 *  0.582798 *  -2.87073    1.000000    
    303 O3    s    0.596428 *  0.416028 *  0.912870 *  -3.33043    1.000000    
    304 O2    s    0.422800 *  0.841925 *  0.751341 *  -2.87073    1.000000    
    305 O2    s    0.156751 *  0.576913 *  0.085530 *  -2.87073    1.000000    
    306 O2    s    0.425253 *  0.577791 *  0.419317 *  -2.87073    1.000000    
    307 F     s    0.477683 *  0.957878 *  0.238170 *  -1.56000    1.000000    
    308 F     s    0.093280 *  0.583630 *  0.570348 *  -1.56000    1.000000    
    309 F     s    0.481878 *  0.516181 *  0.931364 *  -1.56000    1.000000    
    310 F     s    0.547395 *  0.090832 *  0.749272 *  -1.56000    1.000000    
    311 F     s    0.918994 *  0.457282 *  0.084590 *  -1.56000    1.000000    
    312 F     s    0.544231 *  0.449317 *  0.419294 *  -1.56000    1.000000    
--------------------------------------------------------------------------------



********************************************************************************
*  General input information                                                   *
********************************************************************************

  Species output for all configurations : 

--------------------------------------------------------------------------------
  Species    Type    Atomic    Atomic    Charge       Radii (Angs)     Library
                     Number     Mass       (e)     Cova   Ionic  VDW   Symbol
--------------------------------------------------------------------------------
    Si       Core       14      28.09   4.000000   1.200  0.000  2.100          
    O1       Core        8      16.00   1.733957   0.730  0.000  1.360          
    O1       Shell       8       0.00  -3.733957   0.730  0.000  1.360          
    O2       Core        8      16.00   0.870733   0.730  0.000  1.360          
    O2       Shell       8       0.00  -2.870733   0.730  0.000  1.360          
    O3       Core        8      16.00   1.330431   0.730  0.000  1.360          
    O3       Shell       8       0.00  -3.330431   0.730  0.000  1.360          
    F        Core        9      19.00   0.560000   0.710  0.000  1.300          
    F        Shell       9       0.00  -1.560000   0.710  0.000  1.300          
    Ge       Core       32      72.61   4.000000   1.170  0.000  1.750          
--------------------------------------------------------------------------------


  Lattice summation method               =    Ewald          (3-D)
                                         =    Parry          (2-D)
                                         =    Saunders et al (1-D)
  Accuracy factor for lattice sums       =   12.000


  Time limit = Infinity

  Maximum range for interatomic potentials =        16.000000 Angstroms

  Taper potentials to zero over   1.0000 Angstroms using polynomial

  General interatomic potentials :

--------------------------------------------------------------------------------
Atom  Types   Potential         A         B         C         D     Cutoffs(Ang)
  1     2                                                            Min    Max 
--------------------------------------------------------------------------------
Si   c O1   s Buckingham    0.132E+04 0.318      10.1      0.00     0.000 16.000
Si   c O2   s Buckingham    0.132E+04 0.318      10.1      0.00     0.000 16.000
Si   c O3   s Buckingham    0.132E+04 0.318      10.1      0.00     0.000 16.000
Ge   c O1   s Buckingham    0.150E+04 0.326      16.8      0.00     0.000 16.000
Ge   c O2   s Buckingham    0.150E+04 0.326      16.8      0.00     0.000 16.000
Ge   c O3   s Buckingham    0.150E+04 0.326      16.8      0.00     0.000 16.000
O1   s O1   s Buckingham    0.228E+05 0.149      10.9      0.00     0.000 16.000
O1   s O2   s Buckingham    0.228E+05 0.149      10.9      0.00     0.000 16.000
O1   s O3   s Buckingham    0.228E+05 0.149      10.9      0.00     0.000 16.000
O2   s O2   s Buckingham    0.228E+05 0.149      10.9      0.00     0.000 16.000
O2   s O3   s Buckingham    0.228E+05 0.149      10.9      0.00     0.000 16.000
O3   s O3   s Buckingham    0.228E+05 0.149      10.9      0.00     0.000 16.000
Si   c F    s Buckingham     977.     0.282      0.00      0.00     0.000 16.000
Ge   c F    s Buckingham     681.     0.320      0.00      0.00     0.000 16.000
F    s F    s Buckingham     540.     0.262      0.00      0.00     0.000 16.000
O1   s F    s Buckingham    0.168E+04 0.268      0.00      0.00     0.000 16.000
O2   s F    s Buckingham    0.168E+04 0.268      0.00      0.00     0.000 16.000
O3   s F    s Buckingham    0.168E+04 0.268      0.00      0.00     0.000 16.000
O2   c O2   s Spring (c-s)   76.0      0.00      0.00      0.00     0.000  0.800
O3   c O3   s Spring (c-s)   128.      0.00      0.00      0.00     0.000  0.800
O1   c O1   s Spring (c-s)   180.      0.00      0.00      0.00     0.000  0.800
F    c F    s Spring (c-s)   33.5      0.00      0.00      0.00     0.000  0.800
--------------------------------------------------------------------------------

  General Three-body potentials :

  Harmonic form:

--------------------------------------------------------------------------------
Atom    Atom    Atom           Force Constants            Theta     Cutoffs  
  1       2       3     (eVrad**-2/eVrad**-3/eVrad**-4)   (deg)  1-2  1-3  2-3
--------------------------------------------------------------------------------
Si    c O1    s O1    s  1.261        0.0000    0.0000   109.470 0.00 0.00 0.00
                                                                 1.90 1.90 3.50
Si    c O1    s O2    s  1.261        0.0000    0.0000   109.470 0.00 0.00 0.00
                                                                 1.90 1.90 3.50
Si    c O2    s O2    s  1.261        0.0000    0.0000   109.470 0.00 0.00 0.00
                                                                 1.90 1.90 3.50
--------------------------------------------------------------------------------

********************************************************************************
*  Output for configuration   1                                                *
********************************************************************************


  Components of energy : 

--------------------------------------------------------------------------------
  Interatomic potentials     =        2067.52230562 eV
  Three-body potentials      =           0.48028357 eV
  Monopole - monopole (real) =       -6617.75061598 eV
  Monopole - monopole (recip)=       -3171.15753191 eV
  Monopole - monopole (total)=       -9788.90814789 eV
  Neutralising energy        =          -6.45966633 eV
--------------------------------------------------------------------------------
  Total lattice energy       =       -7727.36522502 eV
--------------------------------------------------------------------------------
  Total lattice energy       =         -745572.6206 kJ/(mole unit cells)
--------------------------------------------------------------------------------


  Number of variables =      939

  Maximum number of calculations  =          1000
  Maximum Hessian update interval =            10
  Maximum step size               =   1.000000000
  Maximum parameter tolerance     =   0.000010000
  Maximum function  tolerance     =   0.000010000
  Maximum gradient  tolerance     =   0.001000000
  Maximum gradient  component     =   0.010000000

  Symmetry not applied to optimisation

  Cell parameters to be optimised using strains

  Newton-Raphson optimiser to be used

  BFGS hessian update to be used

  Dumpfile to be written after every cycle

  Start of bulk optimisation :

  Cycle:      0 Energy:     -7727.365225  Gnorm:      0.003270  CPU:    1.064
  ** Hessian calculated **
  Cycle:      1 Energy:     -7727.387608  Gnorm:      0.001707  CPU:    2.976
  Cycle:      2 Energy:     -7727.387702  Gnorm:      0.000077  CPU:    4.363


  **** Optimisation achieved ****


  Final energy =   -7727.38770332 eV
  Final Gnorm  =       0.00001249

  Components of energy : 

--------------------------------------------------------------------------------
  Interatomic potentials     =        2067.41927184 eV
  Three-body potentials      =           0.49561438 eV
  Monopole - monopole (real) =       -6617.33169763 eV
  Monopole - monopole (recip)=       -3171.51050679 eV
  Monopole - monopole (total)=       -9788.84220442 eV
  Neutralising energy        =          -6.46038511 eV
--------------------------------------------------------------------------------
  Total lattice energy       =       -7727.38770332 eV
--------------------------------------------------------------------------------
  Total lattice energy       =         -745574.7894 kJ/(mole unit cells)
--------------------------------------------------------------------------------

  Final fractional coordinates of atoms :

--------------------------------------------------------------------------------
   No.  Atomic        x           y          z          Radius
        Label       (Frac)      (Frac)     (Frac)       (Angs) 
--------------------------------------------------------------------------------
     1  Si    c     0.699600    0.375700    0.033890    0.000000
     2  Si    c     0.618237    0.317598    0.370680    0.000000
     3  Si    c     0.675818    0.295331    0.698444    0.000000
     4  Si    c     0.311383    0.627477    0.533472    0.000000
     5  Si    c     0.384261    0.674590    0.870161    0.000000
     6  Si    c     0.323244    0.698015    0.200748    0.000000
     7  Si    c     0.382176    0.703940    0.303173    0.000000
     8  Si    c     0.326429    0.617850    0.972636    0.000000
     9  Si    c     0.300991    0.681347    0.635433    0.000000
    10  Si    c     0.623615    0.297278    0.799011    0.000000
    11  Si    c     0.668934    0.364586    0.471157    0.000000
    12  Si    c     0.696078    0.314755    0.136722    0.000000
    13  Ge    c     0.530249    0.425897    0.966568    0.000000
    14  Si    c     0.590892    0.122194    0.302683    0.000000
    15  Si    c     0.885863    0.472676    0.633646    0.000000
    16  Si    c     0.478988    0.577714    0.471718    0.000000
    17  Si    c     0.421960    0.886196    0.802744    0.000000
    18  Si    c     0.109957    0.524144    0.137381    0.000000
    19  Si    c     0.422843    0.531826    0.370630    0.000000
    20  Si    c     0.112576    0.578745    0.036192    0.000000
    21  Si    c     0.471093    0.886825    0.701145    0.000000
    22  Si    c     0.594322    0.464459    0.867129    0.000000
    23  Si    c     0.884286    0.412764    0.531162    0.000000
    24  Ge    c     0.526234    0.093323    0.203673    0.000000
    25  Si    c     0.308726    0.392917    0.855153    0.000000
    26  Si    c     0.605003    0.899132    0.181587    0.000000
    27  Ge    c     0.100359    0.686237    0.525527    0.000000
    28  Si    c     0.700834    0.599746    0.356743    0.000000
    29  Si    c     0.398310    0.096070    0.685580    0.000000
    30  Si    c     0.904157    0.300972    0.021798    0.000000
    31  Si    c     0.395110    0.292403    0.485633    0.000000
    32  Si    c     0.900934    0.594011    0.150599    0.000000
    33  Si    c     0.701020    0.094627    0.815608    0.000000
    34  Si    c     0.608618    0.698134    0.990148    0.000000
    35  Si    c     0.096992    0.398930    0.650183    0.000000
    36  Si    c     0.304468    0.909121    0.316866    0.000000
    37  Si    c     0.252328    0.329363    0.957532    0.000000
    38  Si    c     0.666291    0.916616    0.284736    0.000000
    39  Si    c     0.088601    0.756937    0.621024    0.000000
    40  Si    c     0.755582    0.652307    0.457516    0.000000
    41  Si    c     0.342679    0.087891    0.786623    0.000000
    42  Si    c     0.909184    0.246788    0.122713    0.000000
    43  Si    c     0.339238    0.248941    0.384701    0.000000
    44  Si    c     0.912382    0.655769    0.049567    0.000000
    45  Si    c     0.748789    0.086326    0.714958    0.000000
    46  Si    c     0.668102    0.744457    0.886761    0.000000
    47  Si    c     0.092911    0.340682    0.548662    0.000000
    48  Si    c     0.248518    0.912057    0.214322    0.000000
    49  Si    c     0.967696    0.121684    0.969960    0.000000
    50  Si    c     0.879994    0.847532    0.303412    0.000000
    51  Si    c     0.149717    0.031059    0.637785    0.000000
    52  Si    c     0.035321    0.873030    0.471204    0.000000
    53  Si    c     0.124853    0.148822    0.804080    0.000000
    54  Si    c     0.852327    0.965570    0.136110    0.000000
    55  Si    c     0.121409    0.970650    0.368963    0.000000
    56  Si    c     0.855148    0.879467    0.036118    0.000000
    57  Si    c     0.028383    0.150589    0.703078    0.000000
    58  Si    c     0.881228    0.028209    0.868855    0.000000
    59  Si    c     0.146122    0.114968    0.535138    0.000000
    60  Si    c     0.964922    0.836846    0.202291    0.000000
    61  O2    c     0.930993    0.997446    0.001206    0.000000
    62  O2    c     0.001906    0.930856    0.335296    0.000000
    63  O2    c     0.075373    0.075899    0.671163    0.000000
    64  O2    c     0.066291    0.996613    0.502224    0.000000
    65  O2    c     0.005188    0.067982    0.837533    0.000000
    66  O2    c     0.928425    0.924058    0.170808    0.000000
    67  O2    c     0.348124    0.584251    0.337811    0.000000
    68  O2    c     0.420885    0.761389    0.669149    0.000000
    69  O2    c     0.239742    0.654644    0.003553    0.000000
    70  O2    c     0.664646    0.423970    0.828912    0.000000
    71  O3    c     0.576250    0.231410    0.167698    0.000000
    72  O2    c     0.753191    0.322235    0.503353    0.000000
    73  O3    c     0.582134    0.338731    0.001650    0.000000
    74  O2    c     0.760097    0.419805    0.665498    0.000000
    75  O2    c     0.660841    0.234695    0.340008    0.000000
    76  O2    c     0.438021    0.656838    0.505471    0.000000
    77  O2    c     0.234962    0.573058    0.170529    0.000000
    78  O2    c     0.348092    0.760398    0.836399    0.000000
    79  O2    c     0.119335    0.210753    0.975618    0.000000
    80  O2    c     0.788943    0.911490    0.305742    0.000000
    81  O2    c     0.089660    0.877443    0.646683    0.000000
    82  O2    c     0.881460    0.774593    0.477781    0.000000
    83  O2    c     0.216152    0.085036    0.807117    0.000000
    84  O2    c     0.906999    0.117873    0.143258    0.000000
    85  O2    c     0.212491    0.126209    0.364114    0.000000
    86  O2    c     0.911674    0.783537    0.029138    0.000000
    87  O2    c     0.875341    0.085859    0.696095    0.000000
    88  O2    c     0.790251    0.873372    0.865552    0.000000
    89  O2    c     0.091372    0.214420    0.529202    0.000000
    90  O2    c     0.115977    0.896952    0.195679    0.000000
    91  O2    c     0.929948    0.850346    0.253363    0.000000
    92  O2    c     0.127669    0.064967    0.586986    0.000000
    93  O2    c     0.929767    0.073554    0.918919    0.000000
    94  O2    c     0.067585    0.139683    0.754188    0.000000
    95  O2    c     0.879397    0.935957    0.086049    0.000000
    96  O2    c     0.066723    0.926936    0.419228    0.000000
    97  O2    c     0.898599    0.202194    0.983068    0.000000
    98  O2    c     0.798778    0.697318    0.318425    0.000000
    99  O2    c     0.302174    0.101127    0.647527    0.000000
   100  O3    c     0.110735    0.801639    0.483292    0.000000
   101  O2    c     0.210365    0.299812    0.816511    0.000000
   102  O2    c     0.699641    0.883763    0.146034    0.000000
   103  O2    c     0.207189    0.905657    0.355560    0.000000
   104  O2    c     0.702835    0.807254    0.025725    0.000000
   105  O2    c     0.095284    0.303166    0.690183    0.000000
   106  O2    c     0.800684    0.097588    0.853473    0.000000
   107  O2    c     0.297801    0.193647    0.524204    0.000000
   108  O2    c     0.893903    0.686510    0.189265    0.000000
   109  O2    c     0.327199    0.650940    0.252982    0.000000
   110  O2    c     0.355873    0.680787    0.585409    0.000000
   111  O2    c     0.329654    0.670324    0.920554    0.000000
   112  O2    c     0.678224    0.352786    0.748190    0.000000
   113  O2    c     0.649795    0.321408    0.085127    0.000000
   114  O2    c     0.672028    0.312525    0.421051    0.000000
   115  O3    c     0.364058    0.309320    0.976592    0.000000
   116  O2    c     0.675035    0.047613    0.303135    0.000000
   117  O2    c     0.955667    0.628518    0.637103    0.000000
   118  O2    c     0.633672    0.664184    0.474398    0.000000
   119  O2    c     0.334957    0.955247    0.805695    0.000000
   120  O2    c     0.042520    0.367291    0.141297    0.000000
   121  O2    c     0.334234    0.375923    0.366437    0.000000
   122  O2    c     0.046526    0.669181    0.031404    0.000000
   123  O2    c     0.626429    0.954111    0.697270    0.000000
   124  O2    c     0.677255    0.623582    0.867105    0.000000
   125  O2    c     0.961169    0.332011    0.531501    0.000000
   126  O3    c     0.360119    0.043218    0.194263    0.000000
   127  O2    c     0.773494    0.303710    0.013511    0.000000
   128  O2    c     0.693150    0.462505    0.348256    0.000000
   129  O2    c     0.532938    0.228386    0.676723    0.000000
   130  O3    c     0.250688    0.703844    0.508967    0.000000
   131  O2    c     0.313069    0.530565    0.849664    0.000000
   132  O2    c     0.467184    0.765047    0.179979    0.000000
   133  O2    c     0.309871    0.776305    0.322963    0.000000
   134  O2    c     0.471049    0.694231    0.992424    0.000000
   135  O2    c     0.228022    0.534306    0.655876    0.000000
   136  O2    c     0.697692    0.227406    0.821978    0.000000
   137  O2    c     0.526268    0.287729    0.493361    0.000000
   138  O2    c     0.769192    0.460215    0.157509    0.000000
   139  O2    c     0.788994    0.533006    0.029058    0.000000
   140  O2    c     0.462938    0.245288    0.365610    0.000000
   141  O2    c     0.750352    0.213445    0.693924    0.000000
   142  O2    c     0.217685    0.470278    0.531138    0.000000
   143  O2    c     0.537881    0.738452    0.869001    0.000000
   144  O2    c     0.259230    0.788656    0.197330    0.000000
   145  O2    c     0.535797    0.793811    0.303374    0.000000
   146  O2    c     0.263201    0.462954    0.975122    0.000000
   147  O2    c     0.213124    0.748372    0.638724    0.000000
   148  O2    c     0.468262    0.214838    0.804704    0.000000
   149  O2    c     0.744830    0.520250    0.477626    0.000000
   150  O2    c     0.785271    0.247054    0.142106    0.000000
   151  O2    c     0.242400    0.320942    0.902188    0.000000
   152  O2    c     0.677648    0.914032    0.230481    0.000000
   153  O3    c     0.092727    0.787923    0.568457    0.000000
   154  O2    c     0.773587    0.668666    0.403014    0.000000
   155  O2    c     0.325241    0.091093    0.732252    0.000000
   156  O2    c     0.908645    0.228254    0.068352    0.000000
   157  O2    c     0.320129    0.226675    0.439131    0.000000
   158  O2    c     0.908854    0.672294    0.103868    0.000000
   159  O2    c     0.769136    0.089394    0.769187    0.000000
   160  O2    c     0.680625    0.756727    0.940951    0.000000
   161  O2    c     0.094204    0.329825    0.603525    0.000000
   162  O2    c     0.238026    0.911852    0.269550    0.000000
   163  O3    c     0.599208    0.565080    0.002736    0.000000
   164  O2    c     0.445971    0.029996    0.323237    0.000000
   165  O2    c     0.976023    0.419994    0.655202    0.000000
   166  O2    c     0.414654    0.434083    0.495061    0.000000
   167  O2    c     0.563054    0.967715    0.825214    0.000000
   168  O2    c     0.028228    0.583181    0.160534    0.000000
   169  O2    c     0.564555    0.593147    0.348363    0.000000
   170  O2    c     0.033169    0.438689    0.012234    0.000000
   171  O2    c     0.411470    0.969530    0.677412    0.000000
   172  O2    c     0.449216    0.412631    0.847102    0.000000
   173  O3    c     0.960802    0.548605    0.505119    0.000000
   174  O3    c     0.595705    0.022365    0.168012    0.000000
   175  O3    c     0.597123    0.185853    0.254478    0.000000
   176  O2    c     0.839985    0.422803    0.582773    0.000000
   177  O3    c     0.600348    0.405435    0.914908    0.000000
   178  O2    c     0.419358    0.831576    0.752301    0.000000
   179  O2    c     0.169687    0.580908    0.086893    0.000000
   180  O2    c     0.422105    0.581918    0.421549    0.000000
   181  F     c     0.473445    0.947046    0.241658    0.000000
   182  F     c     0.097153    0.577828    0.574164    0.000000
   183  F     c     0.477082    0.519789    0.929288    0.000000
   184  F     c     0.548988    0.091953    0.749893    0.000000
   185  F     c     0.919404    0.455877    0.085463    0.000000
   186  F     c     0.545703    0.445544    0.421290    0.000000
   187  O2    s     0.926542    0.998314    0.001579    0.000000
   188  O2    s     0.001580    0.926085    0.335472    0.000000
   189  O2    s     0.078328    0.079464    0.671083    0.000000
   190  O2    s     0.072141    0.997374    0.502772    0.000000
   191  O2    s     0.005054    0.072632    0.837204    0.000000
   192  O2    s     0.923854    0.918785    0.170443    0.000000
   193  O2    s     0.359338    0.591646    0.337460    0.000000
   194  O2    s     0.413529    0.765876    0.668906    0.000000
   195  O2    s     0.236657    0.643330    0.003401    0.000000
   196  O2    s     0.653288    0.414707    0.829574    0.000000
   197  O3    s     0.585847    0.230836    0.166836    0.000000
   198  O2    s     0.757995    0.335642    0.502938    0.000000
   199  O3    s     0.591106    0.348942    0.002624    0.000000
   200  O2    s     0.764571    0.412443    0.665571    0.000000
   201  O2    s     0.649196    0.231954    0.339454    0.000000
   202  O2    s     0.428731    0.645537    0.504993    0.000000
   203  O2    s     0.232033    0.581481    0.170488    0.000000
   204  O2    s     0.359436    0.764199    0.836526    0.000000
   205  O2    s     0.117003    0.213889    0.972998    0.000000
   206  O2    s     0.785824    0.905278    0.303338    0.000000
   207  O2    s     0.095902    0.881555    0.643223    0.000000
   208  O2    s     0.883279    0.771321    0.474989    0.000000
   209  O2    s     0.219517    0.092064    0.804714    0.000000
   210  O2    s     0.901342    0.114734    0.140413    0.000000
   211  O2    s     0.216104    0.122703    0.366717    0.000000
   212  O2    s     0.905662    0.780845    0.031938    0.000000
   213  O2    s     0.878569    0.092748    0.698739    0.000000
   214  O2    s     0.787288    0.876501    0.868068    0.000000
   215  O2    s     0.097242    0.217615    0.531881    0.000000
   216  O2    s     0.113556    0.891816    0.198452    0.000000
   217  O2    s     0.928105    0.848518    0.253401    0.000000
   218  O2    s     0.132200    0.066668    0.587017    0.000000
   219  O2    s     0.928312    0.073595    0.918741    0.000000
   220  O2    s     0.069541    0.141929    0.753960    0.000000
   221  O2    s     0.873575    0.932870    0.086018    0.000000
   222  O2    s     0.069653    0.926302    0.418937    0.000000
   223  O2    s     0.906738    0.203176    0.985468    0.000000
   224  O2    s     0.797250    0.703297    0.320845    0.000000
   225  O2    s     0.296069    0.093286    0.650408    0.000000
   226  O3    s     0.101518    0.802000    0.484737    0.000000
   227  O2    s     0.211317    0.293338    0.819105    0.000000
   228  O2    s     0.705979    0.893715    0.148557    0.000000
   229  O2    s     0.208310    0.912704    0.352977    0.000000
   230  O2    s     0.709056    0.803710    0.023195    0.000000
   231  O2    s     0.088440    0.297312    0.687298    0.000000
   232  O2    s     0.798834    0.089851    0.851126    0.000000
   233  O2    s     0.291688    0.195415    0.521413    0.000000
   234  O2    s     0.902274    0.693545    0.186831    0.000000
   235  O2    s     0.332515    0.661130    0.252983    0.000000
   236  O2    s     0.345820    0.675728    0.585666    0.000000
   237  O2    s     0.335084    0.665591    0.920396    0.000000
   238  O2    s     0.672320    0.341016    0.748244    0.000000
   239  O2    s     0.659693    0.326344    0.085122    0.000000
   240  O2    s     0.666068    0.318573    0.421098    0.000000
   241  O3    s     0.363038    0.319228    0.973835    0.000000
   242  O2    s     0.665979    0.040967    0.301132    0.000000
   243  O2    s     0.961690    0.625033    0.635111    0.000000
   244  O2    s     0.630074    0.653840    0.472339    0.000000
   245  O2    s     0.344778    0.961874    0.803395    0.000000
   246  O2    s     0.035926    0.371164    0.138998    0.000000
   247  O2    s     0.343930    0.378826    0.368786    0.000000
   248  O2    s     0.039744    0.658595    0.033736    0.000000
   249  O2    s     0.623328    0.961029    0.699520    0.000000
   250  O2    s     0.668295    0.620983    0.869189    0.000000
   251  O2    s     0.967570    0.341109    0.533323    0.000000
   252  O3    s     0.359202    0.032439    0.197081    0.000000
   253  O2    s     0.780614    0.310582    0.016483    0.000000
   254  O2    s     0.686199    0.462172    0.351505    0.000000
   255  O2    s     0.533598    0.221392    0.679942    0.000000
   256  O3    s     0.246574    0.694592    0.512733    0.000000
   257  O2    s     0.320057    0.531254    0.852388    0.000000
   258  O2    s     0.466046    0.771507    0.182327    0.000000
   259  O2    s     0.316891    0.782461    0.320242    0.000000
   260  O2    s     0.469769    0.686659    0.990095    0.000000
   261  O2    s     0.221418    0.534856    0.653144    0.000000
   262  O2    s     0.690405    0.220465    0.818905    0.000000
   263  O2    s     0.527191    0.296169    0.490216    0.000000
   264  O2    s     0.776499    0.460546    0.154647    0.000000
   265  O2    s     0.793939    0.530911    0.031777    0.000000
   266  O2    s     0.465648    0.253226    0.368159    0.000000
   267  O2    s     0.742445    0.208164    0.696614    0.000000
   268  O2    s     0.213070    0.471562    0.533292    0.000000
   269  O2    s     0.535194    0.732140    0.871010    0.000000
   270  O2    s     0.265279    0.791603    0.199439    0.000000
   271  O2    s     0.533180    0.797334    0.301356    0.000000
   272  O2    s     0.269151    0.466089    0.973040    0.000000
   273  O2    s     0.209733    0.741941    0.636562    0.000000
   274  O2    s     0.470609    0.209465    0.802191    0.000000
   275  O2    s     0.737958    0.518273    0.474840    0.000000
   276  O2    s     0.790387    0.253961    0.139443    0.000000
   277  O2    s     0.250663    0.329641    0.902545    0.000000
   278  O2    s     0.669386    0.912928    0.231661    0.000000
   279  O3    s     0.092760    0.777974    0.571223    0.000000
   280  O2    s     0.763943    0.659597    0.403896    0.000000
   281  O2    s     0.334700    0.091262    0.733178    0.000000
   282  O2    s     0.908277    0.237781    0.069166    0.000000
   283  O2    s     0.329979    0.235907    0.438267    0.000000
   284  O2    s     0.908441    0.662463    0.103032    0.000000
   285  O2    s     0.759739    0.089612    0.768248    0.000000
   286  O2    s     0.672335    0.749697    0.939720    0.000000
   287  O2    s     0.094372    0.338367    0.602825    0.000000
   288  O2    s     0.246301    0.911598    0.269136    0.000000
   289  O3    s     0.595475    0.570522    0.998985    0.000000
   290  O2    s     0.444589    0.025580    0.320497    0.000000
   291  O2    s     0.980024    0.423314    0.652382    0.000000
   292  O2    s     0.419357    0.433773    0.491619    0.000000
   293  O2    s     0.562961    0.972801    0.821833    0.000000
   294  O2    s     0.023251    0.578111    0.157104    0.000000
   295  O2    s     0.564097    0.587296    0.351600    0.000000
   296  O2    s     0.027771    0.438717    0.015690    0.000000
   297  O2    s     0.416431    0.974598    0.680758    0.000000
   298  O2    s     0.447893    0.415646    0.849960    0.000000
   299  O3    s     0.963135    0.544503    0.509244    0.000000
   300  O3    s     0.591940    0.013343    0.171821    0.000000
   301  O3    s     0.591882    0.173068    0.256341    0.000000
   302  O2    s     0.849389    0.427273    0.583165    0.000000
   303  O3    s     0.595259    0.413089    0.913027    0.000000
   304  O2    s     0.424954    0.842894    0.752240    0.000000
   305  O2    s     0.157831    0.574951    0.086836    0.000000
   306  O2    s     0.427921    0.576294    0.421386    0.000000
   307  F     s     0.477334    0.957274    0.239081    0.000000
   308  F     s     0.097409    0.585015    0.571098    0.000000
   309  F     s     0.481004    0.513347    0.931785    0.000000
   310  F     s     0.549123    0.092045    0.749818    0.000000
   311  F     s     0.920948    0.456655    0.085381    0.000000
   312  F     s     0.545583    0.445276    0.421342    0.000000
--------------------------------------------------------------------------------

  Final Cartesian lattice vectors (Angstroms) :

       12.019677    0.012310   -0.010263
       -5.933335   10.330064    0.024459
       -0.225592    0.547443   29.430485


  Final cell parameters and derivatives :

--------------------------------------------------------------------------------
       a           12.019687 Angstrom     dE/de1(xx)     0.000036 eV/strain
       b           11.912820 Angstrom     dE/de2(yy)    -0.000684 eV/strain
       c           29.436441 Angstrom     dE/de3(zz)    -0.000291 eV/strain
       alpha       88.739600 Degrees      dE/de4(yz)    -0.000095 eV/strain
       beta        90.486922 Degrees      dE/de5(xz)    -0.000173 eV/strain
       gamma      119.813355 Degrees      dE/de6(xy)    -0.000333 eV/strain
--------------------------------------------------------------------------------

  Primitive cell volume =          3656.205619 Angs**3

  Density of cell =      1.749927 g/cm**3

  Non-primitive cell volume =          3656.205619 Angs**3


  Final internal derivatives :

--------------------------------------------------------------------------------
   No.  Atomic          a             b             c           Radius
        Label          (eV)          (eV)          (eV)        (eV/Angs)
--------------------------------------------------------------------------------
      1 Si    c       0.000000      0.000000      0.000000      0.000000
      2 Si    c       0.000013     -0.000176      0.000243      0.000000
      3 Si    c       0.000312      0.000292     -0.001025      0.000000
      4 Si    c      -0.000236      0.000119      0.000319      0.000000
      5 Si    c      -0.000174      0.000071      0.000426      0.000000
      6 Si    c       0.000104     -0.000172      0.000366      0.000000
      7 Si    c      -0.000212      0.000172     -0.000320      0.000000
      8 Si    c       0.000069     -0.000007     -0.000667      0.000000
      9 Si    c       0.000300      0.000234      0.001118      0.000000
     10 Si    c       0.000093     -0.000059     -0.000138      0.000000
     11 Si    c       0.000287     -0.000194     -0.000526      0.000000
     12 Si    c      -0.000493      0.000189      0.000530      0.000000
     13 Ge    c       0.000267     -0.000075      0.000183      0.000000
     14 Si    c       0.000052      0.000030      0.000359      0.000000
     15 Si    c      -0.000386     -0.000141      0.001121      0.000000
     16 Si    c      -0.000035      0.000189      0.000107      0.000000
     17 Si    c      -0.000043     -0.000009      0.000044      0.000000
     18 Si    c       0.000205      0.000075      0.000902      0.000000
     19 Si    c       0.000088      0.000169     -0.000441      0.000000
     20 Si    c      -0.000003     -0.000108     -0.000147      0.000000
     21 Si    c      -0.000062     -0.000227     -0.000638      0.000000
     22 Si    c       0.000356     -0.000265      0.001741      0.000000
     23 Si    c       0.000115     -0.000393      0.000955      0.000000
     24 Ge    c       0.000147      0.000225     -0.001176      0.000000
     25 Si    c      -0.000233      0.000112      0.000353      0.000000
     26 Si    c       0.000106      0.000102      0.000044      0.000000
     27 Ge    c      -0.000017      0.000283     -0.000514      0.000000
     28 Si    c      -0.000123      0.000279     -0.000036      0.000000
     29 Si    c      -0.000416      0.000175     -0.000841      0.000000
     30 Si    c       0.000133     -0.000133     -0.000445      0.000000
     31 Si    c      -0.000286     -0.000186      0.000275      0.000000
     32 Si    c      -0.000205      0.000258      0.000671      0.000000
     33 Si    c       0.000110     -0.000040      0.000148      0.000000
     34 Si    c       0.000301     -0.000717     -0.000553      0.000000
     35 Si    c       0.000211     -0.000365      0.000632      0.000000
     36 Si    c       0.000042     -0.000192      0.000170      0.000000
     37 Si    c      -0.000205     -0.000016     -0.000122      0.000000
     38 Si    c      -0.000073      0.000054     -0.000361      0.000000
     39 Si    c      -0.000140      0.000315      0.000464      0.000000
     40 Si    c      -0.000034      0.000224     -0.000063      0.000000
     41 Si    c      -0.000116      0.000098      0.000312      0.000000
     42 Si    c       0.000223     -0.000409      0.000262      0.000000
     43 Si    c      -0.000023     -0.000271      0.000095      0.000000
     44 Si    c      -0.000206     -0.000051     -0.000824      0.000000
     45 Si    c       0.000076     -0.000039     -0.000071      0.000000
     46 Si    c       0.000273      0.000057      0.000519      0.000000
     47 Si    c       0.000083     -0.000225      0.000303      0.000000
     48 Si    c      -0.000263      0.000039     -0.000154      0.000000
     49 Si    c      -0.000212     -0.000058      0.000111      0.000000
     50 Si    c       0.000050     -0.000078      0.000162      0.000000
     51 Si    c       0.000473     -0.000194     -0.000536      0.000000
     52 Si    c      -0.000521      0.000663      0.000526      0.000000
     53 Si    c      -0.000030     -0.000091     -0.000913      0.000000
     54 Si    c      -0.000160      0.000345     -0.000033      0.000000
     55 Si    c       0.000176     -0.000219      0.000171      0.000000
     56 Si    c       0.000143     -0.000115     -0.000231      0.000000
     57 Si    c      -0.000452      0.000459     -0.000159      0.000000
     58 Si    c       0.000207      0.000011      0.001358      0.000000
     59 Si    c      -0.000090     -0.000001     -0.000423      0.000000
     60 Si    c       0.000059      0.000215     -0.001149      0.000000
     61 O2    c       0.000117      0.000181     -0.000495      0.000000
     62 O2    c      -0.000217     -0.000001     -0.000261      0.000000
     63 O2    c       0.000058     -0.000055     -0.000367      0.000000
     64 O2    c      -0.000198      0.000120      0.000134      0.000000
     65 O2    c      -0.000339      0.000085      0.000222      0.000000
     66 O2    c       0.000581     -0.000832      0.001165      0.000000
     67 O2    c       0.000088     -0.000126      0.000320      0.000000
     68 O2    c      -0.000328      0.000095     -0.000458      0.000000
     69 O2    c      -0.000136      0.000181      0.000243      0.000000
     70 O2    c      -0.000068      0.000115      0.000183      0.000000
     71 O3    c       0.000162     -0.000755      0.000896      0.000000
     72 O2    c      -0.000198      0.000072     -0.000512      0.000000
     73 O3    c       0.000843     -0.000963      0.002926      0.000000
     74 O2    c       0.000028     -0.000460      0.000790      0.000000
     75 O2    c       0.000073     -0.000210     -0.000255      0.000000
     76 O2    c       0.000448     -0.000136     -0.000844      0.000000
     77 O2    c      -0.000380      0.000027     -0.000852      0.000000
     78 O2    c      -0.000066      0.000064     -0.000200      0.000000
     79 O2    c       0.000102      0.000031     -0.000003      0.000000
     80 O2    c       0.000030     -0.000074      0.000043      0.000000
     81 O2    c       0.000085      0.000303     -0.000434      0.000000
     82 O2    c      -0.001206     -0.000242      0.000537      0.000000
     83 O2    c      -0.000221      0.000219      0.000074      0.000000
     84 O2    c      -0.000022     -0.000306     -0.000237      0.000000
     85 O2    c       0.000123      0.000113      0.000049      0.000000
     86 O2    c       0.000024     -0.000166     -0.000112      0.000000
     87 O2    c       0.000497     -0.000080      0.000207      0.000000
     88 O2    c      -0.000177     -0.000140      0.000298      0.000000
     89 O2    c      -0.000095      0.000090      0.000016      0.000000
     90 O2    c      -0.000379     -0.000054      0.000424      0.000000
     91 O2    c      -0.000087      0.000246      0.000145      0.000000
     92 O2    c       0.000054     -0.000332      0.003158      0.000000
     93 O2    c      -0.000171     -0.000125     -0.001891      0.000000
     94 O2    c       0.000314     -0.000074      0.001691      0.000000
     95 O2    c      -0.000117      0.000028      0.000750      0.000000
     96 O2    c       0.000015      0.000151     -0.002170      0.000000
     97 O2    c       0.000089     -0.000094     -0.000259      0.000000
     98 O2    c      -0.000078     -0.000141      0.000279      0.000000
     99 O2    c      -0.000372     -0.000195      0.000452      0.000000
    100 O3    c       0.002352     -0.002031      0.000547      0.000000
    101 O2    c       0.000008     -0.000102      0.000049      0.000000
    102 O2    c       0.000212      0.000053     -0.000106      0.000000
    103 O2    c      -0.000089      0.000061      0.000101      0.000000
    104 O2    c      -0.000072      0.000228      0.000109      0.000000
    105 O2    c      -0.000030     -0.000403     -0.000032      0.000000
    106 O2    c       0.000053     -0.000089     -0.000186      0.000000
    107 O2    c       0.000491      0.000099     -0.000630      0.000000
    108 O2    c       0.000133      0.000109     -0.000187      0.000000
    109 O2    c      -0.000100      0.000127     -0.001099      0.000000
    110 O2    c       0.000036     -0.000017     -0.000008      0.000000
    111 O2    c       0.000063     -0.000103      0.000491      0.000000
    112 O2    c      -0.000036      0.000003      0.000257      0.000000
    113 O2    c      -0.000172      0.000274     -0.002207      0.000000
    114 O2    c      -0.000103      0.000114      0.000036      0.000000
    115 O3    c       0.000337     -0.000126      0.000519      0.000000
    116 O2    c      -0.000079     -0.000006     -0.000006      0.000000
    117 O2    c      -0.000054      0.000112      0.000136      0.000000
    118 O2    c       0.000031     -0.000029     -0.000012      0.000000
    119 O2    c      -0.000003      0.000032     -0.000053      0.000000
    120 O2    c       0.000071      0.000085      0.000071      0.000000
    121 O2    c      -0.000046      0.000048     -0.000125      0.000000
    122 O2    c      -0.000108      0.000043      0.000105      0.000000
    123 O2    c       0.000008     -0.000003     -0.000048      0.000000
    124 O2    c       0.000099     -0.000337     -0.000117      0.000000
    125 O2    c       0.000110     -0.000046      0.000200      0.000000
    126 O3    c      -0.000008      0.000056     -0.000027      0.000000
    127 O2    c      -0.000573      0.000374      0.000266      0.000000
    128 O2    c       0.000074     -0.000149     -0.000117      0.000000
    129 O2    c       0.000032     -0.000001      0.000105      0.000000
    130 O3    c       0.000100     -0.000106      0.000449      0.000000
    131 O2    c       0.000136     -0.000321     -0.000106      0.000000
    132 O2    c      -0.000068     -0.000077     -0.000050      0.000000
    133 O2    c      -0.000065      0.000162     -0.000130      0.000000
    134 O2    c       0.000101     -0.000015      0.000135      0.000000
    135 O2    c       0.000069     -0.000023      0.000041      0.000000
    136 O2    c      -0.000089      0.000094     -0.000140      0.000000
    137 O2    c       0.000081     -0.000104     -0.000112      0.000000
    138 O2    c      -0.000112     -0.000207     -0.000267      0.000000
    139 O2    c       0.000210     -0.000656      0.000509      0.000000
    140 O2    c       0.000162     -0.000112     -0.000064      0.000000
    141 O2    c      -0.000067      0.000017      0.000108      0.000000
    142 O2    c       0.000117      0.000101     -0.000087      0.000000
    143 O2    c      -0.000123      0.000026     -0.000224      0.000000
    144 O2    c      -0.000005      0.000037     -0.000003      0.000000
    145 O2    c       0.000065     -0.000032      0.000079      0.000000
    146 O2    c      -0.000074      0.000167      0.000281      0.000000
    147 O2    c       0.000109     -0.000110      0.000071      0.000000
    148 O2    c       0.000075     -0.000056     -0.000136      0.000000
    149 O2    c       0.000247      0.000031      0.000798      0.000000
    150 O2    c      -0.000066      0.000049      0.000095      0.000000
    151 O2    c       0.000095      0.000080     -0.000219      0.000000
    152 O2    c      -0.000185      0.000038      0.000320      0.000000
    153 O3    c      -0.000249      0.000082     -0.000041      0.000000
    154 O2    c      -0.000014     -0.000058     -0.000093      0.000000
    155 O2    c       0.000041      0.000022      0.000188      0.000000
    156 O2    c      -0.000096      0.000128     -0.000237      0.000000
    157 O2    c      -0.000014     -0.000016     -0.000223      0.000000
    158 O2    c      -0.000071      0.000072     -0.000055      0.000000
    159 O2    c       0.000012     -0.000048      0.000062      0.000000
    160 O2    c      -0.000228     -0.000142      0.000464      0.000000
    161 O2    c       0.000011     -0.000011     -0.000480      0.000000
    162 O2    c      -0.000029      0.000026     -0.000049      0.000000
    163 O3    c      -0.000937      0.000596     -0.001667      0.000000
    164 O2    c       0.000048      0.000040      0.000095      0.000000
    165 O2    c      -0.000165      0.000126      0.000024      0.000000
    166 O2    c      -0.000060      0.000169      0.000196      0.000000
    167 O2    c       0.000034     -0.000017      0.000045      0.000000
    168 O2    c       0.000176     -0.000127      0.000041      0.000000
    169 O2    c      -0.000118      0.000037      0.000251      0.000000
    170 O2    c       0.000027      0.000121      0.000109      0.000000
    171 O2    c       0.000106     -0.000080      0.000104      0.000000
    172 O2    c      -0.000022     -0.000013     -0.000102      0.000000
    173 O3    c      -0.000051     -0.000040     -0.000678      0.000000
    174 O3    c      -0.000168      0.000118      0.000412      0.000000
    175 O3    c       0.000005      0.000069      0.000289      0.000000
    176 O2    c       0.000064     -0.000124     -0.001223      0.000000
    177 O3    c      -0.000565      0.000546     -0.000338      0.000000
    178 O2    c       0.000041     -0.000028     -0.000092      0.000000
    179 O2    c       0.000053      0.000046     -0.000367      0.000000
    180 O2    c      -0.000011      0.000100      0.000203      0.000000
    181 F     c      -0.000006     -0.000034      0.000015      0.000000
    182 F     c       0.000177      0.000014      0.000288      0.000000
    183 F     c       0.000041      0.000062     -0.000167      0.000000
    184 F     c       0.000024     -0.000040     -0.000134      0.000000
    185 F     c       0.000277     -0.000032      0.000724      0.000000
    186 F     c       0.000010     -0.000047      0.000211      0.000000
    187 O2    s       0.000063     -0.000107     -0.000175      0.000000
    188 O2    s       0.000066     -0.000023     -0.000120      0.000000
    189 O2    s       0.000225     -0.000121      0.000243      0.000000
    190 O2    s       0.000032      0.000540      0.000298      0.000000
    191 O2    s       0.000191      0.000135      0.000060      0.000000
    192 O2    s      -0.000096      0.000103     -0.000080      0.000000
    193 O2    s      -0.000039     -0.000069      0.000214      0.000000
    194 O2    s       0.000308     -0.000150     -0.000036      0.000000
    195 O2    s       0.000075     -0.000044     -0.000189      0.000000
    196 O2    s       0.000016     -0.000146      0.000084      0.000000
    197 O3    s      -0.000205      0.000634     -0.000028      0.000000
    198 O2    s       0.000294     -0.000090      0.000615      0.000000
    199 O3    s      -0.000528      0.001120     -0.002655      0.000000
    200 O2    s      -0.000097      0.000195     -0.000058      0.000000
    201 O2    s       0.000065     -0.000028      0.000026      0.000000
    202 O2    s      -0.000121      0.000036      0.000200      0.000000
    203 O2    s       0.000312     -0.000047      0.000404      0.000000
    204 O2    s       0.000042      0.000000      0.000228      0.000000
    205 O2    s      -0.000006     -0.000023      0.000407      0.000000
    206 O2    s      -0.000107      0.000165      0.000033      0.000000
    207 O2    s       0.000038      0.000435      0.000019      0.000000
    208 O2    s      -0.000609      0.000242      0.000237      0.000000
    209 O2    s      -0.000124     -0.000004     -0.000442      0.000000
    210 O2    s       0.000076     -0.000102      0.000071      0.000000
    211 O2    s      -0.000100      0.000154     -0.000185      0.000000
    212 O2    s       0.000055      0.000044      0.000473      0.000000
    213 O2    s       0.000088      0.000099     -0.000250      0.000000
    214 O2    s      -0.000036      0.000052     -0.000088      0.000000
    215 O2    s      -0.000358      0.000245     -0.000266      0.000000
    216 O2    s      -0.000195      0.000030     -0.000436      0.000000
    217 O2    s       0.000114     -0.000009     -0.000486      0.000000
    218 O2    s       0.000247     -0.000288      0.000144      0.000000
    219 O2    s       0.000194      0.000008     -0.000034      0.000000
    220 O2    s       0.000003      0.000101     -0.000676      0.000000
    221 O2    s      -0.000003      0.000054      0.000133      0.000000
    222 O2    s      -0.000129      0.000473     -0.000666      0.000000
    223 O2    s      -0.000133      0.000001      0.000394      0.000000
    224 O2    s       0.000094     -0.000033     -0.000458      0.000000
    225 O2    s      -0.000374      0.000009     -0.000629      0.000000
    226 O3    s       0.000308      0.000262      0.001068      0.000000
    227 O2    s      -0.000006     -0.000073     -0.000099      0.000000
    228 O2    s       0.000175     -0.000052     -0.000028      0.000000
    229 O2    s       0.000106     -0.000068     -0.000058      0.000000
    230 O2    s      -0.000330      0.000028     -0.000322      0.000000
    231 O2    s      -0.000005     -0.000156      0.000398      0.000000
    232 O2    s       0.000179     -0.000091      0.000161      0.000000
    233 O2    s       0.000185     -0.000189      0.000025      0.000000
    234 O2    s      -0.000045      0.000324      0.000269      0.000000
    235 O2    s       0.000098     -0.000076      0.000427      0.000000
    236 O2    s       0.000058     -0.000024      0.000337      0.000000
    237 O2    s       0.000096     -0.000002     -0.000395      0.000000
    238 O2    s       0.000006      0.000169     -0.000293      0.000000
    239 O2    s       0.000355     -0.000300      0.001609      0.000000
    240 O2    s       0.000372     -0.000235      0.000234      0.000000
    241 O3    s      -0.000271     -0.000076     -0.000503      0.000000
    242 O2    s       0.000052      0.000063     -0.000049      0.000000
    243 O2    s       0.000015     -0.000036     -0.000134      0.000000
    244 O2    s      -0.000132      0.000041      0.000372      0.000000
    245 O2    s      -0.000022      0.000095     -0.000101      0.000000
    246 O2    s      -0.000109     -0.000040      0.000076      0.000000
    247 O2    s       0.000086      0.000037      0.000234      0.000000
    248 O2    s       0.000075      0.000059     -0.000318      0.000000
    249 O2    s       0.000019     -0.000027     -0.000247      0.000000
    250 O2    s      -0.000076      0.000200     -0.000000      0.000000
    251 O2    s      -0.000080     -0.000010     -0.000257      0.000000
    252 O3    s       0.000041     -0.000019     -0.000151      0.000000
    253 O2    s       0.000417     -0.000238     -0.000359      0.000000
    254 O2    s      -0.000028      0.000019     -0.000160      0.000000
    255 O2    s       0.000008      0.000021     -0.000081      0.000000
    256 O3    s      -0.000096      0.000094     -0.000957      0.000000
    257 O2    s      -0.000004      0.000012      0.000207      0.000000
    258 O2    s       0.000019     -0.000047     -0.000073      0.000000
    259 O2    s       0.000074     -0.000104      0.000214      0.000000
    260 O2    s       0.000150     -0.000068     -0.000189      0.000000
    261 O2    s      -0.000010     -0.000022     -0.000028      0.000000
    262 O2    s      -0.000013     -0.000046      0.000192      0.000000
    263 O2    s      -0.000091      0.000084      0.000675      0.000000
    264 O2    s       0.000182     -0.000010      0.000234      0.000000
    265 O2    s      -0.000433      0.000662     -0.000637      0.000000
    266 O2    s      -0.000218      0.000182     -0.000165      0.000000
    267 O2    s       0.000045      0.000018     -0.000305      0.000000
    268 O2    s      -0.000146      0.000051      0.000011      0.000000
    269 O2    s       0.000121     -0.000025      0.000444      0.000000
    270 O2    s      -0.000055     -0.000022      0.000013      0.000000
    271 O2    s       0.000037      0.000127     -0.000072      0.000000
    272 O2    s       0.000027      0.000069     -0.000373      0.000000
    273 O2    s      -0.000156      0.000203      0.000056      0.000000
    274 O2    s      -0.000030     -0.000053      0.000153      0.000000
    275 O2    s      -0.000403     -0.000017     -0.001216      0.000000
    276 O2    s       0.000043     -0.000058     -0.000072      0.000000
    277 O2    s       0.000016      0.000028     -0.000760      0.000000
    278 O2    s       0.000249     -0.000051     -0.000091      0.000000
    279 O3    s       0.000300     -0.000015     -0.000009      0.000000
    280 O2    s       0.000133     -0.000021      0.000060      0.000000
    281 O2    s      -0.000088     -0.000017      0.000001      0.000000
    282 O2    s       0.000114     -0.000133      0.000244      0.000000
    283 O2    s      -0.000109      0.000077      0.000261      0.000000
    284 O2    s       0.000148     -0.000047      0.000166      0.000000
    285 O2    s      -0.000095      0.000089      0.000033      0.000000
    286 O2    s      -0.000085     -0.000068      0.000163      0.000000
    287 O2    s      -0.000032     -0.000002      0.000043      0.000000
    288 O2    s      -0.000019      0.000029     -0.000014      0.000000
    289 O3    s       0.001014     -0.000314      0.000275      0.000000
    290 O2    s      -0.000026      0.000045     -0.000092      0.000000
    291 O2    s       0.000053     -0.000107      0.000282      0.000000
    292 O2    s       0.000037     -0.000045     -0.000334      0.000000
    293 O2    s      -0.000039      0.000032      0.000237      0.000000
    294 O2    s      -0.000119      0.000019     -0.000168      0.000000
    295 O2    s      -0.000132      0.000042     -0.000628      0.000000
    296 O2    s      -0.000144      0.000067     -0.000096      0.000000
    297 O2    s      -0.000227      0.000194     -0.000278      0.000000
    298 O2    s      -0.000123      0.000115      0.000087      0.000000
    299 O3    s      -0.000237     -0.000032      0.000439      0.000000
    300 O3    s       0.000139     -0.000114     -0.000462      0.000000
    301 O3    s      -0.000001     -0.000047     -0.000193      0.000000
    302 O2    s      -0.000011      0.000197      0.000082      0.000000
    303 O3    s       0.000548     -0.000400     -0.000296      0.000000
    304 O2    s      -0.000019      0.000078      0.000143      0.000000
    305 O2    s      -0.000076      0.000006      0.000460      0.000000
    306 O2    s       0.000012     -0.000205     -0.000027      0.000000
    307 F     s       0.000027      0.000004      0.000126      0.000000
    308 F     s      -0.000255     -0.000238      0.000094      0.000000
    309 F     s      -0.000380      0.000497     -0.000399      0.000000
    310 F     s      -0.000102      0.000034      0.000320      0.000000
    311 F     s      -0.000556     -0.000007     -0.001083      0.000000
    312 F     s      -0.000061      0.000095     -0.000131      0.000000
--------------------------------------------------------------------------------
  Maximum abs         0.002352      0.002031      0.003158      0.000000
--------------------------------------------------------------------------------


  Time to end of optimisation =       5.7514 seconds


  Peak dynamic memory used =      19.13 MB 


  Timing analysis for GULP :

--------------------------------------------------------------------------------
  Task / Subroutine                                          Time (Seconds)
--------------------------------------------------------------------------------
  Calculation of reciprocal space energy and derivatives          0.2516
  Calculation of real space energy and derivatives                4.7542
  Calculation of three-body energy and derivatives                0.5182
  Calculation of matrix inversion                                 0.1920
--------------------------------------------------------------------------------
  Total CPU time                                                  5.7514
--------------------------------------------------------------------------------


  Dump file written as out.res                                                 
  CIF file written as out.cif                                                 


  Job Finished at 20:10.27 29th November   2016                               

