********************************************************************************
*                       GENERAL UTILITY LATTICE PROGRAM                        *
*                                 Julian Gale                                  *
*                      Nanochemistry Research Institute                        *
*                           Department of Chemistry                            *
*                    Curtin University, Western Australia                      *
********************************************************************************
* Version = 4.2.0 * Last modified =  20th January 2014                         *
********************************************************************************
*  optimise     - perform optimisation run                                     *
*  conp         - constant pressure calculation                                *
*  qok          - running with non charge neutral cell is OK                   *
********************************************************************************

  Job Started  at 18:55.39 29th November   2016                               

  Number of CPUs =     1


  Total number of configurations input =   1

********************************************************************************
*  Input for Configuration =   1                                               *
********************************************************************************

  Formula = Si57Ge3O120F6                                               

  Number of irreducible atoms/shells =     312


  Total number atoms/shells =     312

  Dimensionality = 3               :  Bulk   


  Charge on solid   =  -6.000000 =>neutralising background added


  Cartesian lattice vectors (Angstroms) :

       11.979004    0.000000    0.000000
       -5.914380   10.378151    0.000000
       -0.095085   -0.048375   29.398823

  Cell parameters (Angstroms/Degrees):

  a =      11.9790    alpha =  89.9902
  b =      11.9451    beta  =  90.1853
  c =      29.3990    gamma = 119.6783

  Initial cell volume =        3654.859310 Angs**3

  Temperature of configuration =  0.000     K 

  Pressure of configuration =         0.000 GPa 

  Fractional coordinates of asymmetric unit :

--------------------------------------------------------------------------------
   No.  Atomic       x           y          z         Charge      Occupancy
        Label      (Frac)      (Frac)     (Frac)        (e)         (Frac)  
--------------------------------------------------------------------------------
      1 Si    c    0.699600    0.375700    0.033890     4.00000    1.000000    
      2 Si    c    0.620674 *  0.322216 *  0.369226 *   4.00000    1.000000    
      3 Si    c    0.676894 *  0.293869 *  0.699670 *   4.00000    1.000000    
      4 Si    c    0.297941 *  0.619197 *  0.536020 *   4.00000    1.000000    
      5 Si    c    0.386444 *  0.681040 *  0.869113 *   4.00000    1.000000    
      6 Si    c    0.328449 *  0.702334 *  0.202630 *   4.00000    1.000000    
      7 Si    c    0.381790 *  0.702545 *  0.303636 *   4.00000    1.000000    
      8 Si    c    0.333350 *  0.629045 *  0.971734 *   4.00000    1.000000    
      9 Si    c    0.296307 *  0.672623 *  0.636961 *   4.00000    1.000000    
     10 Si    c    0.627620 *  0.297790 *  0.800743 *   4.00000    1.000000    
     11 Si    c    0.676315 *  0.377747 *  0.469981 *   4.00000    1.000000    
     12 Si    c    0.707007 *  0.318864 *  0.136961 *   4.00000    1.000000    
     13 Ge    c    0.528966 *  0.430621 *  0.968121 *   4.00000    1.000000    
     14 Si    c    0.583929 *  0.111860 *  0.304217 *   4.00000    1.000000    
     15 Si    c    0.887740 *  0.468199 *  0.636003 *   4.00000    1.000000    
     16 Si    c    0.470872 *  0.582135 *  0.471039 *   4.00000    1.000000    
     17 Si    c    0.424507 *  0.891243 *  0.803082 *   4.00000    1.000000    
     18 Si    c    0.121949 *  0.526851 *  0.136648 *   4.00000    1.000000    
     19 Si    c    0.418202 *  0.529722 *  0.369124 *   4.00000    1.000000    
     20 Si    c    0.122523 *  0.587611 *  0.033952 *   4.00000    1.000000    
     21 Si    c    0.470177 *  0.883899 *  0.701467 *   4.00000    1.000000    
     22 Si    c    0.599708 *  0.467388 *  0.868999 *   4.00000    1.000000    
     23 Si    c    0.888376 *  0.416243 *  0.534205 *   4.00000    1.000000    
     24 Si    c    0.532791 *  0.111092 *  0.202145 *   4.00000    1.000000    
     25 Ge    c    0.309344 *  0.394765 *  0.855928 *   4.00000    1.000000    
     26 Si    c    0.605402 *  0.902196 *  0.187684 *   4.00000    1.000000    
     27 Si    c    0.096594 *  0.696055 *  0.520791 *   4.00000    1.000000    
     28 Si    c    0.697646 *  0.600486 *  0.355045 *   4.00000    1.000000    
     29 Si    c    0.398962 *  0.093592 *  0.686740 *   4.00000    1.000000    
     30 Ge    c    0.909588 *  0.314574 *  0.027590 *   4.00000    1.000000    
     31 Si    c    0.399107 *  0.300910 *  0.485001 *   4.00000    1.000000    
     32 Si    c    0.908930 *  0.598861 *  0.152243 *   4.00000    1.000000    
     33 Si    c    0.705131 *  0.095769 *  0.816616 *   4.00000    1.000000    
     34 Si    c    0.614082 *  0.707574 *  0.989644 *   4.00000    1.000000    
     35 Si    c    0.095546 *  0.394755 *  0.651523 *   4.00000    1.000000    
     36 Si    c    0.304450 *  0.904184 *  0.318501 *   4.00000    1.000000    
     37 Si    c    0.248792 *  0.335299 *  0.959222 *   4.00000    1.000000    
     38 Si    c    0.661911 *  0.910192 *  0.288910 *   4.00000    1.000000    
     39 Si    c    0.088238 *  0.746104 *  0.621612 *   4.00000    1.000000    
     40 Si    c    0.749100 *  0.659585 *  0.455880 *   4.00000    1.000000    
     41 Si    c    0.345288 *  0.091598 *  0.787748 *   4.00000    1.000000    
     42 Si    c    0.920286 *  0.244563 *  0.123966 *   4.00000    1.000000    
     43 Si    c    0.340546 *  0.250732 *  0.384007 *   4.00000    1.000000    
     44 Si    c    0.914856 *  0.660898 *  0.050285 *   4.00000    1.000000    
     45 Si    c    0.748614 *  0.084133 *  0.715276 *   4.00000    1.000000    
     46 Si    c    0.671218 *  0.747903 *  0.886422 *   4.00000    1.000000    
     47 Si    c    0.089714 *  0.338966 *  0.550368 *   4.00000    1.000000    
     48 Si    c    0.255949 *  0.911043 *  0.217461 *   4.00000    1.000000    
     49 Si    c    0.965135 *  0.125869 *  0.972815 *   4.00000    1.000000    
     50 Si    c    0.879607 *  0.847300 *  0.304662 *   4.00000    1.000000    
     51 Si    c    0.150879 *  0.026352 *  0.636309 *   4.00000    1.000000    
     52 Si    c    0.028952 *  0.877012 *  0.470222 *   4.00000    1.000000    
     53 Si    c    0.121723 *  0.148099 *  0.803176 *   4.00000    1.000000    
     54 Si    c    0.854480 *  0.968968 *  0.139718 *   4.00000    1.000000    
     55 Si    c    0.123362 *  0.971143 *  0.369355 *   4.00000    1.000000    
     56 Si    c    0.859374 *  0.887234 *  0.037797 *   4.00000    1.000000    
     57 Si    c    0.027283 *  0.145688 *  0.701894 *   4.00000    1.000000    
     58 Si    c    0.884430 *  0.029548 *  0.870391 *   4.00000    1.000000    
     59 Si    c    0.151715 *  0.120724 *  0.535228 *   4.00000    1.000000    
     60 Si    c    0.975685 *  0.844785 *  0.204279 *   4.00000    1.000000    
     61 O2    c    0.938748 *  0.002845 *  0.003662 *   0.87073    1.000000    
     62 O2    c    0.000643 *  0.928596 *  0.337257 *   0.87073    1.000000    
     63 O2    c    0.071763 *  0.068674 *  0.668945 *   0.87073    1.000000    
     64 O2    c    0.071217 *  0.999292 *  0.502606 *   0.87073    1.000000    
     65 O2    c    0.005031 *  0.066698 *  0.837590 *   0.87073    1.000000    
     66 O2    c    0.927916 *  0.919329 *  0.172050 *   0.87073    1.000000    
     67 O2    c    0.342363 *  0.579557 *  0.336481 *   0.87073    1.000000    
     68 O2    c    0.419262 *  0.756609 *  0.669734 *   0.87073    1.000000    
     69 O2    c    0.251609 *  0.672588 *  0.003660 *   0.87073    1.000000    
     70 O2    c    0.672470 *  0.424389 *  0.831902 *   0.87073    1.000000    
     71 O2    c    0.584130 *  0.236692 *  0.169676 *   0.87073    1.000000    
     72 O2    c    0.762646 *  0.339285 *  0.502005 *   0.87073    1.000000    
     73 O3    c    0.575726 *  0.346579 *  0.006205 *   1.33043    1.000000    
     74 O2    c    0.760572 *  0.417335 *  0.667298 *   0.87073    1.000000    
     75 O2    c    0.659689 *  0.237580 *  0.336574 *   0.87073    1.000000    
     76 O2    c    0.421257 *  0.658112 *  0.503611 *   0.87073    1.000000    
     77 O2    c    0.245805 *  0.579020 *  0.169822 *   0.87073    1.000000    
     78 O2    c    0.351498 *  0.769148 *  0.837093 *   0.87073    1.000000    
     79 O2    c    0.117097 *  0.223679 *  0.980227 *   0.87073    1.000000    
     80 O2    c    0.788896 *  0.911323 *  0.308925 *   0.87073    1.000000    
     81 O2    c    0.087597 *  0.872268 *  0.641696 *   0.87073    1.000000    
     82 O2    c    0.875227 *  0.786311 *  0.475580 *   0.87073    1.000000    
     83 O2    c    0.221037 *  0.092982 *  0.808655 *   0.87073    1.000000    
     84 O2    c    0.916565 *  0.121292 *  0.149470 *   0.87073    1.000000    
     85 O2    c    0.213841 *  0.125167 *  0.364003 *   0.87073    1.000000    
     86 O2    c    0.913246 *  0.787340 *  0.031807 *   0.87073    1.000000    
     87 O2    c    0.873964 *  0.083135 *  0.694898 *   0.87073    1.000000    
     88 O2    c    0.792385 *  0.875130 *  0.865581 *   0.87073    1.000000    
     89 O2    c    0.089335 *  0.212694 *  0.529889 *   0.87073    1.000000    
     90 O2    c    0.129027 *  0.910755 *  0.197761 *   0.87073    1.000000    
     91 O2    c    0.935426 *  0.856665 *  0.254804 *   0.87073    1.000000    
     92 O2    c    0.138050 *  0.066943 *  0.585719 *   0.87073    1.000000    
     93 O2    c    0.934636 *  0.072628 *  0.920905 *   0.87073    1.000000    
     94 O2    c    0.063164 *  0.127491 *  0.752697 *   0.87073    1.000000    
     95 O2    c    0.877451 *  0.937810 *  0.089037 *   0.87073    1.000000    
     96 O2    c    0.069948 *  0.930515 *  0.419778 *   0.87073    1.000000    
     97 O3    c    0.890892 *  0.197216 *  0.985381 *   1.33043    1.000000    
     98 O2    c    0.796412 *  0.696356 *  0.316877 *   0.87073    1.000000    
     99 O2    c    0.301889 *  0.094976 *  0.648358 *   0.87073    1.000000    
    100 O2    c    0.098363 *  0.794545 *  0.482310 *   0.87073    1.000000    
    101 O3    c    0.200247 *  0.297579 *  0.814006 *   1.33043    1.000000    
    102 O2    c    0.701575 *  0.899136 *  0.149487 *   0.87073    1.000000    
    103 O2    c    0.206089 *  0.902262 *  0.356845 *   0.87073    1.000000    
    104 O2    c    0.707646 *  0.815528 *  0.026240 *   0.87073    1.000000    
    105 O2    c    0.096210 *  0.297950 *  0.690333 *   0.87073    1.000000    
    106 O2    c    0.803527 *  0.098722 *  0.855086 *   0.87073    1.000000    
    107 O2    c    0.302797 *  0.202257 *  0.523189 *   0.87073    1.000000    
    108 O2    c    0.910277 *  0.693234 *  0.191885 *   0.87073    1.000000    
    109 O2    c    0.326779 *  0.644928 *  0.253098 *   0.87073    1.000000    
    110 O2    c    0.354162 *  0.674324 *  0.586657 *   0.87073    1.000000    
    111 O2    c    0.335975 *  0.680186 *  0.920359 *   0.87073    1.000000    
    112 O2    c    0.680491 *  0.351738 *  0.749964 *   0.87073    1.000000    
    113 O2    c    0.656798 *  0.322179 *  0.086506 *   0.87073    1.000000    
    114 O2    c    0.676989 *  0.320958 *  0.419633 *   0.87073    1.000000    
    115 O3    c    0.363319 *  0.318128 *  0.978139 *   1.33043    1.000000    
    116 O2    c    0.671283 *  0.042624 *  0.307228 *   0.87073    1.000000    
    117 O2    c    0.955891 *  0.624273 *  0.639657 *   0.87073    1.000000    
    118 O2    c    0.626632 *  0.669514 *  0.474211 *   0.87073    1.000000    
    119 O2    c    0.337117 *  0.960061 *  0.806720 *   0.87073    1.000000    
    120 O2    c    0.053749 *  0.371334 *  0.140178 *   0.87073    1.000000    
    121 O2    c    0.330659 *  0.373710 *  0.365815 *   0.87073    1.000000    
    122 O2    c    0.049021 *  0.671681 *  0.033795 *   0.87073    1.000000    
    123 O2    c    0.625796 *  0.950999 *  0.697900 *   0.87073    1.000000    
    124 O2    c    0.682696 *  0.625665 *  0.869075 *   0.87073    1.000000    
    125 O2    c    0.957881 *  0.329083 *  0.531428 *   0.87073    1.000000    
    126 O2    c    0.376949 *  0.042778 *  0.198521 *   0.87073    1.000000    
    127 O3    c    0.762413 *  0.300196 *  0.010564 *   1.33043    1.000000    
    128 O2    c    0.696013 *  0.465544 *  0.347092 *   0.87073    1.000000    
    129 O2    c    0.532792 *  0.225948 *  0.678182 *   0.87073    1.000000    
    130 O2    c    0.230003 *  0.694944 *  0.513507 *   0.87073    1.000000    
    131 O3    c    0.310322 *  0.539162 *  0.848932 *   1.33043    1.000000    
    132 O2    c    0.470826 *  0.769734 *  0.180217 *   0.87073    1.000000    
    133 O2    c    0.306023 *  0.770632 *  0.325747 *   0.87073    1.000000    
    134 O2    c    0.476831 *  0.703415 *  0.992738 *   0.87073    1.000000    
    135 O2    c    0.228403 *  0.529141 *  0.659201 *   0.87073    1.000000    
    136 O2    c    0.701644 *  0.228238 *  0.823281 *   0.87073    1.000000    
    137 O2    c    0.533854 *  0.302228 *  0.492501 *   0.87073    1.000000    
    138 O2    c    0.778133 *  0.463689 *  0.158167 *   0.87073    1.000000    
    139 O2    c    0.794846 *  0.532880 *  0.031039 *   0.87073    1.000000    
    140 O2    c    0.465104 *  0.248916 *  0.364187 *   0.87073    1.000000    
    141 O2    c    0.748389 *  0.209215 *  0.694691 *   0.87073    1.000000    
    142 O2    c    0.216168 *  0.463420 *  0.531052 *   0.87073    1.000000    
    143 O2    c    0.539823 *  0.736991 *  0.867465 *   0.87073    1.000000    
    144 O2    c    0.252596 *  0.783142 *  0.197755 *   0.87073    1.000000    
    145 O2    c    0.537249 *  0.784606 *  0.308611 *   0.87073    1.000000    
    146 O2    c    0.266815 *  0.474809 *  0.974484 *   0.87073    1.000000    
    147 O2    c    0.214065 *  0.746749 *  0.641676 *   0.87073    1.000000    
    148 O2    c    0.471760 *  0.218325 *  0.806297 *   0.87073    1.000000    
    149 O2    c    0.749839 *  0.533702 *  0.475346 *   0.87073    1.000000    
    150 O2    c    0.795902 *  0.252519 *  0.141781 *   0.87073    1.000000    
    151 O3    c    0.232026 *  0.315809 *  0.904563 *   1.33043    1.000000    
    152 O2    c    0.678692 *  0.906667 *  0.234575 *   0.87073    1.000000    
    153 O2    c    0.090937 *  0.766077 *  0.567183 *   0.87073    1.000000    
    154 O2    c    0.767576 *  0.675764 *  0.401453 *   0.87073    1.000000    
    155 O2    c    0.325859 *  0.091470 *  0.733280 *   0.87073    1.000000    
    156 O3    c    0.917416 *  0.214146 *  0.071467 *   1.33043    1.000000    
    157 O2    c    0.324496 *  0.231404 *  0.438429 *   0.87073    1.000000    
    158 O2    c    0.911589 *  0.668474 *  0.105143 *   0.87073    1.000000    
    159 O2    c    0.771893 *  0.089906 *  0.769566 *   0.87073    1.000000    
    160 O2    c    0.682915 *  0.764954 *  0.940693 *   0.87073    1.000000    
    161 O2    c    0.091503 *  0.320939 *  0.604834 *   0.87073    1.000000    
    162 O2    c    0.235680 *  0.909895 *  0.271799 *   0.87073    1.000000    
    163 O3    c    0.605014 *  0.575237 *  0.001523 *   1.33043    1.000000    
    164 O2    c    0.443552 *  0.028620 *  0.327454 *   0.87073    1.000000    
    165 O2    c    0.970864 *  0.410302 *  0.659780 *   0.87073    1.000000    
    166 O2    c    0.413698 *  0.440732 *  0.493972 *   0.87073    1.000000    
    167 O2    c    0.566570 *  0.970372 *  0.825634 *   0.87073    1.000000    
    168 O2    c    0.030553 *  0.577942 *  0.157436 *   0.87073    1.000000    
    169 O2    c    0.558804 *  0.587243 *  0.345926 *   0.87073    1.000000    
    170 O3    c    0.050324 *  0.453120 *  0.007898 *   1.33043    1.000000    
    171 O2    c    0.411936 *  0.967166 *  0.678023 *   0.87073    1.000000    
    172 O3    c    0.458448 *  0.415113 *  0.846093 *   1.33043    1.000000    
    173 O2    c    0.971974 *  0.557317 *  0.511169 *   0.87073    1.000000    
    174 O2    c    0.590948 *  0.027734 *  0.178946 *   0.87073    1.000000    
    175 O2    c    0.583849 *  0.164548 *  0.253214 *   0.87073    1.000000    
    176 O2    c    0.835446 *  0.416367 *  0.584976 *   0.87073    1.000000    
    177 O3    c    0.602032 *  0.409619 *  0.917373 *   1.33043    1.000000    
    178 O2    c    0.418873 *  0.832281 *  0.752676 *   0.87073    1.000000    
    179 O2    c    0.170516 *  0.579596 *  0.085657 *   0.87073    1.000000    
    180 O2    c    0.417951 *  0.582809 *  0.420058 *   0.87073    1.000000    
    181 F     c    0.453630 *  0.903859 *  0.252658 *   0.56000    1.000000    
    182 F     c    0.095556 *  0.546195 *  0.585810 *   0.56000    1.000000    
    183 F     c    0.473282 *  0.520167 *  0.928350 *   0.56000    1.000000    
    184 F     c    0.548172 *  0.090943 *  0.751428 *   0.56000    1.000000    
    185 F     c    0.915143 *  0.424555 *  0.076500 *   0.56000    1.000000    
    186 F     c    0.548241 *  0.451336 *  0.419712 *   0.56000    1.000000    
    187 O2    s    0.932329 *  0.002318 *  0.004385 *  -2.87073    1.000000    
    188 O2    s    0.000830 *  0.924252 *  0.337200 *  -2.87073    1.000000    
    189 O2    s    0.075698 *  0.072572 *  0.668969 *  -2.87073    1.000000    
    190 O2    s    0.075485 *  0.999166 *  0.502622 *  -2.87073    1.000000    
    191 O2    s    0.004647 *  0.071528 *  0.837403 *  -2.87073    1.000000    
    192 O2    s    0.925070 *  0.916260 *  0.172120 *  -2.87073    1.000000    
    193 O2    s    0.354267 *  0.587118 *  0.336448 *  -2.87073    1.000000    
    194 O2    s    0.411840 *  0.761048 *  0.669621 *  -2.87073    1.000000    
    195 O2    s    0.247324 *  0.659732 *  0.003346 *  -2.87073    1.000000    
    196 O2    s    0.660588 *  0.415432 *  0.832319 *  -2.87073    1.000000    
    197 O2    s    0.591473 *  0.232180 *  0.169658 *  -2.87073    1.000000    
    198 O2    s    0.766728 *  0.351189 *  0.502022 *  -2.87073    1.000000    
    199 O3    s    0.585787 *  0.355671 *  0.006485 *  -3.33043    1.000000    
    200 O2    s    0.765050 *  0.409812 *  0.667421 *  -2.87073    1.000000    
    201 O2    s    0.647846 *  0.233291 *  0.336601 *  -2.87073    1.000000    
    202 O2    s    0.413710 *  0.646289 *  0.503597 *  -2.87073    1.000000    
    203 O2    s    0.241365 *  0.586279 *  0.169739 *  -2.87073    1.000000    
    204 O2    s    0.362725 *  0.772360 *  0.837005 *  -2.87073    1.000000    
    205 O2    s    0.115683 *  0.225737 *  0.977192 *  -2.87073    1.000000    
    206 O2    s    0.785416 *  0.904386 *  0.306427 *  -2.87073    1.000000    
    207 O2    s    0.094388 *  0.875554 *  0.639068 *  -2.87073    1.000000    
    208 O2    s    0.878434 *  0.782818 *  0.473012 *  -2.87073    1.000000    
    209 O2    s    0.223903 *  0.098457 *  0.805950 *  -2.87073    1.000000    
    210 O2    s    0.910372 *  0.117494 *  0.145955 *  -2.87073    1.000000    
    211 O2    s    0.217306 *  0.121784 *  0.366605 *  -2.87073    1.000000    
    212 O2    s    0.907841 *  0.784184 *  0.034380 *  -2.87073    1.000000    
    213 O2    s    0.877226 *  0.089829 *  0.697710 *  -2.87073    1.000000    
    214 O2    s    0.789211 *  0.877836 *  0.868264 *  -2.87073    1.000000    
    215 O2    s    0.096043 *  0.215973 *  0.532557 *  -2.87073    1.000000    
    216 O2    s    0.125752 *  0.903728 *  0.200468 *  -2.87073    1.000000    
    217 O2    s    0.933696 *  0.854230 *  0.254686 *  -2.87073    1.000000    
    218 O2    s    0.141058 *  0.068447 *  0.585714 *  -2.87073    1.000000    
    219 O2    s    0.931985 *  0.073125 *  0.920418 *  -2.87073    1.000000    
    220 O2    s    0.065550 *  0.131774 *  0.752518 *  -2.87073    1.000000    
    221 O2    s    0.872816 *  0.935634 *  0.089039 *  -2.87073    1.000000    
    222 O2    s    0.071368 *  0.929063 *  0.419763 *  -2.87073    1.000000    
    223 O3    s    0.900663 *  0.196642 *  0.986653 *  -3.33043    1.000000    
    224 O2    s    0.795160 *  0.702656 *  0.319493 *  -2.87073    1.000000    
    225 O2    s    0.295726 *  0.087495 *  0.651013 *  -2.87073    1.000000    
    226 O2    s    0.090764 *  0.793258 *  0.484961 *  -2.87073    1.000000    
    227 O3    s    0.200331 *  0.289435 *  0.816007 *  -3.33043    1.000000    
    228 O2    s    0.707643 *  0.906703 *  0.152373 *  -2.87073    1.000000    
    229 O2    s    0.207381 *  0.909777 *  0.354252 *  -2.87073    1.000000    
    230 O2    s    0.714065 *  0.812098 *  0.023719 *  -2.87073    1.000000    
    231 O2    s    0.088956 *  0.291880 *  0.687614 *  -2.87073    1.000000    
    232 O2    s    0.801778 *  0.091162 *  0.852662 *  -2.87073    1.000000    
    233 O2    s    0.296672 *  0.203714 *  0.520559 *  -2.87073    1.000000    
    234 O2    s    0.917006 *  0.699160 *  0.189011 *  -2.87073    1.000000    
    235 O2    s    0.332578 *  0.656693 *  0.253098 *  -2.87073    1.000000    
    236 O2    s    0.342497 *  0.668494 *  0.586601 *  -2.87073    1.000000    
    237 O2    s    0.340949 *  0.675065 *  0.920371 *  -2.87073    1.000000    
    238 O2    s    0.674635 *  0.340083 *  0.749958 *  -2.87073    1.000000    
    239 O2    s    0.666359 *  0.326837 *  0.087124 *  -2.87073    1.000000    
    240 O2    s    0.671121 *  0.326897 *  0.419608 *  -2.87073    1.000000    
    241 O3    s    0.362714 *  0.327677 *  0.975416 *  -3.33043    1.000000    
    242 O2    s    0.661305 *  0.035894 *  0.304994 *  -2.87073    1.000000    
    243 O2    s    0.962690 *  0.620932 *  0.637393 *  -2.87073    1.000000    
    244 O2    s    0.623459 *  0.659540 *  0.471969 *  -2.87073    1.000000    
    245 O2    s    0.347062 *  0.966592 *  0.804355 *  -2.87073    1.000000    
    246 O2    s    0.047539 *  0.374893 *  0.138172 *  -2.87073    1.000000    
    247 O2    s    0.340691 *  0.376863 *  0.368070 *  -2.87073    1.000000    
    248 O2    s    0.042559 *  0.662066 *  0.035528 *  -2.87073    1.000000    
    249 O2    s    0.622678 *  0.958012 *  0.700092 *  -2.87073    1.000000    
    250 O2    s    0.673467 *  0.623273 *  0.870928 *  -2.87073    1.000000    
    251 O2    s    0.964539 *  0.339110 *  0.533710 *  -2.87073    1.000000    
    252 O2    s    0.380258 *  0.036014 *  0.200878 *  -2.87073    1.000000    
    253 O3    s    0.767065 *  0.309079 *  0.014288 *  -3.33043    1.000000    
    254 O2    s    0.688413 *  0.464997 *  0.350240 *  -2.87073    1.000000    
    255 O2    s    0.533577 *  0.219038 *  0.681324 *  -2.87073    1.000000    
    256 O2    s    0.222934 *  0.687266 *  0.516621 *  -2.87073    1.000000    
    257 O3    s    0.318062 *  0.542236 *  0.851555 *  -3.33043    1.000000    
    258 O2    s    0.470293 *  0.776738 *  0.183360 *  -2.87073    1.000000    
    259 O2    s    0.313666 *  0.777739 *  0.322674 *  -2.87073    1.000000    
    260 O2    s    0.475860 *  0.695976 *  0.990163 *  -2.87073    1.000000    
    261 O2    s    0.221436 *  0.529735 *  0.656090 *  -2.87073    1.000000    
    262 O2    s    0.694373 *  0.221239 *  0.820206 *  -2.87073    1.000000    
    263 O2    s    0.534325 *  0.309833 *  0.489375 *  -2.87073    1.000000    
    264 O2    s    0.785009 *  0.463532 *  0.155360 *  -2.87073    1.000000    
    265 O2    s    0.799543 *  0.532288 *  0.033486 *  -2.87073    1.000000    
    266 O2    s    0.467800 *  0.256815 *  0.366821 *  -2.87073    1.000000    
    267 O2    s    0.740835 *  0.204440 *  0.697403 *  -2.87073    1.000000    
    268 O2    s    0.210936 *  0.466233 *  0.533637 *  -2.87073    1.000000    
    269 O2    s    0.537684 *  0.732166 *  0.869670 *  -2.87073    1.000000    
    270 O2    s    0.260884 *  0.788555 *  0.200351 *  -2.87073    1.000000    
    271 O2    s    0.534550 *  0.789746 *  0.305992 *  -2.87073    1.000000    
    272 O2    s    0.272538 *  0.477702 *  0.972655 *  -2.87073    1.000000    
    273 O2    s    0.208930 *  0.738824 *  0.639040 *  -2.87073    1.000000    
    274 O2    s    0.474066 *  0.212727 *  0.803769 *  -2.87073    1.000000    
    275 O2    s    0.742044 *  0.531168 *  0.472716 *  -2.87073    1.000000    
    276 O2    s    0.799377 *  0.258844 *  0.139443 *  -2.87073    1.000000    
    277 O3    s    0.240152 *  0.324248 *  0.905582 *  -3.33043    1.000000    
    278 O2    s    0.669219 *  0.906568 *  0.235454 *  -2.87073    1.000000    
    279 O2    s    0.091235 *  0.756606 *  0.568072 *  -2.87073    1.000000    
    280 O2    s    0.758256 *  0.666132 *  0.402365 *  -2.87073    1.000000    
    281 O2    s    0.335542 *  0.091697 *  0.734167 *  -2.87073    1.000000    
    282 O3    s    0.917243 *  0.224093 *  0.074031 *  -3.33043    1.000000    
    283 O2    s    0.334029 *  0.240749 *  0.437520 *  -2.87073    1.000000    
    284 O2    s    0.911653 *  0.660188 *  0.104498 *  -2.87073    1.000000    
    285 O2    s    0.762424 *  0.089924 *  0.768742 *  -2.87073    1.000000    
    286 O2    s    0.674796 *  0.757360 *  0.939668 *  -2.87073    1.000000    
    287 O2    s    0.091740 *  0.330572 *  0.603972 *  -2.87073    1.000000    
    288 O2    s    0.245097 *  0.909428 *  0.270970 *  -2.87073    1.000000    
    289 O3    s    0.600690 *  0.579943 *  0.997937 *  -3.33043    1.000000    
    290 O2    s    0.443190 *  0.023712 *  0.324070 *  -2.87073    1.000000    
    291 O2    s    0.975792 *  0.414819 *  0.656416 *  -2.87073    1.000000    
    292 O2    s    0.418267 *  0.440413 *  0.490611 *  -2.87073    1.000000    
    293 O2    s    0.566510 *  0.975579 *  0.822308 *  -2.87073    1.000000    
    294 O2    s    0.026680 *  0.574731 *  0.154655 *  -2.87073    1.000000    
    295 O2    s    0.559139 *  0.582505 *  0.349326 *  -2.87073    1.000000    
    296 O3    s    0.047488 *  0.456934 *  0.011952 *  -3.33043    1.000000    
    297 O2    s    0.416794 *  0.972241 *  0.681414 *  -2.87073    1.000000    
    298 O3    s    0.458471 *  0.418265 *  0.849070 *  -3.33043    1.000000    
    299 O2    s    0.976824 *  0.557509 *  0.514607 *  -2.87073    1.000000    
    300 O2    s    0.586275 *  0.022772 *  0.182310 *  -2.87073    1.000000    
    301 O2    s    0.578539 *  0.153521 *  0.253207 *  -2.87073    1.000000    
    302 O2    s    0.846469 *  0.421786 *  0.584998 *  -2.87073    1.000000    
    303 O3    s    0.597001 *  0.416991 *  0.915651 *  -3.33043    1.000000    
    304 O2    s    0.424726 *  0.843666 *  0.752624 *  -2.87073    1.000000    
    305 O2    s    0.160662 *  0.574763 *  0.085955 *  -2.87073    1.000000    
    306 O2    s    0.423459 *  0.577240 *  0.420052 *  -2.87073    1.000000    
    307 F     s    0.453290 *  0.903504 *  0.252606 *  -1.56000    1.000000    
    308 F     s    0.095881 *  0.546424 *  0.585793 *  -1.56000    1.000000    
    309 F     s    0.476444 *  0.514241 *  0.930477 *  -1.56000    1.000000    
    310 F     s    0.548037 *  0.090883 *  0.751427 *  -1.56000    1.000000    
    311 F     s    0.915215 *  0.418110 *  0.073722 *  -1.56000    1.000000    
    312 F     s    0.548451 *  0.451143 *  0.419688 *  -1.56000    1.000000    
--------------------------------------------------------------------------------



********************************************************************************
*  General input information                                                   *
********************************************************************************

  Species output for all configurations : 

--------------------------------------------------------------------------------
  Species    Type    Atomic    Atomic    Charge       Radii (Angs)     Library
                     Number     Mass       (e)     Cova   Ionic  VDW   Symbol
--------------------------------------------------------------------------------
    Si       Core       14      28.09   4.000000   1.200  0.000  2.100          
    O1       Core        8      16.00   1.733957   0.730  0.000  1.360          
    O1       Shell       8       0.00  -3.733957   0.730  0.000  1.360          
    O2       Core        8      16.00   0.870733   0.730  0.000  1.360          
    O2       Shell       8       0.00  -2.870733   0.730  0.000  1.360          
    O3       Core        8      16.00   1.330431   0.730  0.000  1.360          
    O3       Shell       8       0.00  -3.330431   0.730  0.000  1.360          
    F        Core        9      19.00   0.560000   0.710  0.000  1.300          
    F        Shell       9       0.00  -1.560000   0.710  0.000  1.300          
    Ge       Core       32      72.61   4.000000   1.170  0.000  1.750          
--------------------------------------------------------------------------------


  Lattice summation method               =    Ewald          (3-D)
                                         =    Parry          (2-D)
                                         =    Saunders et al (1-D)
  Accuracy factor for lattice sums       =   12.000


  Time limit = Infinity

  Maximum range for interatomic potentials =        16.000000 Angstroms

  Taper potentials to zero over   1.0000 Angstroms using polynomial

  General interatomic potentials :

--------------------------------------------------------------------------------
Atom  Types   Potential         A         B         C         D     Cutoffs(Ang)
  1     2                                                            Min    Max 
--------------------------------------------------------------------------------
Si   c O1   s Buckingham    0.132E+04 0.318      10.1      0.00     0.000 16.000
Si   c O2   s Buckingham    0.132E+04 0.318      10.1      0.00     0.000 16.000
Si   c O3   s Buckingham    0.132E+04 0.318      10.1      0.00     0.000 16.000
Ge   c O1   s Buckingham    0.150E+04 0.326      16.8      0.00     0.000 16.000
Ge   c O2   s Buckingham    0.150E+04 0.326      16.8      0.00     0.000 16.000
Ge   c O3   s Buckingham    0.150E+04 0.326      16.8      0.00     0.000 16.000
O1   s O1   s Buckingham    0.228E+05 0.149      10.9      0.00     0.000 16.000
O1   s O2   s Buckingham    0.228E+05 0.149      10.9      0.00     0.000 16.000
O1   s O3   s Buckingham    0.228E+05 0.149      10.9      0.00     0.000 16.000
O2   s O2   s Buckingham    0.228E+05 0.149      10.9      0.00     0.000 16.000
O2   s O3   s Buckingham    0.228E+05 0.149      10.9      0.00     0.000 16.000
O3   s O3   s Buckingham    0.228E+05 0.149      10.9      0.00     0.000 16.000
Si   c F    s Buckingham     977.     0.282      0.00      0.00     0.000 16.000
Ge   c F    s Buckingham     681.     0.320      0.00      0.00     0.000 16.000
F    s F    s Buckingham     540.     0.262      0.00      0.00     0.000 16.000
O1   s F    s Buckingham    0.168E+04 0.268      0.00      0.00     0.000 16.000
O2   s F    s Buckingham    0.168E+04 0.268      0.00      0.00     0.000 16.000
O3   s F    s Buckingham    0.168E+04 0.268      0.00      0.00     0.000 16.000
O2   c O2   s Spring (c-s)   76.0      0.00      0.00      0.00     0.000  0.800
O3   c O3   s Spring (c-s)   128.      0.00      0.00      0.00     0.000  0.800
O1   c O1   s Spring (c-s)   180.      0.00      0.00      0.00     0.000  0.800
F    c F    s Spring (c-s)   33.5      0.00      0.00      0.00     0.000  0.800
--------------------------------------------------------------------------------

  General Three-body potentials :

  Harmonic form:

--------------------------------------------------------------------------------
Atom    Atom    Atom           Force Constants            Theta     Cutoffs  
  1       2       3     (eVrad**-2/eVrad**-3/eVrad**-4)   (deg)  1-2  1-3  2-3
--------------------------------------------------------------------------------
Si    c O1    s O1    s  1.261        0.0000    0.0000   109.470 0.00 0.00 0.00
                                                                 1.90 1.90 3.50
Si    c O1    s O2    s  1.261        0.0000    0.0000   109.470 0.00 0.00 0.00
                                                                 1.90 1.90 3.50
Si    c O2    s O2    s  1.261        0.0000    0.0000   109.470 0.00 0.00 0.00
                                                                 1.90 1.90 3.50
--------------------------------------------------------------------------------

********************************************************************************
*  Output for configuration   1                                                *
********************************************************************************


  Components of energy : 

--------------------------------------------------------------------------------
  Interatomic potentials     =        2064.39351440 eV
  Three-body potentials      =           0.45504134 eV
  Monopole - monopole (real) =       -6613.10579488 eV
  Monopole - monopole (recip)=       -3171.90582651 eV
  Monopole - monopole (total)=       -9785.01162139 eV
  Neutralising energy        =          -6.46117827 eV
--------------------------------------------------------------------------------
  Total lattice energy       =       -7726.62424392 eV
--------------------------------------------------------------------------------
  Total lattice energy       =         -745501.1273 kJ/(mole unit cells)
--------------------------------------------------------------------------------


  Number of variables =      939

  Maximum number of calculations  =          1000
  Maximum Hessian update interval =            10
  Maximum step size               =   1.000000000
  Maximum parameter tolerance     =   0.000010000
  Maximum function  tolerance     =   0.000010000
  Maximum gradient  tolerance     =   0.001000000
  Maximum gradient  component     =   0.010000000

  Symmetry not applied to optimisation

  Cell parameters to be optimised using strains

  Newton-Raphson optimiser to be used

  BFGS hessian update to be used

  Dumpfile to be written after every cycle

  Start of bulk optimisation :

  Cycle:      0 Energy:     -7726.624244  Gnorm:      0.005733  CPU:    1.063
  ** Hessian calculated **
  Cycle:      1 Energy:     -7726.711057  Gnorm:      0.005769  CPU:    3.311
  Cycle:      2 Energy:     -7726.712075  Gnorm:      0.000695  CPU:    4.698
  Cycle:      3 Energy:     -7726.712150  Gnorm:      0.000246  CPU:    6.086
  Cycle:      4 Energy:     -7726.712152  Gnorm:      0.000043  CPU:    7.473


  **** Optimisation achieved ****


  Final energy =   -7726.71215180 eV
  Final Gnorm  =       0.00000711

  Components of energy : 

--------------------------------------------------------------------------------
  Interatomic potentials     =        2065.28679028 eV
  Three-body potentials      =           0.46370196 eV
  Monopole - monopole (real) =       -6612.02473859 eV
  Monopole - monopole (recip)=       -3173.97251581 eV
  Monopole - monopole (total)=       -9785.99725441 eV
  Neutralising energy        =          -6.46538963 eV
--------------------------------------------------------------------------------
  Total lattice energy       =       -7726.71215180 eV
--------------------------------------------------------------------------------
  Total lattice energy       =         -745509.6090 kJ/(mole unit cells)
--------------------------------------------------------------------------------

  Final fractional coordinates of atoms :

--------------------------------------------------------------------------------
   No.  Atomic        x           y          z          Radius
        Label       (Frac)      (Frac)     (Frac)       (Angs) 
--------------------------------------------------------------------------------
     1  Si    c     0.699600    0.375700    0.033890    0.000000
     2  Si    c     0.638997    0.320619    0.369843    0.000000
     3  Si    c     0.697176    0.297619    0.700704    0.000000
     4  Si    c     0.317236    0.618445    0.536668    0.000000
     5  Si    c     0.404834    0.688716    0.869443    0.000000
     6  Si    c     0.343572    0.701068    0.202059    0.000000
     7  Si    c     0.398359    0.699875    0.303084    0.000000
     8  Si    c     0.348175    0.638584    0.971939    0.000000
     9  Si    c     0.316645    0.673597    0.637646    0.000000
    10  Si    c     0.648542    0.304501    0.801739    0.000000
    11  Si    c     0.695021    0.376638    0.470651    0.000000
    12  Si    c     0.717503    0.320418    0.136808    0.000000
    13  Ge    c     0.538855    0.439374    0.968049    0.000000
    14  Si    c     0.601195    0.109915    0.304637    0.000000
    15  Si    c     0.907948    0.469357    0.636872    0.000000
    16  Si    c     0.489286    0.581080    0.471172    0.000000
    17  Si    c     0.445496    0.898477    0.803514    0.000000
    18  Si    c     0.134146    0.529161    0.135453    0.000000
    19  Si    c     0.435897    0.528307    0.369063    0.000000
    20  Si    c     0.131262    0.588708    0.032558    0.000000
    21  Si    c     0.490202    0.887019    0.702002    0.000000
    22  Si    c     0.616796    0.473497    0.869781    0.000000
    23  Si    c     0.907128    0.415354    0.535065    0.000000
    24  Si    c     0.549142    0.111241    0.202617    0.000000
    25  Ge    c     0.325966    0.401872    0.856343    0.000000
    26  Si    c     0.621004    0.901535    0.187847    0.000000
    27  Si    c     0.115629    0.695222    0.521503    0.000000
    28  Si    c     0.715842    0.598664    0.355428    0.000000
    29  Si    c     0.419248    0.097246    0.687548    0.000000
    30  Ge    c     0.913342    0.317242    0.027290    0.000000
    31  Si    c     0.417598    0.300021    0.485473    0.000000
    32  Si    c     0.920817    0.601010    0.151311    0.000000
    33  Si    c     0.726260    0.102569    0.817304    0.000000
    34  Si    c     0.628597    0.716984    0.990537    0.000000
    35  Si    c     0.115784    0.395911    0.652367    0.000000
    36  Si    c     0.321583    0.902012    0.318701    0.000000
    37  Si    c     0.259208    0.343370    0.959423    0.000000
    38  Si    c     0.678667    0.907927    0.288912    0.000000
    39  Si    c     0.108511    0.747158    0.622364    0.000000
    40  Si    c     0.767683    0.658269    0.456330    0.000000
    41  Si    c     0.365909    0.098332    0.788509    0.000000
    42  Si    c     0.931049    0.246032    0.122894    0.000000
    43  Si    c     0.358699    0.249303    0.384412    0.000000
    44  Si    c     0.921939    0.660526    0.049300    0.000000
    45  Si    c     0.768888    0.087864    0.716002    0.000000
    46  Si    c     0.689171    0.754843    0.887298    0.000000
    47  Si    c     0.108734    0.338357    0.551220    0.000000
    48  Si    c     0.271924    0.910448    0.217818    0.000000
    49  Si    c     0.977015    0.131796    0.974103    0.000000
    50  Si    c     0.896923    0.845765    0.305300    0.000000
    51  Si    c     0.170504    0.027486    0.637134    0.000000
    52  Si    c     0.047784    0.875681    0.470886    0.000000
    53  Si    c     0.141020    0.152889    0.804095    0.000000
    54  Si    c     0.871528    0.972440    0.140436    0.000000
    55  Si    c     0.141187    0.969359    0.369957    0.000000
    56  Si    c     0.875149    0.892809    0.038324    0.000000
    57  Si    c     0.046839    0.147260    0.702702    0.000000
    58  Si    c     0.904131    0.035519    0.871404    0.000000
    59  Si    c     0.170621    0.120071    0.535948    0.000000
    60  Si    c     0.992278    0.847590    0.204480    0.000000
    61  O2    c     0.955884    0.010813    0.005244    0.000000
    62  O2    c     0.017338    0.926886    0.338349    0.000000
    63  O2    c     0.090980    0.069319    0.669906    0.000000
    64  O2    c     0.090030    0.997935    0.503466    0.000000
    65  O2    c     0.025875    0.072128    0.839160    0.000000
    66  O2    c     0.947463    0.927945    0.173889    0.000000
    67  O2    c     0.359946    0.577213    0.336021    0.000000
    68  O2    c     0.439689    0.759033    0.670439    0.000000
    69  O2    c     0.261378    0.677775    0.003079    0.000000
    70  O2    c     0.691451    0.430769    0.833260    0.000000
    71  O2    c     0.597541    0.237106    0.170590    0.000000
    72  O2    c     0.781170    0.338244    0.502821    0.000000
    73  O3    c     0.576658    0.349140    0.007104    0.000000
    74  O2    c     0.781114    0.420347    0.668212    0.000000
    75  O2    c     0.677718    0.235433    0.337233    0.000000
    76  O2    c     0.439946    0.657237    0.503942    0.000000
    77  O2    c     0.258987    0.579758    0.168375    0.000000
    78  O2    c     0.370788    0.776949    0.837411    0.000000
    79  O2    c     0.128052    0.234592    0.981358    0.000000
    80  O2    c     0.805419    0.909029    0.309238    0.000000
    81  O2    c     0.108079    0.873499    0.642561    0.000000
    82  O2    c     0.893932    0.785143    0.476140    0.000000
    83  O2    c     0.241983    0.099825    0.809687    0.000000
    84  O2    c     0.930026    0.124926    0.148975    0.000000
    85  O2    c     0.231847    0.123354    0.364432    0.000000
    86  O2    c     0.922815    0.788370    0.030735    0.000000
    87  O2    c     0.893578    0.085670    0.695461    0.000000
    88  O2    c     0.811190    0.881057    0.866390    0.000000
    89  O2    c     0.107892    0.211741    0.530638    0.000000
    90  O2    c     0.145436    0.910781    0.197951    0.000000
    91  O2    c     0.953846    0.856384    0.255592    0.000000
    92  O2    c     0.157095    0.067049    0.586505    0.000000
    93  O2    c     0.951738    0.077101    0.922250    0.000000
    94  O2    c     0.081163    0.128601    0.753690    0.000000
    95  O2    c     0.896887    0.939781    0.090176    0.000000
    96  O2    c     0.089239    0.929424    0.420551    0.000000
    97  O3    c     0.897428    0.198488    0.985489    0.000000
    98  O2    c     0.814275    0.694553    0.317241    0.000000
    99  O2    c     0.321809    0.097371    0.649047    0.000000
   100  O2    c     0.117045    0.793011    0.482919    0.000000
   101  O3    c     0.218519    0.303068    0.814144    0.000000
   102  O2    c     0.718136    0.899576    0.149703    0.000000
   103  O2    c     0.223308    0.899822    0.357212    0.000000
   104  O2    c     0.722916    0.825265    0.027055    0.000000
   105  O2    c     0.116864    0.299585    0.691220    0.000000
   106  O2    c     0.825063    0.106231    0.855719    0.000000
   107  O2    c     0.321677    0.201747    0.523770    0.000000
   108  O2    c     0.923080    0.696659    0.190752    0.000000
   109  O2    c     0.342812    0.642606    0.252332    0.000000
   110  O2    c     0.374165    0.674154    0.587324    0.000000
   111  O2    c     0.352351    0.688344    0.920336    0.000000
   112  O2    c     0.701490    0.357393    0.750895    0.000000
   113  O2    c     0.662750    0.323723    0.087039    0.000000
   114  O2    c     0.695597    0.319501    0.420249    0.000000
   115  O3    c     0.373808    0.325133    0.977407    0.000000
   116  O2    c     0.688436    0.040522    0.307458    0.000000
   117  O2    c     0.976359    0.625506    0.640484    0.000000
   118  O2    c     0.645146    0.668529    0.474496    0.000000
   119  O2    c     0.358002    0.967067    0.807284    0.000000
   120  O2    c     0.064418    0.373673    0.138973    0.000000
   121  O2    c     0.348660    0.372050    0.366100    0.000000
   122  O2    c     0.055713    0.670925    0.032620    0.000000
   123  O2    c     0.645938    0.954474    0.698636    0.000000
   124  O2    c     0.699612    0.631844    0.869914    0.000000
   125  O2    c     0.976542    0.328030    0.532362    0.000000
   126  O2    c     0.393175    0.042082    0.199194    0.000000
   127  O3    c     0.764437    0.300422    0.010826    0.000000
   128  O2    c     0.714388    0.463668    0.347563    0.000000
   129  O2    c     0.553089    0.229631    0.679029    0.000000
   130  O2    c     0.249053    0.694010    0.514283    0.000000
   131  O3    c     0.329530    0.547151    0.848669    0.000000
   132  O2    c     0.486315    0.768996    0.179766    0.000000
   133  O2    c     0.322619    0.767952    0.325433    0.000000
   134  O2    c     0.491926    0.714974    0.993055    0.000000
   135  O2    c     0.248932    0.530461    0.660066    0.000000
   136  O2    c     0.723233    0.235495    0.824120    0.000000
   137  O2    c     0.552424    0.301387    0.493092    0.000000
   138  O2    c     0.790565    0.465528    0.158040    0.000000
   139  O2    c     0.799607    0.532937    0.030599    0.000000
   140  O2    c     0.483290    0.247231    0.364665    0.000000
   141  O2    c     0.768669    0.212895    0.695537    0.000000
   142  O2    c     0.235208    0.462526    0.531790    0.000000
   143  O2    c     0.558373    0.745011    0.868212    0.000000
   144  O2    c     0.268257    0.782444    0.197981    0.000000
   145  O2    c     0.553916    0.781695    0.308222    0.000000
   146  O2    c     0.282774    0.484691    0.975280    0.000000
   147  O2    c     0.234646    0.748044    0.642286    0.000000
   148  O2    c     0.492703    0.225141    0.807053    0.000000
   149  O2    c     0.768708    0.532748    0.475964    0.000000
   150  O2    c     0.806151    0.253701    0.140578    0.000000
   151  O3    c     0.243652    0.325375    0.904626    0.000000
   152  O2    c     0.695096    0.904952    0.234501    0.000000
   153  O2    c     0.110421    0.766001    0.567885    0.000000
   154  O2    c     0.786196    0.674194    0.401885    0.000000
   155  O2    c     0.346337    0.096880    0.733980    0.000000
   156  O3    c     0.925537    0.215963    0.070377    0.000000
   157  O2    c     0.342746    0.230212    0.438855    0.000000
   158  O2    c     0.920379    0.668857    0.104248    0.000000
   159  O2    c     0.792797    0.095291    0.770326    0.000000
   160  O2    c     0.699419    0.771949    0.941673    0.000000
   161  O2    c     0.111285    0.321096    0.605721    0.000000
   162  O2    c     0.252505    0.908933    0.272235    0.000000
   163  O3    c     0.615465    0.582762    0.002350    0.000000
   164  O2    c     0.460891    0.026310    0.327926    0.000000
   165  O2    c     0.990950    0.411372    0.660712    0.000000
   166  O2    c     0.432021    0.439968    0.494238    0.000000
   167  O2    c     0.587544    0.977346    0.826354    0.000000
   168  O2    c     0.043739    0.581800    0.156263    0.000000
   169  O2    c     0.576864    0.585287    0.346234    0.000000
   170  O3    c     0.056189    0.454186    0.006693    0.000000
   171  O2    c     0.432053    0.970553    0.678817    0.000000
   172  O3    c     0.474710    0.419709    0.847196    0.000000
   173  O2    c     0.990953    0.556180    0.512010    0.000000
   174  O2    c     0.607280    0.027686    0.179353    0.000000
   175  O2    c     0.600805    0.163490    0.253841    0.000000
   176  O2    c     0.854828    0.416395    0.585899    0.000000
   177  O3    c     0.616865    0.417684    0.918741    0.000000
   178  O2    c     0.439540    0.837487    0.753349    0.000000
   179  O2    c     0.180275    0.580555    0.084210    0.000000
   180  O2    c     0.436119    0.581666    0.420140    0.000000
   181  F     c     0.470690    0.901850    0.252882    0.000000
   182  F     c     0.115265    0.545884    0.586783    0.000000
   183  F     c     0.487197    0.529099    0.928160    0.000000
   184  F     c     0.569167    0.096647    0.752301    0.000000
   185  F     c     0.922409    0.426186    0.075805    0.000000
   186  F     c     0.567020    0.449964    0.420229    0.000000
   187  O2    s     0.948756    0.009689    0.005830    0.000000
   188  O2    s     0.017721    0.922562    0.338185    0.000000
   189  O2    s     0.094983    0.073378    0.669900    0.000000
   190  O2    s     0.094328    0.997912    0.503452    0.000000
   191  O2    s     0.025198    0.076927    0.838836    0.000000
   192  O2    s     0.944039    0.923651    0.173642    0.000000
   193  O2    s     0.371684    0.584751    0.336030    0.000000
   194  O2    s     0.432254    0.763423    0.670312    0.000000
   195  O2    s     0.257671    0.665039    0.002730    0.000000
   196  O2    s     0.679602    0.421898    0.833603    0.000000
   197  O2    s     0.604864    0.232665    0.170429    0.000000
   198  O2    s     0.785309    0.350156    0.502831    0.000000
   199  O3    s     0.588133    0.358357    0.007471    0.000000
   200  O2    s     0.785527    0.412680    0.668347    0.000000
   201  O2    s     0.665812    0.231236    0.337234    0.000000
   202  O2    s     0.432410    0.645409    0.503944    0.000000
   203  O2    s     0.254763    0.586996    0.168435    0.000000
   204  O2    s     0.382181    0.780062    0.837345    0.000000
   205  O2    s     0.126853    0.235959    0.978193    0.000000
   206  O2    s     0.802055    0.902159    0.306740    0.000000
   207  O2    s     0.114767    0.876754    0.639910    0.000000
   208  O2    s     0.897153    0.781623    0.473571    0.000000
   209  O2    s     0.244668    0.105086    0.806932    0.000000
   210  O2    s     0.923904    0.120814    0.145523    0.000000
   211  O2    s     0.235316    0.120025    0.367047    0.000000
   212  O2    s     0.917759    0.785700    0.033453    0.000000
   213  O2    s     0.896906    0.092401    0.698317    0.000000
   214  O2    s     0.807980    0.883826    0.869100    0.000000
   215  O2    s     0.114694    0.215089    0.533317    0.000000
   216  O2    s     0.142132    0.903976    0.200679    0.000000
   217  O2    s     0.951749    0.854159    0.255394    0.000000
   218  O2    s     0.160158    0.068581    0.586510    0.000000
   219  O2    s     0.948793    0.077879    0.921674    0.000000
   220  O2    s     0.083875    0.133342    0.753491    0.000000
   221  O2    s     0.891567    0.938188    0.090053    0.000000
   222  O2    s     0.090426    0.927855    0.420521    0.000000
   223  O3    s     0.907556    0.198343    0.986802    0.000000
   224  O2    s     0.812987    0.700854    0.319886    0.000000
   225  O2    s     0.315658    0.089887    0.651736    0.000000
   226  O2    s     0.109503    0.791799    0.485592    0.000000
   227  O3    s     0.218585    0.294996    0.816253    0.000000
   228  O2    s     0.724162    0.907328    0.152624    0.000000
   229  O2    s     0.224641    0.907423    0.354630    0.000000
   230  O2    s     0.729062    0.821234    0.024493    0.000000
   231  O2    s     0.109458    0.293450    0.688489    0.000000
   232  O2    s     0.823039    0.098417    0.853326    0.000000
   233  O2    s     0.315497    0.203141    0.521147    0.000000
   234  O2    s     0.930146    0.702462    0.188029    0.000000
   235  O2    s     0.348501    0.654297    0.252373    0.000000
   236  O2    s     0.362493    0.668407    0.587286    0.000000
   237  O2    s     0.357365    0.683266    0.920423    0.000000
   238  O2    s     0.695556    0.345703    0.750942    0.000000
   239  O2    s     0.672111    0.328181    0.087531    0.000000
   240  O2    s     0.689721    0.325474    0.420243    0.000000
   241  O3    s     0.373198    0.335015    0.974793    0.000000
   242  O2    s     0.678397    0.033781    0.305212    0.000000
   243  O2    s     0.983162    0.622162    0.638205    0.000000
   244  O2    s     0.641958    0.658503    0.472251    0.000000
   245  O2    s     0.367990    0.973676    0.804901    0.000000
   246  O2    s     0.058431    0.377261    0.136984    0.000000
   247  O2    s     0.358663    0.375261    0.368329    0.000000
   248  O2    s     0.049389    0.661537    0.034362    0.000000
   249  O2    s     0.642801    0.961489    0.700807    0.000000
   250  O2    s     0.690476    0.629492    0.871760    0.000000
   251  O2    s     0.983243    0.338134    0.534629    0.000000
   252  O2    s     0.396432    0.035336    0.201513    0.000000
   253  O3    s     0.769126    0.309159    0.014381    0.000000
   254  O2    s     0.706775    0.463188    0.350719    0.000000
   255  O2    s     0.553850    0.222706    0.682189    0.000000
   256  O2    s     0.241984    0.686356    0.517385    0.000000
   257  O3    s     0.336964    0.550032    0.851414    0.000000
   258  O2    s     0.485737    0.775904    0.182945    0.000000
   259  O2    s     0.330297    0.775075    0.322389    0.000000
   260  O2    s     0.490803    0.707159    0.990549    0.000000
   261  O2    s     0.241955    0.531045    0.656941    0.000000
   262  O2    s     0.715832    0.228486    0.821050    0.000000
   263  O2    s     0.552913    0.308970    0.489958    0.000000
   264  O2    s     0.797131    0.465329    0.155146    0.000000
   265  O2    s     0.804275    0.532644    0.033000    0.000000
   266  O2    s     0.485976    0.255170    0.367308    0.000000
   267  O2    s     0.761116    0.208102    0.698260    0.000000
   268  O2    s     0.230004    0.465402    0.534380    0.000000
   269  O2    s     0.556163    0.740010    0.870396    0.000000
   270  O2    s     0.276565    0.787833    0.200527    0.000000
   271  O2    s     0.551176    0.786902    0.305625    0.000000
   272  O2    s     0.287827    0.487442    0.973324    0.000000
   273  O2    s     0.229464    0.740059    0.639669    0.000000
   274  O2    s     0.495051    0.219553    0.804541    0.000000
   275  O2    s     0.760861    0.530138    0.473323    0.000000
   276  O2    s     0.809589    0.260140    0.138367    0.000000
   277  O3    s     0.252007    0.333411    0.905703    0.000000
   278  O2    s     0.685605    0.904910    0.235430    0.000000
   279  O2    s     0.110758    0.756578    0.568792    0.000000
   280  O2    s     0.776829    0.664567    0.402798    0.000000
   281  O2    s     0.355995    0.097065    0.734888    0.000000
   282  O3    s     0.925394    0.225690    0.073181    0.000000
   283  O2    s     0.352299    0.239572    0.437967    0.000000
   284  O2    s     0.920592    0.660662    0.103621    0.000000
   285  O2    s     0.783291    0.095285    0.769481    0.000000
   286  O2    s     0.691280    0.764611    0.940620    0.000000
   287  O2    s     0.111491    0.330744    0.604857    0.000000
   288  O2    s     0.261851    0.908377    0.271354    0.000000
   289  O3    s     0.611542    0.587669    0.998726    0.000000
   290  O2    s     0.460481    0.021441    0.324505    0.000000
   291  O2    s     0.995920    0.415908    0.657339    0.000000
   292  O2    s     0.436613    0.439588    0.490880    0.000000
   293  O2    s     0.587536    0.982591    0.822997    0.000000
   294  O2    s     0.039647    0.578259    0.153519    0.000000
   295  O2    s     0.577121    0.580602    0.349617    0.000000
   296  O3    s     0.053956    0.458630    0.010760    0.000000
   297  O2    s     0.436931    0.975584    0.682183    0.000000
   298  O3    s     0.474930    0.423224    0.850090    0.000000
   299  O2    s     0.995788    0.556432    0.515442    0.000000
   300  O2    s     0.602519    0.022725    0.182693    0.000000
   301  O2    s     0.595465    0.152504    0.253784    0.000000
   302  O2    s     0.865869    0.421829    0.585901    0.000000
   303  O3    s     0.611795    0.424880    0.916873    0.000000
   304  O2    s     0.445385    0.848891    0.753227    0.000000
   305  O2    s     0.170635    0.575878    0.084593    0.000000
   306  O2    s     0.441568    0.576104    0.420122    0.000000
   307  F     s     0.470408    0.901444    0.252848    0.000000
   308  F     s     0.115600    0.546083    0.586786    0.000000
   309  F     s     0.490286    0.522694    0.930465    0.000000
   310  F     s     0.569051    0.096627    0.752315    0.000000
   311  F     s     0.922245    0.419118    0.072765    0.000000
   312  F     s     0.567282    0.449765    0.420217    0.000000
--------------------------------------------------------------------------------

  Final Cartesian lattice vectors (Angstroms) :

       11.969949   -0.002766    0.002453
       -5.912305   10.373153   -0.020040
       -0.088981   -0.101662   29.381794


  Final cell parameters and derivatives :

--------------------------------------------------------------------------------
       a           11.969950 Angstrom     dE/de1(xx)     0.000222 eV/strain
       b           11.939768 Angstrom     dE/de2(yy)     0.000505 eV/strain
       c           29.382104 Angstrom     dE/de3(zz)     0.000667 eV/strain
       alpha       90.182477 Degrees      dE/de4(yz)    -0.000053 eV/strain
       beta        90.161726 Degrees      dE/de5(xz)     0.000002 eV/strain
       gamma      119.694722 Degrees      dE/de6(xy)    -0.000025 eV/strain
--------------------------------------------------------------------------------

  Primitive cell volume =          3647.721967 Angs**3

  Density of cell =      1.753997 g/cm**3

  Non-primitive cell volume =          3647.721967 Angs**3


  Final internal derivatives :

--------------------------------------------------------------------------------
   No.  Atomic          a             b             c           Radius
        Label          (eV)          (eV)          (eV)        (eV/Angs)
--------------------------------------------------------------------------------
      1 Si    c       0.000000      0.000000      0.000000      0.000000
      2 Si    c      -0.000006      0.000015     -0.000062      0.000000
      3 Si    c       0.000012     -0.000064     -0.000186      0.000000
      4 Si    c       0.000034     -0.000020     -0.000071      0.000000
      5 Si    c       0.000012      0.000175     -0.000187      0.000000
      6 Si    c       0.000116      0.000149      0.000465      0.000000
      7 Si    c      -0.000021      0.000006     -0.000035      0.000000
      8 Si    c      -0.000134      0.000252      0.000591      0.000000
      9 Si    c      -0.000011     -0.000008     -0.000019      0.000000
     10 Si    c       0.000009     -0.000123     -0.000104      0.000000
     11 Si    c       0.000012      0.000010      0.000049      0.000000
     12 Si    c       0.000394     -0.000136      0.000534      0.000000
     13 Ge    c       0.000331     -0.000630      0.001488      0.000000
     14 Si    c       0.000038     -0.000036      0.000041      0.000000
     15 Si    c       0.000017      0.000014     -0.000081      0.000000
     16 Si    c      -0.000007     -0.000005      0.000057      0.000000
     17 Si    c      -0.000041      0.000051      0.000345      0.000000
     18 Si    c      -0.000253      0.000073     -0.000573      0.000000
     19 Si    c      -0.000051      0.000040     -0.000081      0.000000
     20 Si    c       0.000285     -0.000150     -0.000338      0.000000
     21 Si    c       0.000014      0.000018     -0.000433      0.000000
     22 Si    c      -0.000181      0.000284     -0.000837      0.000000
     23 Si    c      -0.000003      0.000009      0.000022      0.000000
     24 Si    c       0.000188     -0.000289      0.000228      0.000000
     25 Ge    c       0.000211      0.000081     -0.001074      0.000000
     26 Si    c      -0.000138      0.000134     -0.000016      0.000000
     27 Si    c      -0.000015      0.000004      0.000007      0.000000
     28 Si    c       0.000003     -0.000040      0.000043      0.000000
     29 Si    c       0.000065     -0.000032     -0.000129      0.000000
     30 Ge    c      -0.000135     -0.000246     -0.001481      0.000000
     31 Si    c      -0.000014      0.000016      0.000015      0.000000
     32 Si    c       0.000125     -0.000053      0.000078      0.000000
     33 Si    c      -0.000025      0.000012      0.000185      0.000000
     34 Si    c      -0.000277      0.000523      0.000263      0.000000
     35 Si    c       0.000003     -0.000000      0.000044      0.000000
     36 Si    c       0.000020     -0.000044      0.000166      0.000000
     37 Si    c      -0.000011     -0.000347      0.000611      0.000000
     38 Si    c      -0.000020      0.000043      0.000026      0.000000
     39 Si    c       0.000001     -0.000008     -0.000006      0.000000
     40 Si    c      -0.000001     -0.000015      0.000029      0.000000
     41 Si    c      -0.000007      0.000010      0.000093      0.000000
     42 Si    c      -0.000005      0.000179      0.000435      0.000000
     43 Si    c       0.000007      0.000010     -0.000009      0.000000
     44 Si    c       0.000368      0.000093      0.000184      0.000000
     45 Si    c      -0.000046      0.000047     -0.000181      0.000000
     46 Si    c      -0.000062     -0.000006      0.000221      0.000000
     47 Si    c       0.000002      0.000010     -0.000011      0.000000
     48 Si    c       0.000053     -0.000105     -0.000224      0.000000
     49 Si    c       0.000105      0.000178      0.000650      0.000000
     50 Si    c       0.000001      0.000031      0.000094      0.000000
     51 Si    c       0.000013     -0.000009     -0.000048      0.000000
     52 Si    c       0.000009     -0.000007      0.000016      0.000000
     53 Si    c       0.000020      0.000006      0.000581      0.000000
     54 Si    c       0.000202     -0.000280     -0.000229      0.000000
     55 Si    c       0.000014      0.000003     -0.000005      0.000000
     56 Si    c       0.000201     -0.000282      0.000450      0.000000
     57 Si    c      -0.000010      0.000038      0.000025      0.000000
     58 Si    c      -0.000103      0.000002     -0.000299      0.000000
     59 Si    c       0.000021      0.000000     -0.000012      0.000000
     60 Si    c      -0.000099      0.000054      0.000185      0.000000
     61 O2    c      -0.000295      0.000332     -0.000583      0.000000
     62 O2    c      -0.000045     -0.000003     -0.000052      0.000000
     63 O2    c       0.000009     -0.000024     -0.000019      0.000000
     64 O2    c      -0.000011     -0.000002     -0.000011      0.000000
     65 O2    c       0.000160     -0.000022     -0.000172      0.000000
     66 O2    c      -0.000005      0.000211      0.000114      0.000000
     67 O2    c       0.000021     -0.000045      0.000090      0.000000
     68 O2    c       0.000001     -0.000005     -0.000033      0.000000
     69 O2    c      -0.000153     -0.000095      0.000228      0.000000
     70 O2    c       0.000092     -0.000012     -0.000082      0.000000
     71 O2    c      -0.000104      0.000078      0.000259      0.000000
     72 O2    c      -0.000032      0.000015     -0.000071      0.000000
     73 O3    c      -0.000052      0.000258      0.000709      0.000000
     74 O2    c      -0.000018      0.000024     -0.000005      0.000000
     75 O2    c      -0.000003      0.000008      0.000007      0.000000
     76 O2    c      -0.000046      0.000013      0.000064      0.000000
     77 O2    c       0.000066     -0.000223     -0.000341      0.000000
     78 O2    c       0.000017     -0.000049      0.000105      0.000000
     79 O2    c      -0.000239      0.000038     -0.000581      0.000000
     80 O2    c      -0.000018      0.000006      0.000028      0.000000
     81 O2    c      -0.000001      0.000006     -0.000008      0.000000
     82 O2    c      -0.000007      0.000007      0.000013      0.000000
     83 O2    c       0.000078     -0.000046     -0.000015      0.000000
     84 O2    c      -0.000050      0.000204      0.000238      0.000000
     85 O2    c      -0.000003     -0.000027     -0.000011      0.000000
     86 O2    c      -0.000584      0.000859      0.000197      0.000000
     87 O2    c       0.000025     -0.000011     -0.000040      0.000000
     88 O2    c       0.000039      0.000055     -0.000076      0.000000
     89 O2    c      -0.000019      0.000022      0.000012      0.000000
     90 O2    c       0.000166     -0.000042     -0.000148      0.000000
     91 O2    c       0.000096     -0.000086     -0.000289      0.000000
     92 O2    c      -0.000001     -0.000005      0.000063      0.000000
     93 O2    c       0.000042     -0.000008      0.000432      0.000000
     94 O2    c      -0.000098     -0.000015     -0.000697      0.000000
     95 O2    c      -0.000108      0.000048     -0.000063      0.000000
     96 O2    c       0.000010     -0.000001      0.000022      0.000000
     97 O3    c       0.000739     -0.001160     -0.001370      0.000000
     98 O2    c       0.000004     -0.000006     -0.000038      0.000000
     99 O2    c      -0.000012      0.000009     -0.000010      0.000000
    100 O2    c      -0.000008      0.000012     -0.000029      0.000000
    101 O3    c      -0.000005      0.000132      0.000021      0.000000
    102 O2    c      -0.000086      0.000007      0.000003      0.000000
    103 O2    c      -0.000005      0.000006      0.000003      0.000000
    104 O2    c       0.000335     -0.000033      0.000103      0.000000
    105 O2    c      -0.000006      0.000003     -0.000026      0.000000
    106 O2    c       0.000002     -0.000002     -0.000022      0.000000
    107 O2    c      -0.000013      0.000003      0.000001      0.000000
    108 O2    c       0.000001     -0.000166     -0.000145      0.000000
    109 O2    c       0.000005     -0.000036      0.000087      0.000000
    110 O2    c      -0.000004      0.000009      0.000017      0.000000
    111 O2    c      -0.000078      0.000046      0.000252      0.000000
    112 O2    c      -0.000027      0.000090      0.000026      0.000000
    113 O2    c      -0.000274      0.000012      0.000793      0.000000
    114 O2    c       0.000014     -0.000006      0.000091      0.000000
    115 O3    c       0.000413     -0.000129      0.000487      0.000000
    116 O2    c      -0.000004     -0.000005     -0.000033      0.000000
    117 O2    c       0.000011     -0.000001     -0.000012      0.000000
    118 O2    c       0.000004      0.000004     -0.000003      0.000000
    119 O2    c      -0.000002      0.000004     -0.000019      0.000000
    120 O2    c      -0.000017     -0.000012     -0.000020      0.000000
    121 O2    c       0.000005     -0.000032      0.000020      0.000000
    122 O2    c      -0.000053      0.000075      0.000023      0.000000
    123 O2    c      -0.000003     -0.000001     -0.000041      0.000000
    124 O2    c      -0.000007     -0.000010     -0.000086      0.000000
    125 O2    c       0.000001     -0.000004      0.000006      0.000000
    126 O2    c      -0.000018      0.000007     -0.000046      0.000000
    127 O3    c       0.000578     -0.000395     -0.000392      0.000000
    128 O2    c      -0.000008      0.000006      0.000040      0.000000
    129 O2    c       0.000004      0.000004     -0.000014      0.000000
    130 O2    c       0.000008     -0.000001     -0.000006      0.000000
    131 O3    c      -0.000256      0.000083     -0.000153      0.000000
    132 O2    c      -0.000038      0.000016     -0.000021      0.000000
    133 O2    c      -0.000022      0.000028     -0.000012      0.000000
    134 O2    c      -0.000138      0.000070      0.000014      0.000000
    135 O2    c      -0.000008      0.000006      0.000017      0.000000
    136 O2    c       0.000006     -0.000009      0.000044      0.000000
    137 O2    c      -0.000003      0.000001      0.000002      0.000000
    138 O2    c       0.000016      0.000022      0.000073      0.000000
    139 O2    c      -0.000034     -0.000055     -0.000107      0.000000
    140 O2    c      -0.000008      0.000001      0.000013      0.000000
    141 O2    c      -0.000005      0.000001     -0.000020      0.000000
    142 O2    c      -0.000008      0.000010      0.000007      0.000000
    143 O2    c      -0.000019      0.000001     -0.000106      0.000000
    144 O2    c      -0.000012     -0.000005      0.000011      0.000000
    145 O2    c       0.000005     -0.000006      0.000007      0.000000
    146 O2    c      -0.000201      0.000360      0.000185      0.000000
    147 O2    c      -0.000015      0.000017     -0.000014      0.000000
    148 O2    c      -0.000025      0.000041      0.000028      0.000000
    149 O2    c      -0.000009     -0.000001     -0.000022      0.000000
    150 O2    c      -0.000008     -0.000010      0.000164      0.000000
    151 O3    c      -0.000375     -0.000407      0.002137      0.000000
    152 O2    c       0.000048     -0.000023     -0.000011      0.000000
    153 O2    c      -0.000000      0.000006      0.000066      0.000000
    154 O2    c       0.000004      0.000009      0.000040      0.000000
    155 O2    c      -0.000063      0.000046      0.000023      0.000000
    156 O3    c       0.000051     -0.000104     -0.001058      0.000000
    157 O2    c      -0.000001     -0.000003      0.000072      0.000000
    158 O2    c      -0.000002      0.000041     -0.000107      0.000000
    159 O2    c       0.000054     -0.000032     -0.000042      0.000000
    160 O2    c       0.000049      0.000063     -0.000998      0.000000
    161 O2    c      -0.000003     -0.000000      0.000037      0.000000
    162 O2    c      -0.000060      0.000024      0.000102      0.000000
    163 O3    c       0.000097     -0.000302      0.000567      0.000000
    164 O2    c       0.000001      0.000001     -0.000007      0.000000
    165 O2    c       0.000006     -0.000008      0.000040      0.000000
    166 O2    c       0.000007     -0.000013     -0.000022      0.000000
    167 O2    c      -0.000020     -0.000018      0.000022      0.000000
    168 O2    c       0.000085     -0.000025      0.000008      0.000000
    169 O2    c       0.000023      0.000008     -0.000038      0.000000
    170 O3    c       0.000304     -0.000126      0.000112      0.000000
    171 O2    c      -0.000005      0.000005     -0.000058      0.000000
    172 O3    c       0.000061     -0.000029     -0.000293      0.000000
    173 O2    c      -0.000003      0.000010      0.000007      0.000000
    174 O2    c       0.000040     -0.000037     -0.000055      0.000000
    175 O2    c       0.000003      0.000036      0.000112      0.000000
    176 O2    c       0.000000      0.000002      0.000045      0.000000
    177 O3    c       0.000268     -0.000300     -0.000058      0.000000
    178 O2    c       0.000003     -0.000103      0.000097      0.000000
    179 O2    c      -0.000048     -0.000004     -0.000030      0.000000
    180 O2    c      -0.000013      0.000021      0.000102      0.000000
    181 F     c      -0.000023      0.000026     -0.000094      0.000000
    182 F     c      -0.000004      0.000005      0.000010      0.000000
    183 F     c      -0.000148      0.000036     -0.000445      0.000000
    184 F     c      -0.000002     -0.000008     -0.000044      0.000000
    185 F     c      -0.000272      0.000359      0.000645      0.000000
    186 F     c      -0.000018      0.000018     -0.000037      0.000000
    187 O2    s       0.000087     -0.000132      0.000273      0.000000
    188 O2    s       0.000014      0.000005      0.000046      0.000000
    189 O2    s      -0.000013     -0.000000      0.000004      0.000000
    190 O2    s       0.000002      0.000003     -0.000031      0.000000
    191 O2    s      -0.000054     -0.000106      0.000116      0.000000
    192 O2    s       0.000028      0.000045      0.000009      0.000000
    193 O2    s      -0.000004      0.000024     -0.000067      0.000000
    194 O2    s       0.000010     -0.000019      0.000019      0.000000
    195 O2    s       0.000190     -0.000056     -0.000084      0.000000
    196 O2    s      -0.000000     -0.000018      0.000048      0.000000
    197 O2    s       0.000034      0.000008     -0.000151      0.000000
    198 O2    s       0.000005      0.000009      0.000014      0.000000
    199 O3    s       0.001031     -0.000510      0.000186      0.000000
    200 O2    s       0.000008      0.000013     -0.000014      0.000000
    201 O2    s      -0.000004      0.000003      0.000003      0.000000
    202 O2    s       0.000007     -0.000007      0.000019      0.000000
    203 O2    s      -0.000059      0.000116      0.000121      0.000000
    204 O2    s      -0.000035      0.000009     -0.000096      0.000000
    205 O2    s      -0.000305     -0.000207     -0.000176      0.000000
    206 O2    s       0.000031     -0.000011     -0.000100      0.000000
    207 O2    s      -0.000001      0.000003      0.000003      0.000000
    208 O2    s       0.000005     -0.000006     -0.000020      0.000000
    209 O2    s       0.000058     -0.000065      0.000182      0.000000
    210 O2    s       0.000068     -0.000068     -0.000260      0.000000
    211 O2    s      -0.000010      0.000009      0.000010      0.000000
    212 O2    s      -0.000173     -0.000003     -0.000310      0.000000
    213 O2    s       0.000003      0.000003     -0.000020      0.000000
    214 O2    s      -0.000035     -0.000026      0.000080      0.000000
    215 O2    s       0.000001      0.000011     -0.000007      0.000000
    216 O2    s      -0.000010      0.000038      0.000215      0.000000
    217 O2    s      -0.000018      0.000013      0.000222      0.000000
    218 O2    s       0.000009     -0.000000     -0.000017      0.000000
    219 O2    s       0.000094      0.000091      0.000462      0.000000
    220 O2    s      -0.000008     -0.000037      0.000040      0.000000
    221 O2    s      -0.000017     -0.000206     -0.000514      0.000000
    222 O2    s       0.000007      0.000004     -0.000064      0.000000
    223 O3    s       0.000152      0.000537      0.000798      0.000000
    224 O2    s       0.000008     -0.000006      0.000025      0.000000
    225 O2    s      -0.000006      0.000008     -0.000081      0.000000
    226 O2    s      -0.000004     -0.000001      0.000011      0.000000
    227 O3    s      -0.000070      0.000040     -0.000556      0.000000
    228 O2    s       0.000053     -0.000168     -0.000094      0.000000
    229 O2    s      -0.000020      0.000007     -0.000015      0.000000
    230 O2    s       0.000332     -0.000099      0.000468      0.000000
    231 O2    s      -0.000003      0.000006      0.000012      0.000000
    232 O2    s      -0.000065      0.000041      0.000022      0.000000
    233 O2    s      -0.000001      0.000004     -0.000001      0.000000
    234 O2    s      -0.000114     -0.000029     -0.000002      0.000000
    235 O2    s       0.000053     -0.000048      0.000104      0.000000
    236 O2    s       0.000008     -0.000012     -0.000050      0.000000
    237 O2    s      -0.000022      0.000043      0.000023      0.000000
    238 O2    s       0.000058     -0.000064      0.000040      0.000000
    239 O2    s       0.000103      0.000096     -0.001195      0.000000
    240 O2    s      -0.000014      0.000016     -0.000067      0.000000
    241 O3    s      -0.000205      0.000069      0.000007      0.000000
    242 O2    s      -0.000014      0.000012      0.000053      0.000000
    243 O2    s      -0.000014      0.000015     -0.000001      0.000000
    244 O2    s       0.000000     -0.000006     -0.000004      0.000000
    245 O2    s      -0.000011     -0.000012      0.000024      0.000000
    246 O2    s       0.000014     -0.000013      0.000089      0.000000
    247 O2    s       0.000008      0.000023     -0.000003      0.000000
    248 O2    s       0.000021     -0.000134     -0.000035      0.000000
    249 O2    s      -0.000022     -0.000006      0.000087      0.000000
    250 O2    s       0.000070      0.000005      0.000195      0.000000
    251 O2    s       0.000007      0.000005     -0.000012      0.000000
    252 O2    s      -0.000009     -0.000008      0.000090      0.000000
    253 O3    s      -0.000883      0.000601      0.000644      0.000000
    254 O2    s       0.000009     -0.000004     -0.000053      0.000000
    255 O2    s      -0.000009      0.000022      0.000019      0.000000
    256 O2    s       0.000003     -0.000005      0.000013      0.000000
    257 O3    s      -0.000066      0.000123     -0.000149      0.000000
    258 O2    s       0.000102     -0.000070      0.000000      0.000000
    259 O2    s       0.000005      0.000016     -0.000019      0.000000
    260 O2    s      -0.000117      0.000053      0.000033      0.000000
    261 O2    s       0.000010     -0.000004     -0.000051      0.000000
    262 O2    s       0.000018      0.000026     -0.000056      0.000000
    263 O2    s       0.000005      0.000001     -0.000006      0.000000
    264 O2    s      -0.000033      0.000001     -0.000210      0.000000
    265 O2    s      -0.000260     -0.000011     -0.000377      0.000000
    266 O2    s      -0.000001      0.000004     -0.000034      0.000000
    267 O2    s       0.000011      0.000026      0.000037      0.000000
    268 O2    s       0.000008      0.000004      0.000004      0.000000
    269 O2    s       0.000036      0.000001     -0.000117      0.000000
    270 O2    s      -0.000028      0.000069      0.000008      0.000000
    271 O2    s      -0.000019     -0.000003      0.000018      0.000000
    272 O2    s      -0.000146     -0.000030      0.000275      0.000000
    273 O2    s       0.000005     -0.000007      0.000019      0.000000
    274 O2    s       0.000064     -0.000065     -0.000014      0.000000
    275 O2    s       0.000009      0.000001      0.000014      0.000000
    276 O2    s      -0.000060      0.000072     -0.000456      0.000000
    277 O3    s       0.000066     -0.000005     -0.001090      0.000000
    278 O2    s      -0.000018     -0.000013      0.000029      0.000000
    279 O2    s      -0.000003     -0.000001     -0.000060      0.000000
    280 O2    s       0.000000     -0.000003     -0.000030      0.000000
    281 O2    s       0.000020     -0.000037      0.000037      0.000000
    282 O3    s      -0.000058      0.000045      0.000658      0.000000
    283 O2    s      -0.000010      0.000008     -0.000079      0.000000
    284 O2    s      -0.000033     -0.000071      0.000189      0.000000
    285 O2    s      -0.000036      0.000031      0.000087      0.000000
    286 O2    s       0.000145     -0.000061      0.000297      0.000000
    287 O2    s       0.000004      0.000014     -0.000060      0.000000
    288 O2    s       0.000060     -0.000008     -0.000066      0.000000
    289 O3    s       0.000273     -0.000108      0.000005      0.000000
    290 O2    s      -0.000010     -0.000008     -0.000023      0.000000
    291 O2    s       0.000007      0.000010     -0.000051      0.000000
    292 O2    s      -0.000011      0.000009      0.000019      0.000000
    293 O2    s      -0.000007      0.000023     -0.000083      0.000000
    294 O2    s      -0.000133      0.000063      0.000131      0.000000
    295 O2    s      -0.000021     -0.000016      0.000044      0.000000
    296 O3    s      -0.000446      0.000269     -0.000272      0.000000
    297 O2    s       0.000010     -0.000028      0.000145      0.000000
    298 O3    s       0.000238     -0.000153     -0.000376      0.000000
    299 O2    s       0.000006     -0.000000     -0.000013      0.000000
    300 O2    s      -0.000070      0.000046      0.000134      0.000000
    301 O2    s       0.000004     -0.000045      0.000009      0.000000
    302 O2    s      -0.000005      0.000006     -0.000047      0.000000
    303 O3    s      -0.000023      0.000041      0.000504      0.000000
    304 O2    s      -0.000011      0.000068     -0.000098      0.000000
    305 O2    s       0.000088      0.000045     -0.000016      0.000000
    306 O2    s       0.000011     -0.000025     -0.000141      0.000000
    307 F     s       0.000014     -0.000021      0.000210      0.000000
    308 F     s       0.000008     -0.000004     -0.000024      0.000000
    309 F     s       0.000112      0.000117      0.000286      0.000000
    310 F     s       0.000002      0.000005      0.000076      0.000000
    311 F     s       0.000255      0.000092      0.000873      0.000000
    312 F     s       0.000026     -0.000023      0.000048      0.000000
--------------------------------------------------------------------------------
  Maximum abs         0.001031      0.001160      0.002137      0.000000
--------------------------------------------------------------------------------


  Time to end of optimisation =       8.9544 seconds


  Peak dynamic memory used =      19.13 MB 


  Timing analysis for GULP :

--------------------------------------------------------------------------------
  Task / Subroutine                                          Time (Seconds)
--------------------------------------------------------------------------------
  Calculation of reciprocal space energy and derivatives          0.3195
  Calculation of real space energy and derivatives                7.4805
  Calculation of three-body energy and derivatives                0.8298
  Calculation of matrix inversion                                 0.1920
--------------------------------------------------------------------------------
  Total CPU time                                                  8.9545
--------------------------------------------------------------------------------


  Dump file written as out.res                                                 
  CIF file written as out.cif                                                 


  Job Finished at 18:55.48 29th November   2016                               

