********************************************************************************
*                       GENERAL UTILITY LATTICE PROGRAM                        *
*                                 Julian Gale                                  *
*                      Nanochemistry Research Institute                        *
*                           Department of Chemistry                            *
*                    Curtin University, Western Australia                      *
********************************************************************************
* Version = 4.2.0 * Last modified =  20th January 2014                         *
********************************************************************************
*  optimise     - perform optimisation run                                     *
*  conp         - constant pressure calculation                                *
*  qok          - running with non charge neutral cell is OK                   *
********************************************************************************

  Job Started  at 17:15.10 29th November   2016                               

  Number of CPUs =     1


  Total number of configurations input =   1

********************************************************************************
*  Input for Configuration =   1                                               *
********************************************************************************

  Formula = Si57Ge3O120F6                                               

  Number of irreducible atoms/shells =     312


  Total number atoms/shells =     312

  Dimensionality = 3               :  Bulk   


  Charge on solid   =  -6.000000 =>neutralising background added


  Cartesian lattice vectors (Angstroms) :

       11.953882    0.000000    0.000000
       -5.880736   10.412337    0.000000
       -0.130664    0.145049   29.358360

  Cell parameters (Angstroms/Degrees):

  a =      11.9539    alpha =  89.6281
  b =      11.9583    beta  =  90.2550
  c =      29.3590    gamma = 119.4571

  Initial cell volume =        3654.171744 Angs**3

  Temperature of configuration =  0.000     K 

  Pressure of configuration =         0.000 GPa 

  Fractional coordinates of asymmetric unit :

--------------------------------------------------------------------------------
   No.  Atomic       x           y          z         Charge      Occupancy
        Label      (Frac)      (Frac)     (Frac)        (e)         (Frac)  
--------------------------------------------------------------------------------
      1 Si    c    0.699600    0.375700    0.033890     4.00000    1.000000    
      2 Si    c    0.624052 *  0.320223 *  0.368731 *   4.00000    1.000000    
      3 Si    c    0.681333 *  0.301574 *  0.696402 *   4.00000    1.000000    
      4 Si    c    0.300942 *  0.614225 *  0.534437 *   4.00000    1.000000    
      5 Si    c    0.379609 *  0.674482 *  0.869607 *   4.00000    1.000000    
      6 Si    c    0.321636 *  0.694178 *  0.199468 *   4.00000    1.000000    
      7 Si    c    0.385936 *  0.699712 *  0.301971 *   4.00000    1.000000    
      8 Si    c    0.322952 *  0.619006 *  0.972234 *   4.00000    1.000000    
      9 Si    c    0.303417 *  0.665588 *  0.635542 *   4.00000    1.000000    
     10 Si    c    0.618099 *  0.297423 *  0.798698 *   4.00000    1.000000    
     11 Si    c    0.678548 *  0.375413 *  0.469572 *   4.00000    1.000000    
     12 Si    c    0.699909 *  0.329763 *  0.136287 *   4.00000    1.000000    
     13 Ge    c    0.531496 *  0.431252 *  0.967368 *   4.00000    1.000000    
     14 Si    c    0.590412 *  0.114009 *  0.302170 *   4.00000    1.000000    
     15 Si    c    0.900021 *  0.473669 *  0.635429 *   4.00000    1.000000    
     16 Si    c    0.473903 *  0.578071 *  0.469598 *   4.00000    1.000000    
     17 Si    c    0.414204 *  0.881767 *  0.801399 *   4.00000    1.000000    
     18 Si    c    0.103978 *  0.524919 *  0.137241 *   4.00000    1.000000    
     19 Si    c    0.422380 *  0.526820 *  0.367851 *   4.00000    1.000000    
     20 Si    c    0.108655 *  0.579943 *  0.035977 *   4.00000    1.000000    
     21 Si    c    0.470709 *  0.875160 *  0.698146 *   4.00000    1.000000    
     22 Si    c    0.591528 *  0.466738 *  0.867504 *   4.00000    1.000000    
     23 Si    c    0.891820 *  0.416464 *  0.534089 *   4.00000    1.000000    
     24 Si    c    0.531320 *  0.119970 *  0.198944 *   4.00000    1.000000    
     25 Si    c    0.304483 *  0.393616 *  0.854885 *   4.00000    1.000000    
     26 Ge    c    0.590283 *  0.904612 *  0.192012 *   4.00000    1.000000    
     27 Si    c    0.101507 *  0.695057 *  0.520744 *   4.00000    1.000000    
     28 Si    c    0.702222 *  0.598405 *  0.353862 *   4.00000    1.000000    
     29 Ge    c    0.412629 *  0.091260 *  0.691033 *   4.00000    1.000000    
     30 Si    c    0.903323 *  0.300825 *  0.022478 *   4.00000    1.000000    
     31 Si    c    0.400172 *  0.296900 *  0.484843 *   4.00000    1.000000    
     32 Si    c    0.901287 *  0.605199 *  0.150761 *   4.00000    1.000000    
     33 Si    c    0.697018 *  0.093932 *  0.815902 *   4.00000    1.000000    
     34 Si    c    0.607315 *  0.703215 *  0.989964 *   4.00000    1.000000    
     35 Si    c    0.100709 *  0.390864 *  0.650249 *   4.00000    1.000000    
     36 Si    c    0.307202 *  0.902833 *  0.317608 *   4.00000    1.000000    
     37 Si    c    0.251238 *  0.332394 *  0.957437 *   4.00000    1.000000    
     38 Si    c    0.671874 *  0.911348 *  0.288338 *   4.00000    1.000000    
     39 Si    c    0.101214 *  0.750067 *  0.621724 *   4.00000    1.000000    
     40 Si    c    0.753032 *  0.657524 *  0.454880 *   4.00000    1.000000    
     41 Si    c    0.331476 *  0.084393 *  0.787196 *   4.00000    1.000000    
     42 Si    c    0.904651 *  0.248789 *  0.123725 *   4.00000    1.000000    
     43 Si    c    0.343913 *  0.248694 *  0.383553 *   4.00000    1.000000    
     44 Si    c    0.906883 *  0.657888 *  0.049149 *   4.00000    1.000000    
     45 Si    c    0.750269 *  0.084507 *  0.713791 *   4.00000    1.000000    
     46 Si    c    0.664616 *  0.745742 *  0.886388 *   4.00000    1.000000    
     47 Si    c    0.091644 *  0.335357 *  0.549141 *   4.00000    1.000000    
     48 Si    c    0.252660 *  0.911390 *  0.215416 *   4.00000    1.000000    
     49 Si    c    0.967934 *  0.120682 *  0.971239 *   4.00000    1.000000    
     50 Si    c    0.884203 *  0.846248 *  0.304974 *   4.00000    1.000000    
     51 Si    c    0.162544 *  0.030240 *  0.638037 *   4.00000    1.000000    
     52 Si    c    0.032151 *  0.875606 *  0.470500 *   4.00000    1.000000    
     53 Si    c    0.119429 *  0.148628 *  0.805025 *   4.00000    1.000000    
     54 Si    c    0.841383 *  0.968443 *  0.139460 *   4.00000    1.000000    
     55 Si    c    0.128328 *  0.970354 *  0.369584 *   4.00000    1.000000    
     56 Si    c    0.851605 *  0.883778 *  0.038178 *   4.00000    1.000000    
     57 Si    c    0.031317 *  0.143821 *  0.702167 *   4.00000    1.000000    
     58 Si    c    0.875385 *  0.026925 *  0.869915 *   4.00000    1.000000    
     59 Si    c    0.152952 *  0.116869 *  0.536065 *   4.00000    1.000000    
     60 Si    c    0.971731 *  0.851413 *  0.202692 *   4.00000    1.000000    
     61 O2    c    0.933517 *  0.001984 *  0.004309 *   0.87073    1.000000    
     62 O2    c    0.006745 *  0.924332 *  0.337085 *   0.87073    1.000000    
     63 O2    c    0.073377 *  0.062438 *  0.670963 *   0.87073    1.000000    
     64 O2    c    0.072477 *  0.994929 *  0.503759 *   0.87073    1.000000    
     65 O2    c    0.997878 *  0.071562 *  0.837745 *   0.87073    1.000000    
     66 O2    c    0.930524 *  0.934866 *  0.171958 *   0.87073    1.000000    
     67 O2    c    0.346536 *  0.577264 *  0.335045 *   0.87073    1.000000    
     68 O2    c    0.426889 *  0.744777 *  0.668908 *   0.87073    1.000000    
     69 O2    c    0.235000 *  0.655600 *  0.003346 *   0.87073    1.000000    
     70 O2    c    0.660842 *  0.423690 *  0.829146 *   0.87073    1.000000    
     71 O2    c    0.575871 *  0.250671 *  0.169363 *   0.87073    1.000000    
     72 O2    c    0.765594 *  0.338904 *  0.502304 *   0.87073    1.000000    
     73 O3    c    0.581777 *  0.341860 *  0.001634 *   1.33043    1.000000    
     74 O2    c    0.777006 *  0.429313 *  0.668438 *   0.87073    1.000000    
     75 O2    c    0.662724 *  0.236288 *  0.335647 *   0.87073    1.000000    
     76 O2    c    0.423734 *  0.654007 *  0.501705 *   0.87073    1.000000    
     77 O2    c    0.225796 *  0.568086 *  0.171061 *   0.87073    1.000000    
     78 O2    c    0.343698 *  0.759247 *  0.835616 *   0.87073    1.000000    
     79 O2    c    0.120137 *  0.211477 *  0.975237 *   0.87073    1.000000    
     80 O2    c    0.792428 *  0.907925 *  0.313251 *   0.87073    1.000000    
     81 O2    c    0.103702 *  0.875258 *  0.642815 *   0.87073    1.000000    
     82 O2    c    0.878130 *  0.783982 *  0.474665 *   0.87073    1.000000    
     83 O2    c    0.211143 *  0.086126 *  0.812579 *   0.87073    1.000000    
     84 O2    c    0.900702 *  0.122812 *  0.145302 *   0.87073    1.000000    
     85 O2    c    0.217756 *  0.123690 *  0.363465 *   0.87073    1.000000    
     86 O2    c    0.904468 *  0.784276 *  0.029652 *   0.87073    1.000000    
     87 O2    c    0.877304 *  0.083757 *  0.695785 *   0.87073    1.000000    
     88 O2    c    0.785641 *  0.873312 *  0.865013 *   0.87073    1.000000    
     89 O2    c    0.090694 *  0.209122 *  0.528860 *   0.87073    1.000000    
     90 O2    c    0.125481 *  0.910819 *  0.196585 *   0.87073    1.000000    
     91 O2    c    0.937943 *  0.861938 *  0.254512 *   0.87073    1.000000    
     92 O2    c    0.138844 *  0.066174 *  0.587053 *   0.87073    1.000000    
     93 O2    c    0.924216 *  0.067325 *  0.920594 *   0.87073    1.000000    
     94 O2    c    0.065426 *  0.133923 *  0.754365 *   0.87073    1.000000    
     95 O2    c    0.869992 *  0.936114 *  0.088752 *   0.87073    1.000000    
     96 O2    c    0.075832 *  0.931657 *  0.420239 *   0.87073    1.000000    
     97 O2    c    0.899148 *  0.202781 *  0.983572 *   0.87073    1.000000    
     98 O2    c    0.802501 *  0.694111 *  0.315917 *   0.87073    1.000000    
     99 O3    c    0.308768 *  0.101229 *  0.649014 *   1.33043    1.000000    
    100 O2    c    0.101822 *  0.792899 *  0.482083 *   0.87073    1.000000    
    101 O2    c    0.204196 *  0.300334 *  0.816482 *   0.87073    1.000000    
    102 O3    c    0.694664 *  0.896902 *  0.149774 *   1.33043    1.000000    
    103 O2    c    0.213395 *  0.903029 *  0.357107 *   0.87073    1.000000    
    104 O2    c    0.700119 *  0.814750 *  0.025300 *   0.87073    1.000000    
    105 O2    c    0.101014 *  0.294432 *  0.689320 *   0.87073    1.000000    
    106 O2    c    0.791738 *  0.094512 *  0.855315 *   0.87073    1.000000    
    107 O2    c    0.304059 *  0.198247 *  0.523112 *   0.87073    1.000000    
    108 O2    c    0.900637 *  0.701483 *  0.189338 *   0.87073    1.000000    
    109 O2    c    0.330654 *  0.647320 *  0.251528 *   0.87073    1.000000    
    110 O2    c    0.359337 *  0.668173 *  0.584869 *   0.87073    1.000000    
    111 O2    c    0.325147 *  0.670758 *  0.920275 *   0.87073    1.000000    
    112 O2    c    0.672862 *  0.347674 *  0.748136 *   0.87073    1.000000    
    113 O2    c    0.646099 *  0.326239 *  0.085395 *   0.87073    1.000000    
    114 O2    c    0.680394 *  0.318769 *  0.419279 *   0.87073    1.000000    
    115 O3    c    0.365054 *  0.315742 *  0.976826 *   1.33043    1.000000    
    116 O2    c    0.676874 *  0.043984 *  0.304888 *   0.87073    1.000000    
    117 O2    c    0.967880 *  0.628448 *  0.639130 *   0.87073    1.000000    
    118 O2    c    0.629331 *  0.666170 *  0.472774 *   0.87073    1.000000    
    119 O2    c    0.328852 *  0.952583 *  0.804490 *   0.87073    1.000000    
    120 O2    c    0.037421 *  0.370078 *  0.141489 *   0.87073    1.000000    
    121 O2    c    0.334655 *  0.371431 *  0.364465 *   0.87073    1.000000    
    122 O2    c    0.041427 *  0.669255 *  0.031494 *   0.87073    1.000000    
    123 O2    c    0.627769 *  0.950921 *  0.697767 *   0.87073    1.000000    
    124 O2    c    0.673951 *  0.624664 *  0.866761 *   0.87073    1.000000    
    125 O2    c    0.960413 *  0.328317 *  0.530660 *   0.87073    1.000000    
    126 O2    c    0.374281 *  0.044543 *  0.198429 *   0.87073    1.000000    
    127 O2    c    0.770387 *  0.300675 *  0.013821 *   0.87073    1.000000    
    128 O2    c    0.699276 *  0.462942 *  0.346281 *   0.87073    1.000000    
    129 O3    c    0.544816 *  0.239457 *  0.672678 *   1.33043    1.000000    
    130 O2    c    0.233061 *  0.690863 *  0.512310 *   0.87073    1.000000    
    131 O2    c    0.308969 *  0.530684 *  0.849265 *   0.87073    1.000000    
    132 O3    c    0.457444 *  0.755598 *  0.175203 *   1.33043    1.000000    
    133 O2    c    0.311934 *  0.771092 *  0.322744 *   0.87073    1.000000    
    134 O2    c    0.467450 *  0.696083 *  0.992355 *   0.87073    1.000000    
    135 O2    c    0.235211 *  0.522271 *  0.657547 *   0.87073    1.000000    
    136 O2    c    0.689639 *  0.223993 *  0.820590 *   0.87073    1.000000    
    137 O2    c    0.535841 *  0.298974 *  0.491913 *   0.87073    1.000000    
    138 O2    c    0.767950 *  0.472803 *  0.158049 *   0.87073    1.000000    
    139 O2    c    0.786170 *  0.532529 *  0.028602 *   0.87073    1.000000    
    140 O2    c    0.468289 *  0.245171 *  0.364054 *   0.87073    1.000000    
    141 O2    c    0.744720 *  0.207213 *  0.694091 *   0.87073    1.000000    
    142 O2    c    0.218351 *  0.459134 *  0.529615 *   0.87073    1.000000    
    143 O2    c    0.533772 *  0.739687 *  0.868559 *   0.87073    1.000000    
    144 O2    c    0.257804 *  0.787941 *  0.197071 *   0.87073    1.000000    
    145 O2    c    0.540250 *  0.786931 *  0.306066 *   0.87073    1.000000    
    146 O2    c    0.259116 *  0.465055 *  0.974979 *   0.87073    1.000000    
    147 O2    c    0.223435 *  0.741714 *  0.641136 *   0.87073    1.000000    
    148 O2    c    0.463414 *  0.210903 *  0.803442 *   0.87073    1.000000    
    149 O2    c    0.751959 *  0.530816 *  0.474511 *   0.87073    1.000000    
    150 O2    c    0.781739 *  0.255619 *  0.142628 *   0.87073    1.000000    
    151 O2    c    0.239551 *  0.323627 *  0.902062 *   0.87073    1.000000    
    152 O3    c    0.698042 *  0.909398 *  0.235700 *   1.33043    1.000000    
    153 O2    c    0.101936 *  0.767943 *  0.567030 *   0.87073    1.000000    
    154 O2    c    0.771403 *  0.672716 *  0.400380 *   0.87073    1.000000    
    155 O3    c    0.304005 *  0.084721 *  0.734582 *   1.33043    1.000000    
    156 O2    c    0.905933 *  0.229729 *  0.069145 *   0.87073    1.000000    
    157 O2    c    0.326517 *  0.229123 *  0.438018 *   0.87073    1.000000    
    158 O2    c    0.905195 *  0.677223 *  0.103596 *   0.87073    1.000000    
    159 O2    c    0.761838 *  0.089754 *  0.768617 *   0.87073    1.000000    
    160 O2    c    0.677823 *  0.760282 *  0.940653 *   0.87073    1.000000    
    161 O2    c    0.093478 *  0.316141 *  0.603673 *   0.87073    1.000000    
    162 O2    c    0.241999 *  0.908426 *  0.270299 *   0.87073    1.000000    
    163 O3    c    0.601207 *  0.572426 *  0.002750 *   1.33043    1.000000    
    164 O2    c    0.448979 *  0.022883 *  0.323226 *   0.87073    1.000000    
    165 O2    c    0.978070 *  0.409691 *  0.659380 *   0.87073    1.000000    
    166 O2    c    0.416389 *  0.437316 *  0.493166 *   0.87073    1.000000    
    167 O2    c    0.556604 *  0.970967 *  0.821844 *   0.87073    1.000000    
    168 O2    c    0.025653 *  0.589023 *  0.160267 *   0.87073    1.000000    
    169 O2    c    0.563152 *  0.585540 *  0.344490 *   0.87073    1.000000    
    170 O2    c    0.029287 *  0.438782 *  0.012824 *   0.87073    1.000000    
    171 O3    c    0.410351 *  0.949851 *  0.672037 *   1.33043    1.000000    
    172 O2    c    0.445959 *  0.413457 *  0.847159 *   0.87073    1.000000    
    173 O2    c    0.975015 *  0.558146 *  0.511528 *   0.87073    1.000000    
    174 O3    c    0.590972 *  0.045378 *  0.172748 *   1.33043    1.000000    
    175 O2    c    0.584660 *  0.163223 *  0.251171 *   0.87073    1.000000    
    176 O2    c    0.841388 *  0.418102 *  0.585267 *   0.87073    1.000000    
    177 O3    c    0.601251 *  0.410849 *  0.915189 *   1.33043    1.000000    
    178 O2    c    0.417353 *  0.831846 *  0.750569 *   0.87073    1.000000    
    179 O2    c    0.163724 *  0.581014 *  0.086879 *   0.87073    1.000000    
    180 O2    c    0.420589 *  0.579152 *  0.418612 *   0.87073    1.000000    
    181 F     c    0.485073 *  0.905972 *  0.241015 *   0.56000    1.000000    
    182 F     c    0.099746 *  0.542384 *  0.585195 *   0.56000    1.000000    
    183 F     c    0.475347 *  0.522875 *  0.929712 *   0.56000    1.000000    
    184 F     c    0.518185 *  0.090166 *  0.739658 *   0.56000    1.000000    
    185 F     c    0.909929 *  0.455471 *  0.086157 *   0.56000    1.000000    
    186 F     c    0.550147 *  0.448117 *  0.418308 *   0.56000    1.000000    
    187 O2    s    0.928412 *  0.002511 *  0.004254 *  -2.87073    1.000000    
    188 O2    s    0.007037 *  0.920869 *  0.337229 *  -2.87073    1.000000    
    189 O2    s    0.077774 *  0.068391 *  0.671124 *  -2.87073    1.000000    
    190 O2    s    0.076782 *  0.994915 *  0.503567 *  -2.87073    1.000000    
    191 O2    s    0.997627 *  0.075128 *  0.837713 *  -2.87073    1.000000    
    192 O2    s    0.925893 *  0.928714 *  0.172091 *  -2.87073    1.000000    
    193 O2    s    0.358456 *  0.584918 *  0.334943 *  -2.87073    1.000000    
    194 O2    s    0.419052 *  0.749998 *  0.668532 *  -2.87073    1.000000    
    195 O2    s    0.231918 *  0.644224 *  0.003229 *  -2.87073    1.000000    
    196 O2    s    0.649325 *  0.414562 *  0.829741 *  -2.87073    1.000000    
    197 O2    s    0.583687 *  0.245367 *  0.169057 *  -2.87073    1.000000    
    198 O2    s    0.769629 *  0.350679 *  0.502195 *  -2.87073    1.000000    
    199 O3    s    0.590795 *  0.351792 *  0.002652 *  -3.33043    1.000000    
    200 O2    s    0.779505 *  0.420182 *  0.668026 *  -2.87073    1.000000    
    201 O2    s    0.651215 *  0.232120 *  0.335550 *  -2.87073    1.000000    
    202 O2    s    0.416206 *  0.641994 *  0.501780 *  -2.87073    1.000000    
    203 O2    s    0.223506 *  0.577175 *  0.170634 *  -2.87073    1.000000    
    204 O2    s    0.354664 *  0.762905 *  0.835676 *  -2.87073    1.000000    
    205 O2    s    0.117325 *  0.214464 *  0.972870 *  -2.87073    1.000000    
    206 O2    s    0.790005 *  0.901746 *  0.309935 *  -2.87073    1.000000    
    207 O2    s    0.109306 *  0.877321 *  0.640100 *  -2.87073    1.000000    
    208 O2    s    0.881398 *  0.780568 *  0.472216 *  -2.87073    1.000000    
    209 O2    s    0.213570 *  0.092526 *  0.809300 *  -2.87073    1.000000    
    210 O2    s    0.895155 *  0.120798 *  0.142417 *  -2.87073    1.000000    
    211 O2    s    0.221204 *  0.120214 *  0.366149 *  -2.87073    1.000000    
    212 O2    s    0.899180 *  0.781715 *  0.032505 *  -2.87073    1.000000    
    213 O2    s    0.879637 *  0.090019 *  0.698342 *  -2.87073    1.000000    
    214 O2    s    0.782683 *  0.876456 *  0.867707 *  -2.87073    1.000000    
    215 O2    s    0.097331 *  0.212567 *  0.531694 *  -2.87073    1.000000    
    216 O2    s    0.123176 *  0.904703 *  0.199218 *  -2.87073    1.000000    
    217 O2    s    0.935593 *  0.858951 *  0.254494 *  -2.87073    1.000000    
    218 O2    s    0.142943 *  0.068184 *  0.586567 *  -2.87073    1.000000    
    219 O2    s    0.923333 *  0.068475 *  0.920261 *  -2.87073    1.000000    
    220 O2    s    0.067744 *  0.136654 *  0.754341 *  -2.87073    1.000000    
    221 O2    s    0.864881 *  0.933413 *  0.088166 *  -2.87073    1.000000    
    222 O2    s    0.076918 *  0.929765 *  0.420103 *  -2.87073    1.000000    
    223 O2    s    0.907126 *  0.203787 *  0.986180 *  -2.87073    1.000000    
    224 O2    s    0.800766 *  0.700229 *  0.318678 *  -2.87073    1.000000    
    225 O3    s    0.299164 *  0.092512 *  0.650574 *  -3.33043    1.000000    
    226 O2    s    0.094311 *  0.791725 *  0.484808 *  -2.87073    1.000000    
    227 O2    s    0.205655 *  0.294155 *  0.819215 *  -2.87073    1.000000    
    228 O3    s    0.704283 *  0.905431 *  0.151368 *  -3.33043    1.000000    
    229 O2    s    0.214445 *  0.909992 *  0.354261 *  -2.87073    1.000000    
    230 O2    s    0.706183 *  0.810481 *  0.023006 *  -2.87073    1.000000    
    231 O2    s    0.093547 *  0.288291 *  0.686668 *  -2.87073    1.000000    
    232 O2    s    0.790357 *  0.087392 *  0.852631 *  -2.87073    1.000000    
    233 O2    s    0.298275 *  0.199936 *  0.520514 *  -2.87073    1.000000    
    234 O2    s    0.908295 *  0.707580 *  0.186799 *  -2.87073    1.000000    
    235 O2    s    0.335667 *  0.657439 *  0.251808 *  -2.87073    1.000000    
    236 O2    s    0.347592 *  0.662379 *  0.584934 *  -2.87073    1.000000    
    237 O2    s    0.330635 *  0.666063 *  0.920066 *  -2.87073    1.000000    
    238 O2    s    0.667772 *  0.337632 *  0.748438 *  -2.87073    1.000000    
    239 O2    s    0.657219 *  0.331581 *  0.085636 *  -2.87073    1.000000    
    240 O2    s    0.674441 *  0.324646 *  0.419203 *  -2.87073    1.000000    
    241 O3    s    0.363789 *  0.325254 *  0.974064 *  -3.33043    1.000000    
    242 O2    s    0.667351 *  0.038025 *  0.302930 *  -2.87073    1.000000    
    243 O2    s    0.974641 *  0.624809 *  0.636910 *  -2.87073    1.000000    
    244 O2    s    0.626296 *  0.656212 *  0.470570 *  -2.87073    1.000000    
    245 O2    s    0.338093 *  0.958151 *  0.802441 *  -2.87073    1.000000    
    246 O2    s    0.030520 *  0.373650 *  0.139165 *  -2.87073    1.000000    
    247 O2    s    0.344652 *  0.374527 *  0.366824 *  -2.87073    1.000000    
    248 O2    s    0.034768 *  0.658948 *  0.033739 *  -2.87073    1.000000    
    249 O2    s    0.624959 *  0.957389 *  0.699504 *  -2.87073    1.000000    
    250 O2    s    0.665012 *  0.622252 *  0.868923 *  -2.87073    1.000000    
    251 O2    s    0.967176 *  0.338131 *  0.532965 *  -2.87073    1.000000    
    252 O2    s    0.377155 *  0.038039 *  0.200285 *  -2.87073    1.000000    
    253 O2    s    0.777535 *  0.308527 *  0.016900 *  -2.87073    1.000000    
    254 O2    s    0.691784 *  0.462418 *  0.349443 *  -2.87073    1.000000    
    255 O3    s    0.549847 *  0.235543 *  0.676494 *  -3.33043    1.000000    
    256 O2    s    0.226147 *  0.683374 *  0.515521 *  -2.87073    1.000000    
    257 O2    s    0.315962 *  0.531647 *  0.852008 *  -2.87073    1.000000    
    258 O3    s    0.452741 *  0.759768 *  0.178950 *  -3.33043    1.000000    
    259 O2    s    0.319027 *  0.777958 *  0.320046 *  -2.87073    1.000000    
    260 O2    s    0.466259 *  0.688676 *  0.989959 *  -2.87073    1.000000    
    261 O2    s    0.228035 *  0.523193 *  0.654461 *  -2.87073    1.000000    
    262 O2    s    0.683108 *  0.217335 *  0.817827 *  -2.87073    1.000000    
    263 O2    s    0.536337 *  0.306599 *  0.488845 *  -2.87073    1.000000    
    264 O2    s    0.775130 *  0.472134 *  0.154998 *  -2.87073    1.000000    
    265 O2    s    0.791344 *  0.531165 *  0.031358 *  -2.87073    1.000000    
    266 O2    s    0.471040 *  0.253360 *  0.366605 *  -2.87073    1.000000    
    267 O2    s    0.738960 *  0.202844 *  0.696466 *  -2.87073    1.000000    
    268 O2    s    0.213241 *  0.462022 *  0.532201 *  -2.87073    1.000000    
    269 O2    s    0.531052 *  0.733262 *  0.870555 *  -2.87073    1.000000    
    270 O2    s    0.263741 *  0.792414 *  0.199326 *  -2.87073    1.000000    
    271 O2    s    0.537284 *  0.790488 *  0.303814 *  -2.87073    1.000000    
    272 O2    s    0.265368 *  0.468150 *  0.972895 *  -2.87073    1.000000    
    273 O2    s    0.218555 *  0.734429 *  0.638491 *  -2.87073    1.000000    
    274 O2    s    0.466201 *  0.206982 *  0.801292 *  -2.87073    1.000000    
    275 O2    s    0.744369 *  0.528452 *  0.471895 *  -2.87073    1.000000    
    276 O2    s    0.786547 *  0.262857 *  0.139952 *  -2.87073    1.000000    
    277 O2    s    0.247824 *  0.332128 *  0.902481 *  -2.87073    1.000000    
    278 O3    s    0.688058 *  0.909307 *  0.238312 *  -3.33043    1.000000    
    279 O2    s    0.101822 *  0.758390 *  0.567914 *  -2.87073    1.000000    
    280 O2    s    0.762204 *  0.663316 *  0.401339 *  -2.87073    1.000000    
    281 O3    s    0.314092 *  0.085071 *  0.737288 *  -3.33043    1.000000    
    282 O2    s    0.905554 *  0.239240 *  0.069879 *  -2.87073    1.000000    
    283 O2    s    0.336089 *  0.238301 *  0.437106 *  -2.87073    1.000000    
    284 O2    s    0.904968 *  0.667538 *  0.102899 *  -2.87073    1.000000    
    285 O2    s    0.753576 *  0.089640 *  0.767959 *  -2.87073    1.000000    
    286 O2    s    0.669543 *  0.753097 *  0.939414 *  -2.87073    1.000000    
    287 O2    s    0.094044 *  0.326048 *  0.602848 *  -2.87073    1.000000    
    288 O2    s    0.250178 *  0.908145 *  0.269659 *  -2.87073    1.000000    
    289 O3    s    0.597006 *  0.577223 *  0.999023 *  -3.33043    1.000000    
    290 O2    s    0.448213 *  0.019103 *  0.320386 *  -2.87073    1.000000    
    291 O2    s    0.983335 *  0.414415 *  0.655913 *  -2.87073    1.000000    
    292 O2    s    0.420810 *  0.436849 *  0.489815 *  -2.87073    1.000000    
    293 O2    s    0.556799 *  0.974960 *  0.819032 *  -2.87073    1.000000    
    294 O2    s    0.020285 *  0.583993 *  0.156849 *  -2.87073    1.000000    
    295 O2    s    0.563397 *  0.580653 *  0.347919 *  -2.87073    1.000000    
    296 O2    s    0.024099 *  0.438812 *  0.016227 *  -2.87073    1.000000    
    297 O3    s    0.416964 *  0.952637 *  0.676112 *  -3.33043    1.000000    
    298 O2    s    0.444644 *  0.416598 *  0.850014 *  -2.87073    1.000000    
    299 O2    s    0.980021 *  0.557977 *  0.514879 *  -2.87073    1.000000    
    300 O3    s    0.584598 *  0.042477 *  0.176838 *  -3.33043    1.000000    
    301 O2    s    0.580060 *  0.153742 *  0.251456 *  -2.87073    1.000000    
    302 O2    s    0.852712 *  0.423664 *  0.585130 *  -2.87073    1.000000    
    303 O3    s    0.595777 *  0.418193 *  0.913365 *  -3.33043    1.000000    
    304 O2    s    0.422145 *  0.841322 *  0.750899 *  -2.87073    1.000000    
    305 O2    s    0.152001 *  0.575240 *  0.086713 *  -2.87073    1.000000    
    306 O2    s    0.426307 *  0.573561 *  0.418592 *  -2.87073    1.000000    
    307 F     s    0.491504 *  0.905873 *  0.238157 *  -1.56000    1.000000    
    308 F     s    0.099867 *  0.542366 *  0.585215 *  -1.56000    1.000000    
    309 F     s    0.479323 *  0.516958 *  0.932089 *  -1.56000    1.000000    
    310 F     s    0.511438 *  0.090232 *  0.736696 *  -1.56000    1.000000    
    311 F     s    0.910676 *  0.455733 *  0.086172 *  -1.56000    1.000000    
    312 F     s    0.550238 *  0.447895 *  0.418220 *  -1.56000    1.000000    
--------------------------------------------------------------------------------



********************************************************************************
*  General input information                                                   *
********************************************************************************

  Species output for all configurations : 

--------------------------------------------------------------------------------
  Species    Type    Atomic    Atomic    Charge       Radii (Angs)     Library
                     Number     Mass       (e)     Cova   Ionic  VDW   Symbol
--------------------------------------------------------------------------------
    Si       Core       14      28.09   4.000000   1.200  0.000  2.100          
    O1       Core        8      16.00   1.733957   0.730  0.000  1.360          
    O1       Shell       8       0.00  -3.733957   0.730  0.000  1.360          
    O2       Core        8      16.00   0.870733   0.730  0.000  1.360          
    O2       Shell       8       0.00  -2.870733   0.730  0.000  1.360          
    O3       Core        8      16.00   1.330431   0.730  0.000  1.360          
    O3       Shell       8       0.00  -3.330431   0.730  0.000  1.360          
    F        Core        9      19.00   0.560000   0.710  0.000  1.300          
    F        Shell       9       0.00  -1.560000   0.710  0.000  1.300          
    Ge       Core       32      72.61   4.000000   1.170  0.000  1.750          
--------------------------------------------------------------------------------


  Lattice summation method               =    Ewald          (3-D)
                                         =    Parry          (2-D)
                                         =    Saunders et al (1-D)
  Accuracy factor for lattice sums       =   12.000


  Time limit = Infinity

  Maximum range for interatomic potentials =        16.000000 Angstroms

  Taper potentials to zero over   1.0000 Angstroms using polynomial

  General interatomic potentials :

--------------------------------------------------------------------------------
Atom  Types   Potential         A         B         C         D     Cutoffs(Ang)
  1     2                                                            Min    Max 
--------------------------------------------------------------------------------
Si   c O1   s Buckingham    0.132E+04 0.318      10.1      0.00     0.000 16.000
Si   c O2   s Buckingham    0.132E+04 0.318      10.1      0.00     0.000 16.000
Si   c O3   s Buckingham    0.132E+04 0.318      10.1      0.00     0.000 16.000
Ge   c O1   s Buckingham    0.150E+04 0.326      16.8      0.00     0.000 16.000
Ge   c O2   s Buckingham    0.150E+04 0.326      16.8      0.00     0.000 16.000
Ge   c O3   s Buckingham    0.150E+04 0.326      16.8      0.00     0.000 16.000
O1   s O1   s Buckingham    0.228E+05 0.149      10.9      0.00     0.000 16.000
O1   s O2   s Buckingham    0.228E+05 0.149      10.9      0.00     0.000 16.000
O1   s O3   s Buckingham    0.228E+05 0.149      10.9      0.00     0.000 16.000
O2   s O2   s Buckingham    0.228E+05 0.149      10.9      0.00     0.000 16.000
O2   s O3   s Buckingham    0.228E+05 0.149      10.9      0.00     0.000 16.000
O3   s O3   s Buckingham    0.228E+05 0.149      10.9      0.00     0.000 16.000
Si   c F    s Buckingham     977.     0.282      0.00      0.00     0.000 16.000
Ge   c F    s Buckingham     681.     0.320      0.00      0.00     0.000 16.000
F    s F    s Buckingham     540.     0.262      0.00      0.00     0.000 16.000
O1   s F    s Buckingham    0.168E+04 0.268      0.00      0.00     0.000 16.000
O2   s F    s Buckingham    0.168E+04 0.268      0.00      0.00     0.000 16.000
O3   s F    s Buckingham    0.168E+04 0.268      0.00      0.00     0.000 16.000
O2   c O2   s Spring (c-s)   76.0      0.00      0.00      0.00     0.000  0.800
O3   c O3   s Spring (c-s)   128.      0.00      0.00      0.00     0.000  0.800
O1   c O1   s Spring (c-s)   180.      0.00      0.00      0.00     0.000  0.800
F    c F    s Spring (c-s)   33.5      0.00      0.00      0.00     0.000  0.800
--------------------------------------------------------------------------------

  General Three-body potentials :

  Harmonic form:

--------------------------------------------------------------------------------
Atom    Atom    Atom           Force Constants            Theta     Cutoffs  
  1       2       3     (eVrad**-2/eVrad**-3/eVrad**-4)   (deg)  1-2  1-3  2-3
--------------------------------------------------------------------------------
Si    c O1    s O1    s  1.261        0.0000    0.0000   109.470 0.00 0.00 0.00
                                                                 1.90 1.90 3.50
Si    c O1    s O2    s  1.261        0.0000    0.0000   109.470 0.00 0.00 0.00
                                                                 1.90 1.90 3.50
Si    c O2    s O2    s  1.261        0.0000    0.0000   109.470 0.00 0.00 0.00
                                                                 1.90 1.90 3.50
--------------------------------------------------------------------------------

********************************************************************************
*  Output for configuration   1                                                *
********************************************************************************


  Components of energy : 

--------------------------------------------------------------------------------
  Interatomic potentials     =        2067.04197819 eV
  Three-body potentials      =           0.50074910 eV
  Monopole - monopole (real) =       -6616.12780366 eV
  Monopole - monopole (recip)=       -3172.09959567 eV
  Monopole - monopole (total)=       -9788.22739933 eV
  Neutralising energy        =          -6.46158349 eV
--------------------------------------------------------------------------------
  Total lattice energy       =       -7727.14625553 eV
--------------------------------------------------------------------------------
  Total lattice energy       =         -745551.4934 kJ/(mole unit cells)
--------------------------------------------------------------------------------


  Number of variables =      939

  Maximum number of calculations  =          1000
  Maximum Hessian update interval =            10
  Maximum step size               =   1.000000000
  Maximum parameter tolerance     =   0.000010000
  Maximum function  tolerance     =   0.000010000
  Maximum gradient  tolerance     =   0.001000000
  Maximum gradient  component     =   0.010000000

  Symmetry not applied to optimisation

  Cell parameters to be optimised using strains

  Newton-Raphson optimiser to be used

  BFGS hessian update to be used

  Dumpfile to be written after every cycle

  Start of bulk optimisation :

  Cycle:      0 Energy:     -7727.146256  Gnorm:      0.001155  CPU:    1.064
  ** Hessian calculated **
  Cycle:      1 Energy:     -7727.256562  Gnorm:      0.005027  CPU:    3.295
  Cycle:      2 Energy:     -7727.257533  Gnorm:      0.000695  CPU:    4.672
  Cycle:      3 Energy:     -7727.257582  Gnorm:      0.000113  CPU:    6.050


  **** Optimisation achieved ****


  Final energy =   -7727.25758273 eV
  Final Gnorm  =       0.00001774

  Components of energy : 

--------------------------------------------------------------------------------
  Interatomic potentials     =        2067.78503015 eV
  Three-body potentials      =           0.51422716 eV
  Monopole - monopole (real) =       -6615.66510112 eV
  Monopole - monopole (recip)=       -3173.42744775 eV
  Monopole - monopole (total)=       -9789.09254888 eV
  Neutralising energy        =          -6.46429116 eV
--------------------------------------------------------------------------------
  Total lattice energy       =       -7727.25758273 eV
--------------------------------------------------------------------------------
  Total lattice energy       =         -745562.2348 kJ/(mole unit cells)
--------------------------------------------------------------------------------

  Final fractional coordinates of atoms :

--------------------------------------------------------------------------------
   No.  Atomic        x           y          z          Radius
        Label       (Frac)      (Frac)     (Frac)       (Angs) 
--------------------------------------------------------------------------------
     1  Si    c     0.699600    0.375700    0.033890    0.000000
     2  Si    c     0.640844    0.309254    0.368093    0.000000
     3  Si    c     0.692485    0.289587    0.695658    0.000000
     4  Si    c     0.316913    0.599779    0.533978    0.000000
     5  Si    c     0.384485    0.662007    0.868377    0.000000
     6  Si    c     0.331414    0.683015    0.198329    0.000000
     7  Si    c     0.399318    0.687407    0.300740    0.000000
     8  Si    c     0.326478    0.610870    0.971074    0.000000
     9  Si    c     0.316955    0.649752    0.634984    0.000000
    10  Si    c     0.625296    0.284990    0.797815    0.000000
    11  Si    c     0.694758    0.362144    0.468923    0.000000
    12  Si    c     0.706712    0.326263    0.135990    0.000000
    13  Ge    c     0.529526    0.421792    0.966210    0.000000
    14  Si    c     0.604656    0.102976    0.301396    0.000000
    15  Si    c     0.914089    0.459447    0.635036    0.000000
    16  Si    c     0.490367    0.564705    0.468899    0.000000
    17  Si    c     0.421466    0.868978    0.799898    0.000000
    18  Si    c     0.111113    0.517367    0.136047    0.000000
    19  Si    c     0.438823    0.515770    0.366890    0.000000
    20  Si    c     0.111798    0.572029    0.034752    0.000000
    21  Si    c     0.481016    0.861571    0.696915    0.000000
    22  Si    c     0.595162    0.452957    0.866819    0.000000
    23  Si    c     0.907480    0.402704    0.533553    0.000000
    24  Si    c     0.543981    0.112024    0.198311    0.000000
    25  Si    c     0.307817    0.380622    0.854067    0.000000
    26  Ge    c     0.599920    0.894195    0.191991    0.000000
    27  Si    c     0.117838    0.681453    0.520203    0.000000
    28  Si    c     0.719476    0.587465    0.353157    0.000000
    29  Ge    c     0.424230    0.078911    0.690382    0.000000
    30  Si    c     0.901472    0.295027    0.021414    0.000000
    31  Si    c     0.416113    0.283249    0.484418    0.000000
    32  Si    c     0.910321    0.600085    0.150233    0.000000
    33  Si    c     0.703970    0.080974    0.814671    0.000000
    34  Si    c     0.610272    0.694138    0.989928    0.000000
    35  Si    c     0.114398    0.375622    0.649788    0.000000
    36  Si    c     0.321377    0.891344    0.316812    0.000000
    37  Si    c     0.250398    0.322510    0.956796    0.000000
    38  Si    c     0.685830    0.899693    0.287587    0.000000
    39  Si    c     0.116014    0.735985    0.621273    0.000000
    40  Si    c     0.769605    0.644220    0.454338    0.000000
    41  Si    c     0.338619    0.071799    0.786080    0.000000
    42  Si    c     0.908771    0.241398    0.122401    0.000000
    43  Si    c     0.360551    0.237281    0.382953    0.000000
    44  Si    c     0.913287    0.653984    0.048858    0.000000
    45  Si    c     0.760314    0.071245    0.712897    0.000000
    46  Si    c     0.669148    0.732724    0.886089    0.000000
    47  Si    c     0.107201    0.321306    0.548636    0.000000
    48  Si    c     0.264852    0.902307    0.214955    0.000000
    49  Si    c     0.966049    0.113824    0.970842    0.000000
    50  Si    c     0.899561    0.837066    0.304799    0.000000
    51  Si    c     0.174125    0.015513    0.637737    0.000000
    52  Si    c     0.048484    0.862108    0.470055    0.000000
    53  Si    c     0.125107    0.133727    0.804863    0.000000
    54  Si    c     0.851395    0.962080    0.139448    0.000000
    55  Si    c     0.143790    0.959321    0.369225    0.000000
    56  Si    c     0.855239    0.876887    0.037879    0.000000
    57  Si    c     0.040619    0.127439    0.701591    0.000000
    58  Si    c     0.880548    0.013935    0.869670    0.000000
    59  Si    c     0.168348    0.102944    0.535626    0.000000
    60  Si    c     0.985117    0.847229    0.202021    0.000000
    61  O2    c     0.932857    0.996467    0.004302    0.000000
    62  O2    c     0.021596    0.914900    0.337117    0.000000
    63  O2    c     0.082580    0.045014    0.670699    0.000000
    64  O2    c     0.088569    0.980778    0.503512    0.000000
    65  O2    c     0.004896    0.057037    0.838362    0.000000
    66  O2    c     0.944997    0.932774    0.171575    0.000000
    67  O2    c     0.362188    0.565421    0.334018    0.000000
    68  O2    c     0.439937    0.730786    0.668350    0.000000
    69  O2    c     0.237598    0.647417    0.001736    0.000000
    70  O2    c     0.665771    0.410249    0.828735    0.000000
    71  O2    c     0.584488    0.243500    0.169652    0.000000
    72  O2    c     0.781644    0.325311    0.501674    0.000000
    73  O3    c     0.580639    0.336312    0.002181    0.000000
    74  O2    c     0.790721    0.416766    0.667889    0.000000
    75  O2    c     0.678608    0.224908    0.334848    0.000000
    76  O2    c     0.439928    0.640133    0.501223    0.000000
    77  O2    c     0.233527    0.558481    0.169558    0.000000
    78  O2    c     0.349523    0.746369    0.833934    0.000000
    79  O2    c     0.118053    0.205269    0.975069    0.000000
    80  O2    c     0.805374    0.896086    0.313263    0.000000
    81  O2    c     0.117821    0.860847    0.642414    0.000000
    82  O2    c     0.894568    0.770193    0.474324    0.000000
    83  O2    c     0.218622    0.073011    0.812068    0.000000
    84  O2    c     0.906582    0.116206    0.144107    0.000000
    85  O2    c     0.234051    0.112531    0.363008    0.000000
    86  O2    c     0.911628    0.780416    0.028916    0.000000
    87  O2    c     0.887093    0.069946    0.694668    0.000000
    88  O2    c     0.791253    0.860189    0.865035    0.000000
    89  O2    c     0.106407    0.195404    0.528081    0.000000
    90  O2    c     0.138646    0.903811    0.195956    0.000000
    91  O2    c     0.953438    0.857470    0.254178    0.000000
    92  O2    c     0.151577    0.051809    0.586663    0.000000
    93  O2    c     0.925443    0.057093    0.920467    0.000000
    94  O2    c     0.070308    0.115822    0.754211    0.000000
    95  O2    c     0.876823    0.928404    0.088551    0.000000
    96  O2    c     0.092032    0.919821    0.419963    0.000000
    97  O2    c     0.895828    0.195563    0.982345    0.000000
    98  O2    c     0.819848    0.684398    0.315315    0.000000
    99  O3    c     0.320441    0.088719    0.648481    0.000000
   100  O2    c     0.118473    0.779346    0.481431    0.000000
   101  O2    c     0.208412    0.285932    0.815751    0.000000
   102  O3    c     0.704946    0.886958    0.150068    0.000000
   103  O2    c     0.227789    0.890894    0.356597    0.000000
   104  O2    c     0.703173    0.805062    0.025385    0.000000
   105  O2    c     0.113275    0.278232    0.688825    0.000000
   106  O2    c     0.798040    0.081773    0.854199    0.000000
   107  O2    c     0.319783    0.184259    0.522722    0.000000
   108  O2    c     0.911581    0.697351    0.188780    0.000000
   109  O2    c     0.342281    0.635524    0.250329    0.000000
   110  O2    c     0.374722    0.652825    0.584545    0.000000
   111  O2    c     0.328577    0.659845    0.918694    0.000000
   112  O2    c     0.682042    0.335578    0.747363    0.000000
   113  O2    c     0.649969    0.326745    0.085949    0.000000
   114  O2    c     0.697351    0.306420    0.418507    0.000000
   115  O3    c     0.363837    0.304620    0.975874    0.000000
   116  O2    c     0.690355    0.032146    0.304090    0.000000
   117  O2    c     0.982581    0.614203    0.638543    0.000000
   118  O2    c     0.645724    0.652827    0.472211    0.000000
   119  O2    c     0.336260    0.939909    0.803102    0.000000
   120  O2    c     0.042318    0.362385    0.139801    0.000000
   121  O2    c     0.351706    0.360303    0.363834    0.000000
   122  O2    c     0.046181    0.663044    0.030526    0.000000
   123  O2    c     0.638119    0.937674    0.697033    0.000000
   124  O2    c     0.677686    0.611082    0.866423    0.000000
   125  O2    c     0.976097    0.314521    0.530182    0.000000
   126  O2    c     0.386832    0.035280    0.198294    0.000000
   127  O2    c     0.770577    0.299217    0.013873    0.000000
   128  O2    c     0.716607    0.452002    0.345493    0.000000
   129  O3    c     0.556342    0.227669    0.671839    0.000000
   130  O2    c     0.249358    0.676937    0.511930    0.000000
   131  O2    c     0.313919    0.518317    0.847906    0.000000
   132  O3    c     0.467425    0.745199    0.174239    0.000000
   133  O2    c     0.325976    0.759358    0.321758    0.000000
   134  O2    c     0.471004    0.689257    0.991102    0.000000
   135  O2    c     0.249179    0.506699    0.657366    0.000000
   136  O2    c     0.696388    0.210984    0.819615    0.000000
   137  O2    c     0.551900    0.285203    0.491308    0.000000
   138  O2    c     0.776578    0.468418    0.158490    0.000000
   139  O2    c     0.789044    0.531304    0.028554    0.000000
   140  O2    c     0.485017    0.233984    0.363338    0.000000
   141  O2    c     0.754884    0.194246    0.693414    0.000000
   142  O2    c     0.234292    0.444744    0.529066    0.000000
   143  O2    c     0.538749    0.727073    0.867908    0.000000
   144  O2    c     0.269198    0.778367    0.196593    0.000000
   145  O2    c     0.553566    0.774319    0.304575    0.000000
   146  O2    c     0.262780    0.457068    0.974333    0.000000
   147  O2    c     0.237704    0.726808    0.640757    0.000000
   148  O2    c     0.470648    0.198522    0.802137    0.000000
   149  O2    c     0.768644    0.517529    0.474040    0.000000
   150  O2    c     0.786808    0.249883    0.141384    0.000000
   151  O2    c     0.240613    0.312872    0.901346    0.000000
   152  O3    c     0.710647    0.898680    0.234899    0.000000
   153  O2    c     0.117770    0.753994    0.566536    0.000000
   154  O2    c     0.788615    0.660591    0.399826    0.000000
   155  O3    c     0.313092    0.072287    0.733399    0.000000
   156  O2    c     0.906482    0.223096    0.067695    0.000000
   157  O2    c     0.342986    0.216755    0.437431    0.000000
   158  O2    c     0.913214    0.673361    0.103365    0.000000
   159  O2    c     0.770809    0.076992    0.767767    0.000000
   160  O2    c     0.681837    0.747620    0.940394    0.000000
   161  O2    c     0.108215    0.301242    0.603203    0.000000
   162  O2    c     0.254802    0.897821    0.269920    0.000000
   163  O3    c     0.599256    0.561461    0.002592    0.000000
   164  O2    c     0.463011    0.011510    0.322408    0.000000
   165  O2    c     0.991716    0.394823    0.658912    0.000000
   166  O2    c     0.432797    0.423938    0.492545    0.000000
   167  O2    c     0.563743    0.957761    0.820457    0.000000
   168  O2    c     0.034641    0.583194    0.159410    0.000000
   169  O2    c     0.580183    0.574520    0.343904    0.000000
   170  O2    c     0.029762    0.431393    0.011576    0.000000
   171  O3    c     0.422268    0.937721    0.670826    0.000000
   172  O2    c     0.449139    0.399143    0.846777    0.000000
   173  O2    c     0.991488    0.544491    0.511157    0.000000
   174  O3    c     0.602370    0.036148    0.172278    0.000000
   175  O2    c     0.598699    0.153049    0.250552    0.000000
   176  O2    c     0.856739    0.404282    0.584747    0.000000
   177  O3    c     0.602007    0.398211    0.915046    0.000000
   178  O2    c     0.425544    0.818957    0.749203    0.000000
   179  O2    c     0.168783    0.572629    0.085332    0.000000
   180  O2    c     0.437370    0.566924    0.417918    0.000000
   181  F     c     0.497025    0.894764    0.240576    0.000000
   182  F     c     0.116479    0.527914    0.585013    0.000000
   183  F     c     0.476674    0.512601    0.928461    0.000000
   184  F     c     0.527623    0.077643    0.738892    0.000000
   185  F     c     0.914484    0.452386    0.085672    0.000000
   186  F     c     0.568046    0.435743    0.417785    0.000000
   187  O2    s     0.927967    0.996619    0.004183    0.000000
   188  O2    s     0.021961    0.911268    0.337183    0.000000
   189  O2    s     0.087183    0.051332    0.670823    0.000000
   190  O2    s     0.092861    0.980888    0.503279    0.000000
   191  O2    s     0.004333    0.060729    0.838138    0.000000
   192  O2    s     0.939894    0.926072    0.171716    0.000000
   193  O2    s     0.373875    0.573027    0.333912    0.000000
   194  O2    s     0.431894    0.735921    0.667921    0.000000
   195  O2    s     0.234727    0.636076    0.001688    0.000000
   196  O2    s     0.654409    0.401298    0.829273    0.000000
   197  O2    s     0.592493    0.238458    0.169209    0.000000
   198  O2    s     0.785696    0.337118    0.501588    0.000000
   199  O3    s     0.590094    0.346732    0.003110    0.000000
   200  O2    s     0.792920    0.407493    0.667485    0.000000
   201  O2    s     0.666990    0.220836    0.334776    0.000000
   202  O2    s     0.432375    0.628106    0.501283    0.000000
   203  O2    s     0.231470    0.567582    0.169219    0.000000
   204  O2    s     0.360628    0.750096    0.834065    0.000000
   205  O2    s     0.115660    0.208027    0.972584    0.000000
   206  O2    s     0.803289    0.890206    0.309851    0.000000
   207  O2    s     0.123238    0.862914    0.639703    0.000000
   208  O2    s     0.897858    0.766868    0.471839    0.000000
   209  O2    s     0.220828    0.079288    0.808760    0.000000
   210  O2    s     0.901269    0.114101    0.141336    0.000000
   211  O2    s     0.237441    0.109048    0.365688    0.000000
   212  O2    s     0.905886    0.777563    0.031859    0.000000
   213  O2    s     0.889439    0.076017    0.697300    0.000000
   214  O2    s     0.788157    0.863372    0.867664    0.000000
   215  O2    s     0.113007    0.198795    0.530982    0.000000
   216  O2    s     0.136209    0.897781    0.198588    0.000000
   217  O2    s     0.950809    0.853972    0.254155    0.000000
   218  O2    s     0.155857    0.053829    0.586193    0.000000
   219  O2    s     0.924681    0.058314    0.920082    0.000000
   220  O2    s     0.073222    0.119117    0.754149    0.000000
   221  O2    s     0.871650    0.925942    0.087975    0.000000
   222  O2    s     0.093033    0.917820    0.419804    0.000000
   223  O2    s     0.904001    0.196547    0.984950    0.000000
   224  O2    s     0.817911    0.690418    0.318090    0.000000
   225  O3    s     0.310880    0.079753    0.650090    0.000000
   226  O2    s     0.110914    0.778151    0.484187    0.000000
   227  O2    s     0.209926    0.279870    0.818526    0.000000
   228  O3    s     0.714466    0.895908    0.151646    0.000000
   229  O2    s     0.228899    0.898057    0.353733    0.000000
   230  O2    s     0.709166    0.801082    0.023028    0.000000
   231  O2    s     0.105655    0.272176    0.686174    0.000000
   232  O2    s     0.796586    0.074528    0.851553    0.000000
   233  O2    s     0.314023    0.185991    0.520129    0.000000
   234  O2    s     0.919327    0.703383    0.186226    0.000000
   235  O2    s     0.347230    0.645489    0.250647    0.000000
   236  O2    s     0.362837    0.647070    0.584577    0.000000
   237  O2    s     0.334245    0.655250    0.918570    0.000000
   238  O2    s     0.676970    0.325620    0.747686    0.000000
   239  O2    s     0.660952    0.331585    0.086099    0.000000
   240  O2    s     0.691312    0.312359    0.418472    0.000000
   241  O3    s     0.362594    0.314356    0.973130    0.000000
   242  O2    s     0.680898    0.026290    0.302136    0.000000
   243  O2    s     0.989278    0.610552    0.636355    0.000000
   244  O2    s     0.642693    0.642856    0.469990    0.000000
   245  O2    s     0.345518    0.945486    0.801060    0.000000
   246  O2    s     0.035658    0.366126    0.137573    0.000000
   247  O2    s     0.361591    0.363387    0.366160    0.000000
   248  O2    s     0.039377    0.652799    0.032834    0.000000
   249  O2    s     0.635357    0.944209    0.698715    0.000000
   250  O2    s     0.668875    0.608767    0.868544    0.000000
   251  O2    s     0.982855    0.324344    0.532486    0.000000
   252  O2    s     0.389531    0.028782    0.200083    0.000000
   253  O2    s     0.778031    0.306402    0.016744    0.000000
   254  O2    s     0.709084    0.451552    0.348668    0.000000
   255  O3    s     0.561531    0.223875    0.675672    0.000000
   256  O2    s     0.242367    0.669435    0.515117    0.000000
   257  O2    s     0.320717    0.519127    0.850714    0.000000
   258  O3    s     0.462387    0.749024    0.178023    0.000000
   259  O2    s     0.333001    0.766143    0.319056    0.000000
   260  O2    s     0.469680    0.681533    0.988844    0.000000
   261  O2    s     0.241969    0.507647    0.654221    0.000000
   262  O2    s     0.689910    0.204459    0.816828    0.000000
   263  O2    s     0.552380    0.292878    0.488260    0.000000
   264  O2    s     0.783526    0.467691    0.155269    0.000000
   265  O2    s     0.793953    0.529189    0.031290    0.000000
   266  O2    s     0.487683    0.242159    0.365914    0.000000
   267  O2    s     0.749215    0.189931    0.695764    0.000000
   268  O2    s     0.229144    0.447682    0.531668    0.000000
   269  O2    s     0.535998    0.720632    0.869881    0.000000
   270  O2    s     0.275047    0.782718    0.198784    0.000000
   271  O2    s     0.550515    0.777890    0.302432    0.000000
   272  O2    s     0.268591    0.459968    0.972185    0.000000
   273  O2    s     0.232758    0.719562    0.638090    0.000000
   274  O2    s     0.473565    0.194680    0.800051    0.000000
   275  O2    s     0.760994    0.515174    0.471400    0.000000
   276  O2    s     0.791769    0.257134    0.138792    0.000000
   277  O2    s     0.248922    0.321209    0.901754    0.000000
   278  O3    s     0.700822    0.898537    0.237727    0.000000
   279  O2    s     0.117590    0.744469    0.567419    0.000000
   280  O2    s     0.779349    0.651194    0.400760    0.000000
   281  O3    s     0.322974    0.072611    0.736260    0.000000
   282  O2    s     0.906232    0.232527    0.068555    0.000000
   283  O2    s     0.352528    0.225914    0.436556    0.000000
   284  O2    s     0.912934    0.663580    0.102579    0.000000
   285  O2    s     0.762457    0.076816    0.767054    0.000000
   286  O2    s     0.673562    0.740790    0.939160    0.000000
   287  O2    s     0.108756    0.311197    0.602385    0.000000
   288  O2    s     0.263020    0.897597    0.269221    0.000000
   289  O3    s     0.595685    0.566912    0.998839    0.000000
   290  O2    s     0.462229    0.007718    0.319578    0.000000
   291  O2    s     0.996958    0.399587    0.655456    0.000000
   292  O2    s     0.437161    0.423414    0.489208    0.000000
   293  O2    s     0.563976    0.961871    0.817647    0.000000
   294  O2    s     0.029157    0.578063    0.155997    0.000000
   295  O2    s     0.580316    0.569627    0.347283    0.000000
   296  O2    s     0.024756    0.431707    0.014995    0.000000
   297  O3    s     0.428710    0.940190    0.674932    0.000000
   298  O2    s     0.447906    0.402486    0.849544    0.000000
   299  O2    s     0.996390    0.544312    0.514479    0.000000
   300  O3    s     0.595959    0.033567    0.176374    0.000000
   301  O2    s     0.594006    0.143709    0.250851    0.000000
   302  O2    s     0.867950    0.409812    0.584636    0.000000
   303  O3    s     0.596747    0.405630    0.913027    0.000000
   304  O2    s     0.430441    0.828413    0.749556    0.000000
   305  O2    s     0.157121    0.567002    0.085265    0.000000
   306  O2    s     0.442990    0.561352    0.417854    0.000000
   307  F     s     0.503945    0.894641    0.237447    0.000000
   308  F     s     0.116792    0.527908    0.585067    0.000000
   309  F     s     0.480739    0.506105    0.931089    0.000000
   310  F     s     0.520646    0.077765    0.735765    0.000000
   311  F     s     0.915239    0.452892    0.085715    0.000000
   312  F     s     0.568273    0.435484    0.417711    0.000000
--------------------------------------------------------------------------------

  Final Cartesian lattice vectors (Angstroms) :

       11.944459    0.004357    0.007925
       -5.872306   10.410228    0.001569
       -0.111046    0.160417   29.344530


  Final cell parameters and derivatives :

--------------------------------------------------------------------------------
       a           11.944463 Angstrom     dE/de1(xx)     0.002973 eV/strain
       b           11.952273 Angstrom     dE/de2(yy)     0.002342 eV/strain
       c           29.345179 Angstrom     dE/de3(zz)     0.002679 eV/strain
       alpha       89.613153 Degrees      dE/de4(yz)    -0.000272 eV/strain
       beta        90.178688 Degrees      dE/de5(xz)     0.000094 eV/strain
       gamma      119.405997 Degrees      dE/de6(xy)    -0.000104 eV/strain
--------------------------------------------------------------------------------

  Primitive cell volume =          3649.581837 Angs**3

  Density of cell =      1.753103 g/cm**3

  Non-primitive cell volume =          3649.581837 Angs**3


  Final internal derivatives :

--------------------------------------------------------------------------------
   No.  Atomic          a             b             c           Radius
        Label          (eV)          (eV)          (eV)        (eV/Angs)
--------------------------------------------------------------------------------
      1 Si    c       0.000000      0.000000      0.000000      0.000000
      2 Si    c       0.000198     -0.000181      0.000409      0.000000
      3 Si    c      -0.000336     -0.000320      0.001173      0.000000
      4 Si    c      -0.000028      0.000036      0.000164      0.000000
      5 Si    c      -0.000124     -0.000063     -0.001079      0.000000
      6 Si    c      -0.000092     -0.000118      0.000523      0.000000
      7 Si    c      -0.000079      0.000137     -0.000520      0.000000
      8 Si    c      -0.000104      0.000056      0.000376      0.000000
      9 Si    c       0.000073     -0.000186     -0.001037      0.000000
     10 Si    c       0.000091     -0.000239     -0.000785      0.000000
     11 Si    c      -0.000060      0.000028     -0.000171      0.000000
     12 Si    c       0.000498      0.000411      0.002273      0.000000
     13 Ge    c      -0.000573      0.000348      0.000678      0.000000
     14 Si    c      -0.000044      0.000136      0.000092      0.000000
     15 Si    c       0.000146     -0.000029     -0.000793      0.000000
     16 Si    c      -0.000105      0.000040     -0.000378      0.000000
     17 Si    c       0.000174     -0.000246      0.000039      0.000000
     18 Si    c      -0.000263      0.000126      0.000473      0.000000
     19 Si    c      -0.000117      0.000143      0.000835      0.000000
     20 Si    c       0.000099     -0.000019     -0.000363      0.000000
     21 Si    c      -0.000081      0.000114      0.000499      0.000000
     22 Si    c       0.000069      0.000118     -0.001852      0.000000
     23 Si    c      -0.000000      0.000081     -0.000154      0.000000
     24 Si    c       0.000490     -0.000508     -0.000667      0.000000
     25 Si    c      -0.000020      0.000008     -0.001960      0.000000
     26 Ge    c       0.000573      0.000007     -0.000756      0.000000
     27 Si    c       0.000081     -0.000059      0.000138      0.000000
     28 Si    c       0.000088      0.000138      0.000175      0.000000
     29 Ge    c       0.000698     -0.000177      0.002127      0.000000
     30 Si    c       0.000406     -0.000292     -0.001583      0.000000
     31 Si    c       0.000039     -0.000023     -0.000407      0.000000
     32 Si    c       0.000176     -0.000288     -0.000332      0.000000
     33 Si    c       0.000186     -0.000183     -0.000346      0.000000
     34 Si    c       0.000514      0.000509      0.000266      0.000000
     35 Si    c       0.000156     -0.000185      0.000082      0.000000
     36 Si    c      -0.000124      0.000096     -0.000032      0.000000
     37 Si    c       0.000916     -0.000194     -0.000217      0.000000
     38 Si    c       0.000365     -0.000129     -0.000088      0.000000
     39 Si    c       0.000027      0.000047     -0.000277      0.000000
     40 Si    c      -0.000004      0.000012     -0.000436      0.000000
     41 Si    c      -0.000327      0.000280      0.000183      0.000000
     42 Si    c       0.000322     -0.000136      0.002772      0.000000
     43 Si    c      -0.000025     -0.000077      0.000492      0.000000
     44 Si    c       0.000130      0.000633      0.001019      0.000000
     45 Si    c      -0.000077      0.000044      0.000448      0.000000
     46 Si    c       0.000221     -0.000036      0.000218      0.000000
     47 Si    c      -0.000020      0.000023      0.000079      0.000000
     48 Si    c       0.000146     -0.000057     -0.000027      0.000000
     49 Si    c      -0.000178      0.000421      0.002902      0.000000
     50 Si    c      -0.000098     -0.000043      0.001289      0.000000
     51 Si    c      -0.000146      0.000191     -0.001109      0.000000
     52 Si    c       0.000005      0.000036     -0.000642      0.000000
     53 Si    c      -0.000133      0.000356     -0.000590      0.000000
     54 Si    c      -0.000225     -0.000291      0.000305      0.000000
     55 Si    c      -0.000115     -0.000013      0.000828      0.000000
     56 Si    c      -0.000762     -0.000634      0.001215      0.000000
     57 Si    c       0.000331     -0.000070      0.000163      0.000000
     58 Si    c      -0.000520     -0.000240     -0.003704      0.000000
     59 Si    c       0.000127     -0.000180      0.001192      0.000000
     60 Si    c      -0.000227     -0.000227     -0.000013      0.000000
     61 O2    c       0.000917      0.001619     -0.004879      0.000000
     62 O2    c      -0.000180      0.000058     -0.000323      0.000000
     63 O2    c      -0.000377     -0.000041      0.000575      0.000000
     64 O2    c      -0.000031     -0.000007     -0.000063      0.000000
     65 O2    c       0.000485     -0.000114     -0.000210      0.000000
     66 O2    c       0.000648     -0.000255      0.000997      0.000000
     67 O2    c      -0.000069     -0.000058     -0.000106      0.000000
     68 O2    c       0.000206     -0.000155      0.000149      0.000000
     69 O2    c      -0.000270      0.000208      0.000439      0.000000
     70 O2    c       0.000040      0.000167      0.000370      0.000000
     71 O2    c      -0.000185     -0.000279      0.001082      0.000000
     72 O2    c       0.000082      0.000000      0.000161      0.000000
     73 O3    c      -0.001000     -0.000164     -0.003241      0.000000
     74 O2    c      -0.000033      0.000372     -0.000243      0.000000
     75 O2    c      -0.000057     -0.000023     -0.000086      0.000000
     76 O2    c       0.000063     -0.000076     -0.000130      0.000000
     77 O2    c      -0.000049      0.000092     -0.000084      0.000000
     78 O2    c      -0.000090      0.000401     -0.000601      0.000000
     79 O2    c      -0.000496     -0.000568      0.000842      0.000000
     80 O2    c      -0.000510      0.000267     -0.000287      0.000000
     81 O2    c       0.000121     -0.000463      0.000146      0.000000
     82 O2    c       0.000025      0.000006      0.000001      0.000000
     83 O2    c       0.000148     -0.000067     -0.000354      0.000000
     84 O2    c      -0.000210      0.000624      0.000117      0.000000
     85 O2    c       0.000027      0.000081      0.000019      0.000000
     86 O2    c       0.000676     -0.000834     -0.000373      0.000000
     87 O2    c      -0.000643      0.000140     -0.000248      0.000000
     88 O2    c      -0.000043     -0.000006     -0.000000      0.000000
     89 O2    c      -0.000033      0.000059     -0.000017      0.000000
     90 O2    c      -0.000187      0.000142     -0.000240      0.000000
     91 O2    c       0.000400     -0.000002     -0.003306      0.000000
     92 O2    c      -0.000002      0.000093     -0.000758      0.000000
     93 O2    c       0.000400     -0.000303      0.001055      0.000000
     94 O2    c       0.000185     -0.000248      0.002136      0.000000
     95 O2    c       0.000251      0.000154      0.001232      0.000000
     96 O2    c       0.000065      0.000007     -0.000374      0.000000
     97 O2    c      -0.000699      0.000431     -0.000377      0.000000
     98 O2    c      -0.000068     -0.000194      0.000185      0.000000
     99 O3    c       0.000362     -0.000060     -0.000068      0.000000
    100 O2    c       0.000037     -0.000063      0.000089      0.000000
    101 O2    c       0.000021     -0.000078      0.000234      0.000000
    102 O3    c       0.000170      0.000019     -0.000527      0.000000
    103 O2    c       0.000186     -0.000172     -0.000293      0.000000
    104 O2    c      -0.000369      0.000023     -0.000407      0.000000
    105 O2    c       0.000002      0.000386     -0.000409      0.000000
    106 O2    c      -0.000344      0.000276     -0.000342      0.000000
    107 O2    c       0.000001      0.000020     -0.000009      0.000000
    108 O2    c      -0.000010      0.000269     -0.000022      0.000000
    109 O2    c      -0.000106      0.000033     -0.000357      0.000000
    110 O2    c      -0.000115      0.000039      0.000433      0.000000
    111 O2    c      -0.000296      0.000293      0.000188      0.000000
    112 O2    c      -0.000001     -0.000100      0.000066      0.000000
    113 O2    c      -0.001097      0.000769     -0.003154      0.000000
    114 O2    c      -0.000127      0.000093     -0.000439      0.000000
    115 O3    c       0.000388      0.000251     -0.000094      0.000000
    116 O2    c       0.000033     -0.000062     -0.000037      0.000000
    117 O2    c      -0.000008      0.000069     -0.000012      0.000000
    118 O2    c       0.000011      0.000018      0.000015      0.000000
    119 O2    c       0.000025     -0.000082      0.000085      0.000000
    120 O2    c      -0.000059      0.000007      0.000104      0.000000
    121 O2    c      -0.000036     -0.000104     -0.000009      0.000000
    122 O2    c       0.000643     -0.000245     -0.000202      0.000000
    123 O2    c       0.000139      0.000023      0.000112      0.000000
    124 O2    c       0.000028     -0.000068     -0.000014      0.000000
    125 O2    c       0.000004      0.000018     -0.000012      0.000000
    126 O2    c       0.000298      0.000065     -0.000239      0.000000
    127 O2    c      -0.001200      0.000762     -0.001711      0.000000
    128 O2    c       0.000001      0.000026     -0.000085      0.000000
    129 O3    c       0.000048      0.000036      0.000066      0.000000
    130 O2    c      -0.000089      0.000042      0.000120      0.000000
    131 O2    c      -0.000215      0.000482      0.000154      0.000000
    132 O3    c      -0.000293     -0.000147     -0.000726      0.000000
    133 O2    c       0.000022     -0.000069     -0.000019      0.000000
    134 O2    c      -0.001421      0.000718     -0.000125      0.000000
    135 O2    c      -0.000037     -0.000115     -0.000002      0.000000
    136 O2    c      -0.000106      0.000144      0.000087      0.000000
    137 O2    c      -0.000029      0.000042     -0.000064      0.000000
    138 O2    c      -0.000013     -0.000207      0.000014      0.000000
    139 O2    c      -0.001239     -0.001010     -0.000920      0.000000
    140 O2    c      -0.000073      0.000008     -0.000054      0.000000
    141 O2    c      -0.000092      0.000097     -0.000146      0.000000
    142 O2    c      -0.000020      0.000032     -0.000018      0.000000
    143 O2    c       0.000244      0.000060     -0.000235      0.000000
    144 O2    c      -0.000053      0.000014     -0.000055      0.000000
    145 O2    c      -0.000225     -0.000154      0.000113      0.000000
    146 O2    c      -0.000380      0.000380      0.000503      0.000000
    147 O2    c      -0.000089      0.000167      0.000126      0.000000
    148 O2    c      -0.000072      0.000010      0.000081      0.000000
    149 O2    c      -0.000005     -0.000087     -0.000003      0.000000
    150 O2    c       0.000605     -0.000504      0.000232      0.000000
    151 O2    c      -0.000289     -0.000320      0.002068      0.000000
    152 O3    c      -0.000656      0.000180     -0.000166      0.000000
    153 O2    c       0.000009     -0.000019      0.000144      0.000000
    154 O2    c      -0.000060     -0.000046     -0.000012      0.000000
    155 O3    c      -0.000153     -0.000180      0.000328      0.000000
    156 O2    c       0.000156     -0.000416     -0.002725      0.000000
    157 O2    c       0.000021      0.000076     -0.000080      0.000000
    158 O2    c      -0.000037     -0.000001      0.000608      0.000000
    159 O2    c      -0.000114      0.000075      0.000060      0.000000
    160 O2    c       0.000418     -0.000142     -0.001972      0.000000
    161 O2    c      -0.000043      0.000066     -0.000054      0.000000
    162 O2    c      -0.000040      0.000018      0.000240      0.000000
    163 O3    c       0.001455     -0.002193      0.000892      0.000000
    164 O2    c      -0.000024     -0.000001      0.000016      0.000000
    165 O2    c      -0.000033     -0.000020      0.000194      0.000000
    166 O2    c       0.000015     -0.000024     -0.000010      0.000000
    167 O2    c      -0.000024     -0.000003      0.000057      0.000000
    168 O2    c      -0.000148      0.000095      0.000040      0.000000
    169 O2    c       0.000124      0.000050     -0.000334      0.000000
    170 O2    c       0.000335      0.000174     -0.000506      0.000000
    171 O3    c       0.000031     -0.000319     -0.001099      0.000000
    172 O2    c       0.000370     -0.000140     -0.000116      0.000000
    173 O2    c       0.000001     -0.000104      0.000136      0.000000
    174 O3    c      -0.000009      0.000271      0.000358      0.000000
    175 O2    c       0.000073     -0.000062      0.000201      0.000000
    176 O2    c       0.000028      0.000053      0.000296      0.000000
    177 O3    c       0.000736     -0.000810      0.001043      0.000000
    178 O2    c      -0.000098      0.000112      0.000315      0.000000
    179 O2    c       0.000183      0.000018     -0.000027      0.000000
    180 O2    c       0.000104     -0.000122     -0.000172      0.000000
    181 F     c      -0.000009      0.000096      0.000739      0.000000
    182 F     c      -0.000014      0.000024     -0.000086      0.000000
    183 F     c      -0.000345      0.000360     -0.000057      0.000000
    184 F     c      -0.000202      0.000133     -0.000728      0.000000
    185 F     c       0.000136     -0.000023      0.000432      0.000000
    186 F     c      -0.000071      0.000076      0.000021      0.000000
    187 O2    s       0.000299     -0.000382      0.000639      0.000000
    188 O2    s       0.000119      0.000030      0.000590      0.000000
    189 O2    s       0.000166     -0.000150     -0.000364      0.000000
    190 O2    s       0.000080     -0.000004      0.000048      0.000000
    191 O2    s       0.000218     -0.000387     -0.000940      0.000000
    192 O2    s       0.000240      0.000105      0.000631      0.000000
    193 O2    s       0.000123      0.000022     -0.000049      0.000000
    194 O2    s      -0.000188      0.000109     -0.000171      0.000000
    195 O2    s       0.000062     -0.000027      0.000112      0.000000
    196 O2    s       0.000086      0.000001     -0.000243      0.000000
    197 O2    s      -0.000341      0.000199      0.000305      0.000000
    198 O2    s      -0.000030      0.000005     -0.000035      0.000000
    199 O3    s      -0.000105      0.000168      0.002544      0.000000
    200 O2    s       0.000149     -0.000134      0.000074      0.000000
    201 O2    s      -0.000025      0.000110      0.000087      0.000000
    202 O2    s      -0.000022      0.000000      0.000055      0.000000
    203 O2    s       0.000261     -0.000207      0.000047      0.000000
    204 O2    s      -0.000183     -0.000019     -0.000255      0.000000
    205 O2    s       0.000160      0.000193      0.000716      0.000000
    206 O2    s      -0.000011      0.000201      0.000607      0.000000
    207 O2    s       0.000003     -0.000103     -0.000224      0.000000
    208 O2    s       0.000040     -0.000061     -0.000053      0.000000
    209 O2    s       0.000002      0.000078      0.000551      0.000000
    210 O2    s       0.000313     -0.000102      0.000234      0.000000
    211 O2    s       0.000023      0.000041      0.000047      0.000000
    212 O2    s       0.000278     -0.000377      0.000304      0.000000
    213 O2    s      -0.000126      0.000012     -0.000172      0.000000
    214 O2    s       0.000198     -0.000410     -0.000298      0.000000
    215 O2    s       0.000078     -0.000021      0.000100      0.000000
    216 O2    s      -0.000173      0.000014     -0.000074      0.000000
    217 O2    s       0.000054     -0.000073      0.000547      0.000000
    218 O2    s      -0.000134      0.000125     -0.000131      0.000000
    219 O2    s      -0.000044     -0.000071      0.000283      0.000000
    220 O2    s       0.000001     -0.000010     -0.000078      0.000000
    221 O2    s      -0.000386      0.000064      0.000822      0.000000
    222 O2    s      -0.000080     -0.000001      0.000125      0.000000
    223 O2    s      -0.000016     -0.000207     -0.000758      0.000000
    224 O2    s       0.000176     -0.000288      0.000328      0.000000
    225 O3    s      -0.000015      0.000312      0.000246      0.000000
    226 O2    s      -0.000038      0.000005      0.000043      0.000000
    227 O2    s      -0.000065     -0.000082     -0.001104      0.000000
    228 O3    s      -0.000429     -0.000282      0.000514      0.000000
    229 O2    s       0.000010      0.000025      0.000066      0.000000
    230 O2    s      -0.000717      0.000488      0.000997      0.000000
    231 O2    s       0.000111      0.000185     -0.000450      0.000000
    232 O2    s      -0.000362      0.000458     -0.000229      0.000000
    233 O2    s      -0.000062      0.000037     -0.000109      0.000000
    234 O2    s      -0.000080      0.000032      0.000771      0.000000
    235 O2    s       0.000064     -0.000111      0.000154      0.000000
    236 O2    s       0.000023     -0.000020     -0.000079      0.000000
    237 O2    s      -0.000044     -0.000062      0.000197      0.000000
    238 O2    s       0.000051      0.000146     -0.000207      0.000000
    239 O2    s      -0.000061     -0.000191      0.000212      0.000000
    240 O2    s      -0.000003      0.000009      0.000019      0.000000
    241 O3    s       0.000170     -0.000555      0.000250      0.000000
    242 O2    s      -0.000041      0.000139      0.000026      0.000000
    243 O2    s       0.000111     -0.000098     -0.000041      0.000000
    244 O2    s      -0.000017      0.000029      0.000091      0.000000
    245 O2    s       0.000000      0.000036     -0.000133      0.000000
    246 O2    s       0.000246     -0.000161     -0.000407      0.000000
    247 O2    s       0.000114      0.000032     -0.000012      0.000000
    248 O2    s      -0.000086     -0.000189     -0.000203      0.000000
    249 O2    s      -0.000058     -0.000017     -0.000176      0.000000
    250 O2    s       0.000017      0.000038     -0.000182      0.000000
    251 O2    s      -0.000033     -0.000024      0.000092      0.000000
    252 O2    s      -0.000077      0.000078      0.000327      0.000000
    253 O2    s       0.000777     -0.000797      0.001825      0.000000
    254 O2    s      -0.000046      0.000017      0.000148      0.000000
    255 O3    s      -0.000268      0.000001     -0.000200      0.000000
    256 O2    s       0.000028      0.000012     -0.000179      0.000000
    257 O2    s      -0.000127      0.000109     -0.000541      0.000000
    258 O3    s       0.000259     -0.000110      0.000462      0.000000
    259 O2    s      -0.000017      0.000049      0.000124      0.000000
    260 O2    s      -0.000221      0.000034      0.000719      0.000000
    261 O2    s      -0.000028      0.000019      0.000119      0.000000
    262 O2    s       0.000135     -0.000056      0.000010      0.000000
    263 O2    s       0.000046     -0.000051      0.000067      0.000000
    264 O2    s      -0.000520      0.000681      0.001838      0.000000
    265 O2    s       0.000716      0.000161     -0.000429      0.000000
    266 O2    s       0.000015      0.000037      0.000124      0.000000
    267 O2    s       0.000139     -0.000038      0.000260      0.000000
    268 O2    s       0.000044     -0.000087      0.000095      0.000000
    269 O2    s       0.000035     -0.000069      0.000078      0.000000
    270 O2    s       0.000086      0.000003      0.000053      0.000000
    271 O2    s      -0.000011     -0.000049      0.000235      0.000000
    272 O2    s       0.000133      0.000141     -0.000134      0.000000
    273 O2    s       0.000037     -0.000237     -0.000176      0.000000
    274 O2    s      -0.000043     -0.000123     -0.000340      0.000000
    275 O2    s       0.000044      0.000045     -0.000013      0.000000
    276 O2    s       0.000154     -0.000388     -0.000178      0.000000
    277 O2    s       0.000149     -0.000067     -0.000554      0.000000
    278 O3    s       0.000917     -0.000282     -0.000332      0.000000
    279 O2    s      -0.000014     -0.000010      0.000142      0.000000
    280 O2    s       0.000055     -0.000047     -0.000126      0.000000
    281 O3    s       0.000283      0.000192     -0.000632      0.000000
    282 O2    s      -0.000543      0.000623      0.001678      0.000000
    283 O2    s      -0.000013     -0.000076     -0.000071      0.000000
    284 O2    s      -0.000021      0.000164     -0.000103      0.000000
    285 O2    s       0.000161     -0.000082     -0.000077      0.000000
    286 O2    s      -0.000030      0.000566     -0.000545      0.000000
    287 O2    s       0.000007      0.000037      0.000201      0.000000
    288 O2    s       0.000119     -0.000076      0.000467      0.000000
    289 O3    s      -0.000550      0.000393      0.001170      0.000000
    290 O2    s      -0.000027     -0.000013     -0.000009      0.000000
    291 O2    s       0.000073      0.000111     -0.000595      0.000000
    292 O2    s      -0.000061      0.000056      0.000108      0.000000
    293 O2    s      -0.000023     -0.000056      0.000064      0.000000
    294 O2    s       0.000366      0.000100      0.001037      0.000000
    295 O2    s      -0.000038     -0.000209      0.000566      0.000000
    296 O2    s       0.000041      0.000063      0.000594      0.000000
    297 O3    s       0.000010      0.000242      0.000965      0.000000
    298 O2    s       0.000273     -0.000180     -0.000378      0.000000
    299 O2    s      -0.000074      0.000072     -0.000175      0.000000
    300 O3    s      -0.000261     -0.000152     -0.000065      0.000000
    301 O2    s      -0.000031      0.000059      0.000206      0.000000
    302 O2    s       0.000044     -0.000071     -0.000006      0.000000
    303 O3    s      -0.000492      0.000390     -0.000124      0.000000
    304 O2    s       0.000031     -0.000091     -0.000025      0.000000
    305 O2    s       0.000072     -0.000115     -0.000504      0.000000
    306 O2    s      -0.000030      0.000033     -0.000043      0.000000
    307 F     s      -0.000529      0.000158      0.000394      0.000000
    308 F     s       0.000031     -0.000061      0.000266      0.000000
    309 F     s      -0.000279      0.000199     -0.001758      0.000000
    310 F     s      -0.000353      0.000203     -0.000854      0.000000
    311 F     s      -0.000115     -0.000030     -0.001278      0.000000
    312 F     s       0.000137     -0.000136     -0.000151      0.000000
--------------------------------------------------------------------------------
  Maximum abs         0.001455      0.002193      0.004879      0.000000
--------------------------------------------------------------------------------


  Time to end of optimisation =       7.4281 seconds


  Peak dynamic memory used =      19.13 MB 


  Timing analysis for GULP :

--------------------------------------------------------------------------------
  Task / Subroutine                                          Time (Seconds)
--------------------------------------------------------------------------------
  Calculation of reciprocal space energy and derivatives          0.2892
  Calculation of real space energy and derivatives                6.2182
  Calculation of three-body energy and derivatives                0.6911
  Calculation of matrix inversion                                 0.1920
--------------------------------------------------------------------------------
  Total CPU time                                                  7.4282
--------------------------------------------------------------------------------


  Dump file written as out.res                                                 
  CIF file written as out.cif                                                 


  Job Finished at 17:15.18 29th November   2016                               

