********************************************************************************
*                       GENERAL UTILITY LATTICE PROGRAM                        *
*                                 Julian Gale                                  *
*                      Nanochemistry Research Institute                        *
*                           Department of Chemistry                            *
*                    Curtin University, Western Australia                      *
********************************************************************************
* Version = 4.2.0 * Last modified =  20th January 2014                         *
********************************************************************************
*  optimise     - perform optimisation run                                     *
*  conp         - constant pressure calculation                                *
*  qok          - running with non charge neutral cell is OK                   *
********************************************************************************

  Job Started  at 13:28.56 29th November   2016                               

  Number of CPUs =     1


  Total number of configurations input =   1

********************************************************************************
*  Input for Configuration =   1                                               *
********************************************************************************

  Formula = Si57Ge3O120F6                                               

  Number of irreducible atoms/shells =     312


  Total number atoms/shells =     312

  Dimensionality = 3               :  Bulk   


  Charge on solid   =  -6.000000 =>neutralising background added


  Cartesian lattice vectors (Angstroms) :

       11.964795    0.000000    0.000000
       -5.942358   10.405705    0.000000
       -0.191787    0.378084   29.351813

  Cell parameters (Angstroms/Degrees):

  a =      11.9648    alpha =  89.1735
  b =      11.9829    beta  =  90.3743
  c =      29.3549    gamma = 119.7293

  Initial cell volume =        3654.363181 Angs**3

  Temperature of configuration =  0.000     K 

  Pressure of configuration =         0.000 GPa 

  Fractional coordinates of asymmetric unit :

--------------------------------------------------------------------------------
   No.  Atomic       x           y          z         Charge      Occupancy
        Label      (Frac)      (Frac)     (Frac)        (e)         (Frac)  
--------------------------------------------------------------------------------
      1 Si    c    0.699600    0.375700    0.033890     4.00000    1.000000    
      2 Si    c    0.626535 *  0.315880 *  0.365694 *   4.00000    1.000000    
      3 Si    c    0.682496 *  0.302769 *  0.695833 *   4.00000    1.000000    
      4 Si    c    0.301659 *  0.616773 *  0.532653 *   4.00000    1.000000    
      5 Si    c    0.380914 *  0.673157 *  0.867647 *   4.00000    1.000000    
      6 Si    c    0.322042 *  0.705138 *  0.199319 *   4.00000    1.000000    
      7 Si    c    0.369943 *  0.698963 *  0.300558 *   4.00000    1.000000    
      8 Si    c    0.323027 *  0.619154 *  0.970342 *   4.00000    1.000000    
      9 Si    c    0.304837 *  0.666980 *  0.633758 *   4.00000    1.000000    
     10 Si    c    0.618689 *  0.296913 *  0.798210 *   4.00000    1.000000    
     11 Si    c    0.683142 *  0.380683 *  0.467996 *   4.00000    1.000000    
     12 Si    c    0.704953 *  0.324983 *  0.136278 *   4.00000    1.000000    
     13 Ge    c    0.531201 *  0.430321 *  0.967053 *   4.00000    1.000000    
     14 Si    c    0.579221 *  0.100931 *  0.303009 *   4.00000    1.000000    
     15 Si    c    0.901855 *  0.474681 *  0.634644 *   4.00000    1.000000    
     16 Si    c    0.475417 *  0.586091 *  0.466193 *   4.00000    1.000000    
     17 Si    c    0.413811 *  0.880888 *  0.799649 *   4.00000    1.000000    
     18 Si    c    0.113046 *  0.531360 *  0.134975 *   4.00000    1.000000    
     19 Si    c    0.412829 *  0.529066 *  0.363160 *   4.00000    1.000000    
     20 Si    c    0.108960 *  0.581864 *  0.033408 *   4.00000    1.000000    
     21 Si    c    0.470963 *  0.876119 *  0.696457 *   4.00000    1.000000    
     22 Si    c    0.592678 *  0.465589 *  0.867089 *   4.00000    1.000000    
     23 Si    c    0.893745 *  0.419533 *  0.533447 *   4.00000    1.000000    
     24 Si    c    0.530743 *  0.113282 *  0.201405 *   4.00000    1.000000    
     25 Si    c    0.305732 *  0.392634 *  0.853796 *   4.00000    1.000000    
     26 Si    c    0.601121 *  0.903864 *  0.186286 *   4.00000    1.000000    
     27 Si    c    0.103131 *  0.699066 *  0.519117 *   4.00000    1.000000    
     28 Ge    c    0.685769 *  0.585938 *  0.357802 *   4.00000    1.000000    
     29 Ge    c    0.413452 *  0.092188 *  0.690239 *   4.00000    1.000000    
     30 Si    c    0.904067 *  0.303015 *  0.020621 *   4.00000    1.000000    
     31 Si    c    0.401417 *  0.300957 *  0.482972 *   4.00000    1.000000    
     32 Si    c    0.904561 *  0.603440 *  0.150222 *   4.00000    1.000000    
     33 Si    c    0.697052 *  0.093176 *  0.814710 *   4.00000    1.000000    
     34 Si    c    0.606524 *  0.701858 *  0.988808 *   4.00000    1.000000    
     35 Si    c    0.101894 *  0.391680 *  0.649164 *   4.00000    1.000000    
     36 Si    c    0.296873 *  0.901114 *  0.316559 *   4.00000    1.000000    
     37 Si    c    0.251207 *  0.332751 *  0.956556 *   4.00000    1.000000    
     38 Si    c    0.654796 *  0.899214 *  0.287615 *   4.00000    1.000000    
     39 Si    c    0.103129 *  0.751980 *  0.620314 *   4.00000    1.000000    
     40 Si    c    0.759174 *  0.668651 *  0.453738 *   4.00000    1.000000    
     41 Si    c    0.331417 *  0.083383 *  0.786330 *   4.00000    1.000000    
     42 Si    c    0.914977 *  0.253740 *  0.121611 *   4.00000    1.000000    
     43 Si    c    0.340984 *  0.248571 *  0.380817 *   4.00000    1.000000    
     44 Si    c    0.907235 *  0.657664 *  0.048376 *   4.00000    1.000000    
     45 Si    c    0.751040 *  0.085508 *  0.712696 *   4.00000    1.000000    
     46 Si    c    0.665644 *  0.744401 *  0.885264 *   4.00000    1.000000    
     47 Si    c    0.092228 *  0.337557 *  0.548193 *   4.00000    1.000000    
     48 Si    c    0.251709 *  0.914427 *  0.215238 *   4.00000    1.000000    
     49 Si    c    0.966702 *  0.122011 *  0.970020 *   4.00000    1.000000    
     50 Si    c    0.874078 *  0.836267 *  0.304308 *   4.00000    1.000000    
     51 Si    c    0.163383 *  0.031441 *  0.637330 *   4.00000    1.000000    
     52 Si    c    0.034512 *  0.881033 *  0.470047 *   4.00000    1.000000    
     53 Si    c    0.120396 *  0.147986 *  0.803993 *   4.00000    1.000000    
     54 Si    c    0.851232 *  0.973900 *  0.137177 *   4.00000    1.000000    
     55 Si    c    0.118982 *  0.969961 *  0.367615 *   4.00000    1.000000    
     56 Si    c    0.851288 *  0.882637 *  0.036479 *   4.00000    1.000000    
     57 Si    c    0.032025 *  0.143758 *  0.701138 *   4.00000    1.000000    
     58 Si    c    0.875730 *  0.026694 *  0.868916 *   4.00000    1.000000    
     59 Si    c    0.155266 *  0.121550 *  0.535476 *   4.00000    1.000000    
     60 Si    c    0.970951 *  0.848505 *  0.202607 *   4.00000    1.000000    
     61 O2    c    0.932249 *  0.002267 *  0.002922 *   0.87073    1.000000    
     62 O2    c    0.996563 *  0.928916 *  0.335878 *   0.87073    1.000000    
     63 O2    c    0.073137 *  0.061714 *  0.670225 *   0.87073    1.000000    
     64 O2    c    0.079637 *  0.001251 *  0.502885 *   0.87073    1.000000    
     65 O2    c    0.998760 *  0.071935 *  0.836942 *   0.87073    1.000000    
     66 O2    c    0.926616 *  0.929736 *  0.171160 *   0.87073    1.000000    
     67 O2    c    0.326002 *  0.573198 *  0.333356 *   0.87073    1.000000    
     68 O2    c    0.428285 *  0.746820 *  0.667091 *   0.87073    1.000000    
     69 O2    c    0.235030 *  0.657357 *  0.000311 *   0.87073    1.000000    
     70 O2    c    0.661597 *  0.422163 *  0.828936 *   0.87073    1.000000    
     71 O2    c    0.582518 *  0.240937 *  0.169412 *   0.87073    1.000000    
     72 O2    c    0.767306 *  0.342948 *  0.501630 *   0.87073    1.000000    
     73 O3    c    0.580500 *  0.341431 *  0.002197 *   1.33043    1.000000    
     74 O2    c    0.779170 *  0.430999 *  0.667860 *   0.87073    1.000000    
     75 O2    c    0.657116 *  0.219618 *  0.337501 *   0.87073    1.000000    
     76 O2    c    0.423255 *  0.657331 *  0.499176 *   0.87073    1.000000    
     77 O2    c    0.240173 *  0.583244 *  0.166667 *   0.87073    1.000000    
     78 O2    c    0.343860 *  0.757012 *  0.833604 *   0.87073    1.000000    
     79 O2    c    0.118989 *  0.212547 *  0.974483 *   0.87073    1.000000    
     80 O2    c    0.777126 *  0.894700 *  0.308602 *   0.87073    1.000000    
     81 O2    c    0.105220 *  0.876306 *  0.641519 *   0.87073    1.000000    
     82 O2    c    0.881688 *  0.788847 *  0.478402 *   0.87073    1.000000    
     83 O2    c    0.211013 *  0.084565 *  0.811706 *   0.87073    1.000000    
     84 O2    c    0.915214 *  0.127534 *  0.142259 *   0.87073    1.000000    
     85 O2    c    0.214470 *  0.123858 *  0.361724 *   0.87073    1.000000    
     86 O2    c    0.904934 *  0.784372 *  0.028807 *   0.87073    1.000000    
     87 O2    c    0.877961 *  0.084766 *  0.694750 *   0.87073    1.000000    
     88 O2    c    0.787355 *  0.872877 *  0.864144 *   0.87073    1.000000    
     89 O2    c    0.091110 *  0.211685 *  0.528105 *   0.87073    1.000000    
     90 O2    c    0.124845 *  0.914072 *  0.195248 *   0.87073    1.000000    
     91 O2    c    0.932593 *  0.857304 *  0.253521 *   0.87073    1.000000    
     92 O2    c    0.141460 *  0.070231 *  0.586461 *   0.87073    1.000000    
     93 O2    c    0.923878 *  0.068500 *  0.919488 *   0.87073    1.000000    
     94 O2    c    0.066071 *  0.133349 *  0.753369 *   0.87073    1.000000    
     95 O2    c    0.870382 *  0.934936 *  0.087093 *   0.87073    1.000000    
     96 O2    c    0.071106 *  0.936235 *  0.419341 *   0.87073    1.000000    
     97 O2    c    0.897703 *  0.203577 *  0.982041 *   0.87073    1.000000    
     98 O3    c    0.800784 *  0.690188 *  0.316297 *   1.33043    1.000000    
     99 O3    c    0.309677 *  0.102917 *  0.648384 *   1.33043    1.000000    
    100 O2    c    0.105380 *  0.798489 *  0.480617 *   0.87073    1.000000    
    101 O2    c    0.206354 *  0.299532 *  0.815281 *   0.87073    1.000000    
    102 O2    c    0.698881 *  0.905973 *  0.147547 *   0.87073    1.000000    
    103 O2    c    0.199949 *  0.899439 *  0.355436 *   0.87073    1.000000    
    104 O2    c    0.699579 *  0.813074 *  0.024160 *   0.87073    1.000000    
    105 O2    c    0.102839 *  0.294679 *  0.688140 *   0.87073    1.000000    
    106 O2    c    0.791300 *  0.092940 *  0.854129 *   0.87073    1.000000    
    107 O2    c    0.306982 *  0.206566 *  0.522457 *   0.87073    1.000000    
    108 O2    c    0.903144 *  0.698895 *  0.188483 *   0.87073    1.000000    
    109 O2    c    0.317559 *  0.645076 *  0.249813 *   0.87073    1.000000    
    110 O2    c    0.360738 *  0.670355 *  0.583010 *   0.87073    1.000000    
    111 O2    c    0.326188 *  0.669766 *  0.918109 *   0.87073    1.000000    
    112 O2    c    0.673757 *  0.347921 *  0.747560 *   0.87073    1.000000    
    113 O2    c    0.649130 *  0.324038 *  0.085740 *   0.87073    1.000000    
    114 O2    c    0.681382 *  0.324682 *  0.417938 *   0.87073    1.000000    
    115 O3    c    0.364071 *  0.315111 *  0.976338 *   1.33043    1.000000    
    116 O2    c    0.666000 *  0.031820 *  0.305613 *   0.87073    1.000000    
    117 O2    c    0.969921 *  0.629427 *  0.637905 *   0.87073    1.000000    
    118 O2    c    0.630614 *  0.672848 *  0.469753 *   0.87073    1.000000    
    119 O2    c    0.328178 *  0.950856 *  0.803250 *   0.87073    1.000000    
    120 O2    c    0.047232 *  0.375773 *  0.139506 *   0.87073    1.000000    
    121 O2    c    0.331478 *  0.372166 *  0.363481 *   0.87073    1.000000    
    122 O2    c    0.041394 *  0.670632 *  0.029635 *   0.87073    1.000000    
    123 O2    c    0.628279 *  0.952237 *  0.696546 *   0.87073    1.000000    
    124 O2    c    0.675471 *  0.623785 *  0.866031 *   0.87073    1.000000    
    125 O2    c    0.961418 *  0.331107 *  0.529583 *   0.87073    1.000000    
    126 O2    c    0.374823 *  0.046964 *  0.197239 *   0.87073    1.000000    
    127 O2    c    0.769950 *  0.301225 *  0.013106 *   0.87073    1.000000    
    128 O3    c    0.701346 *  0.452015 *  0.341209 *   1.33043    1.000000    
    129 O3    c    0.546067 *  0.241311 *  0.672025 *   1.33043    1.000000    
    130 O2    c    0.233532 *  0.693073 *  0.510769 *   0.87073    1.000000    
    131 O2    c    0.310665 *  0.529537 *  0.847512 *   0.87073    1.000000    
    132 O2    c    0.465964 *  0.773506 *  0.177523 *   0.87073    1.000000    
    133 O2    c    0.294407 *  0.765748 *  0.323128 *   0.87073    1.000000    
    134 O2    c    0.467514 *  0.696104 *  0.990713 *   0.87073    1.000000    
    135 O2    c    0.236957 *  0.523388 *  0.656029 *   0.87073    1.000000    
    136 O2    c    0.690053 *  0.222988 *  0.819768 *   0.87073    1.000000    
    137 O2    c    0.538083 *  0.306083 *  0.488613 *   0.87073    1.000000    
    138 O2    c    0.773161 *  0.467920 *  0.157925 *   0.87073    1.000000    
    139 O2    c    0.785387 *  0.532589 *  0.028162 *   0.87073    1.000000    
    140 O2    c    0.469760 *  0.252798 *  0.363170 *   0.87073    1.000000    
    141 O2    c    0.745476 *  0.208519 *  0.693253 *   0.87073    1.000000    
    142 O2    c    0.220151 *  0.461345 *  0.528532 *   0.87073    1.000000    
    143 O2    c    0.535358 *  0.738463 *  0.866825 *   0.87073    1.000000    
    144 O2    c    0.249875 *  0.789144 *  0.194803 *   0.87073    1.000000    
    145 O2    c    0.525095 *  0.777024 *  0.306774 *   0.87073    1.000000    
    146 O2    c    0.259463 *  0.465237 *  0.973777 *   0.87073    1.000000    
    147 O2    c    0.225162 *  0.742842 *  0.639424 *   0.87073    1.000000    
    148 O2    c    0.463693 *  0.209535 *  0.802777 *   0.87073    1.000000    
    149 O2    c    0.750405 *  0.535188 *  0.471719 *   0.87073    1.000000    
    150 O2    c    0.789053 *  0.252863 *  0.141171 *   0.87073    1.000000    
    151 O2    c    0.239909 *  0.323408 *  0.901177 *   0.87073    1.000000    
    152 O2    c    0.671907 *  0.900268 *  0.232932 *   0.87073    1.000000    
    153 O2    c    0.104304 *  0.770442 *  0.565656 *   0.87073    1.000000    
    154 O3    c    0.787092 *  0.694304 *  0.401067 *   1.33043    1.000000    
    155 O3    c    0.304419 *  0.084933 *  0.733719 *   1.33043    1.000000    
    156 O2    c    0.913187 *  0.233639 *  0.067125 *   0.87073    1.000000    
    157 O2    c    0.332378 *  0.236491 *  0.435731 *   0.87073    1.000000    
    158 O2    c    0.905648 *  0.674487 *  0.102819 *   0.87073    1.000000    
    159 O2    c    0.762530 *  0.090173 *  0.767516 *   0.87073    1.000000    
    160 O2    c    0.678351 *  0.758967 *  0.939536 *   0.87073    1.000000    
    161 O2    c    0.093421 *  0.316877 *  0.602725 *   0.87073    1.000000    
    162 O2    c    0.230329 *  0.910972 *  0.269711 *   0.87073    1.000000    
    163 O3    c    0.599887 *  0.571265 *  0.002223 *   1.33043    1.000000    
    164 O2    c    0.437514 *  0.022240 *  0.326223 *   0.87073    1.000000    
    165 O2    c    0.979541 *  0.410356 *  0.658710 *   0.87073    1.000000    
    166 O2    c    0.423642 *  0.443698 *  0.487621 *   0.87073    1.000000    
    167 O2    c    0.556159 *  0.969802 *  0.820290 *   0.87073    1.000000    
    168 O2    c    0.030455 *  0.589345 *  0.158300 *   0.87073    1.000000    
    169 O3    c    0.547238 *  0.587901 *  0.337351 *   1.33043    1.000000    
    170 O2    c    0.029162 *  0.441611 *  0.009773 *   0.87073    1.000000    
    171 O3    c    0.411207 *  0.951824 *  0.670661 *   1.33043    1.000000    
    172 O2    c    0.447253 *  0.412247 *  0.846579 *   0.87073    1.000000    
    173 O2    c    0.975976 *  0.561625 *  0.510622 *   0.87073    1.000000    
    174 O2    c    0.589158 *  0.030942 *  0.178272 *   0.87073    1.000000    
    175 O2    c    0.581671 *  0.162090 *  0.252829 *   0.87073    1.000000    
    176 O2    c    0.842508 *  0.418864 *  0.584638 *   0.87073    1.000000    
    177 O3    c    0.601635 *  0.410026 *  0.915117 *   1.33043    1.000000    
    178 O2    c    0.416426 *  0.831747 *  0.748829 *   0.87073    1.000000    
    179 O2    c    0.167168 *  0.584172 *  0.083756 *   0.87073    1.000000    
    180 O2    c    0.422821 *  0.582964 *  0.415082 *   0.87073    1.000000    
    181 F     c    0.448708 *  0.904014 *  0.251323 *   0.56000    1.000000    
    182 F     c    0.100379 *  0.542245 *  0.584025 *   0.56000    1.000000    
    183 F     c    0.476216 *  0.522162 *  0.928749 *   0.56000    1.000000    
    184 F     c    0.518194 *  0.089877 *  0.738763 *   0.56000    1.000000    
    185 F     c    0.912753 *  0.454340 *  0.083963 *   0.56000    1.000000    
    186 F     c    0.578898 *  0.481107 *  0.406629 *   0.56000    1.000000    
    187 O2    s    0.927077 *  0.002495 *  0.002924 *  -2.87073    1.000000    
    188 O2    s    0.997916 *  0.924052 *  0.336246 *  -2.87073    1.000000    
    189 O2    s    0.077732 *  0.067887 *  0.670350 *  -2.87073    1.000000    
    190 O2    s    0.083189 *  0.001422 *  0.502893 *  -2.87073    1.000000    
    191 O2    s    0.998480 *  0.075351 *  0.836857 *  -2.87073    1.000000    
    192 O2    s    0.922903 *  0.925690 *  0.170768 *  -2.87073    1.000000    
    193 O2    s    0.339156 *  0.581262 *  0.333097 *  -2.87073    1.000000    
    194 O2    s    0.420356 *  0.751886 *  0.666733 *  -2.87073    1.000000    
    195 O2    s    0.232045 *  0.645844 *  0.000338 *  -2.87073    1.000000    
    196 O2    s    0.650146 *  0.413210 *  0.829476 *  -2.87073    1.000000    
    197 O2    s    0.589778 *  0.236437 *  0.169293 *  -2.87073    1.000000    
    198 O2    s    0.771541 *  0.354789 *  0.501391 *  -2.87073    1.000000    
    199 O3    s    0.589707 *  0.351360 *  0.003089 *  -3.33043    1.000000    
    200 O2    s    0.781507 *  0.421710 *  0.667436 *  -2.87073    1.000000    
    201 O2    s    0.645826 *  0.217621 *  0.336972 *  -2.87073    1.000000    
    202 O2    s    0.416079 *  0.645648 *  0.499212 *  -2.87073    1.000000    
    203 O2    s    0.235525 *  0.590554 *  0.166786 *  -2.87073    1.000000    
    204 O2    s    0.354962 *  0.760932 *  0.833693 *  -2.87073    1.000000    
    205 O2    s    0.116278 *  0.215508 *  0.972038 *  -2.87073    1.000000    
    206 O2    s    0.773685 *  0.889323 *  0.305937 *  -2.87073    1.000000    
    207 O2    s    0.110795 *  0.878507 *  0.638860 *  -2.87073    1.000000    
    208 O2    s    0.885430 *  0.786482 *  0.475130 *  -2.87073    1.000000    
    209 O2    s    0.213566 *  0.091094 *  0.808416 *  -2.87073    1.000000    
    210 O2    s    0.908390 *  0.124289 *  0.139601 *  -2.87073    1.000000    
    211 O2    s    0.218094 *  0.121258 *  0.364337 *  -2.87073    1.000000    
    212 O2    s    0.899461 *  0.781899 *  0.031579 *  -2.87073    1.000000    
    213 O2    s    0.880327 *  0.090924 *  0.697297 *  -2.87073    1.000000    
    214 O2    s    0.784161 *  0.875938 *  0.866807 *  -2.87073    1.000000    
    215 O2    s    0.097991 *  0.215305 *  0.530940 *  -2.87073    1.000000    
    216 O2    s    0.121904 *  0.907256 *  0.198061 *  -2.87073    1.000000    
    217 O2    s    0.930822 *  0.854059 *  0.253009 *  -2.87073    1.000000    
    218 O2    s    0.145351 *  0.072039 *  0.585944 *  -2.87073    1.000000    
    219 O2    s    0.922974 *  0.069511 *  0.919160 *  -2.87073    1.000000    
    220 O2    s    0.068434 *  0.136129 *  0.753339 *  -2.87073    1.000000    
    221 O2    s    0.866049 *  0.933269 *  0.086858 *  -2.87073    1.000000    
    222 O2    s    0.072284 *  0.933722 *  0.419368 *  -2.87073    1.000000    
    223 O2    s    0.905893 *  0.204663 *  0.984596 *  -2.87073    1.000000    
    224 O3    s    0.801384 *  0.699725 *  0.317703 *  -3.33043    1.000000    
    225 O3    s    0.300053 *  0.094074 *  0.649933 *  -3.33043    1.000000    
    226 O2    s    0.097719 *  0.796872 *  0.483496 *  -2.87073    1.000000    
    227 O2    s    0.207603 *  0.293333 *  0.818047 *  -2.87073    1.000000    
    228 O2    s    0.705079 *  0.912940 *  0.150365 *  -2.87073    1.000000    
    229 O2    s    0.201266 *  0.907068 *  0.352761 *  -2.87073    1.000000    
    230 O2    s    0.705888 *  0.809054 *  0.021852 *  -2.87073    1.000000    
    231 O2    s    0.095199 *  0.288558 *  0.685520 *  -2.87073    1.000000    
    232 O2    s    0.790031 *  0.086004 *  0.851446 *  -2.87073    1.000000    
    233 O2    s    0.301455 *  0.207839 *  0.519623 *  -2.87073    1.000000    
    234 O2    s    0.910389 *  0.704644 *  0.185984 *  -2.87073    1.000000    
    235 O2    s    0.323460 *  0.656867 *  0.249876 *  -2.87073    1.000000    
    236 O2    s    0.348993 *  0.664551 *  0.583093 *  -2.87073    1.000000    
    237 O2    s    0.331666 *  0.665090 *  0.917959 *  -2.87073    1.000000    
    238 O2    s    0.668675 *  0.337928 *  0.747877 *  -2.87073    1.000000    
    239 O2    s    0.660037 *  0.329292 *  0.085872 *  -2.87073    1.000000    
    240 O2    s    0.676289 *  0.329743 *  0.418166 *  -2.87073    1.000000    
    241 O3    s    0.363011 *  0.324722 *  0.973546 *  -3.33043    1.000000    
    242 O2    s    0.655661 *  0.025272 *  0.303443 *  -2.87073    1.000000    
    243 O2    s    0.976683 *  0.625887 *  0.635704 *  -2.87073    1.000000    
    244 O2    s    0.627243 *  0.663381 *  0.467772 *  -2.87073    1.000000    
    245 O2    s    0.337491 *  0.956572 *  0.801188 *  -2.87073    1.000000    
    246 O2    s    0.040178 *  0.378961 *  0.137163 *  -2.87073    1.000000    
    247 O2    s    0.340677 *  0.374802 *  0.365304 *  -2.87073    1.000000    
    248 O2    s    0.034809 *  0.660221 *  0.031914 *  -2.87073    1.000000    
    249 O2    s    0.625481 *  0.958659 *  0.698250 *  -2.87073    1.000000    
    250 O2    s    0.666486 *  0.621316 *  0.868173 *  -2.87073    1.000000    
    251 O2    s    0.968276 *  0.340901 *  0.531952 *  -2.87073    1.000000    
    252 O2    s    0.377889 *  0.039936 *  0.199543 *  -2.87073    1.000000    
    253 O2    s    0.777388 *  0.309057 *  0.016096 *  -2.87073    1.000000    
    254 O3    s    0.692407 *  0.447195 *  0.344984 *  -3.33043    1.000000    
    255 O3    s    0.551073 *  0.237270 *  0.675842 *  -3.33043    1.000000    
    256 O2    s    0.226814 *  0.685725 *  0.513977 *  -2.87073    1.000000    
    257 O2    s    0.317590 *  0.530485 *  0.850306 *  -2.87073    1.000000    
    258 O2    s    0.465442 *  0.780234 *  0.180707 *  -2.87073    1.000000    
    259 O2    s    0.302470 *  0.773232 *  0.320060 *  -2.87073    1.000000    
    260 O2    s    0.466380 *  0.688599 *  0.988347 *  -2.87073    1.000000    
    261 O2    s    0.229711 *  0.524324 *  0.652962 *  -2.87073    1.000000    
    262 O2    s    0.683490 *  0.216434 *  0.816998 *  -2.87073    1.000000    
    263 O2    s    0.538414 *  0.313192 *  0.485882 *  -2.87073    1.000000    
    264 O2    s    0.779975 *  0.467482 *  0.154863 *  -2.87073    1.000000    
    265 O2    s    0.790695 *  0.531094 *  0.030919 *  -2.87073    1.000000    
    266 O2    s    0.471102 *  0.258710 *  0.365348 *  -2.87073    1.000000    
    267 O2    s    0.739777 *  0.204079 *  0.695626 *  -2.87073    1.000000    
    268 O2    s    0.214896 *  0.464299 *  0.531050 *  -2.87073    1.000000    
    269 O2    s    0.532563 *  0.732022 *  0.868858 *  -2.87073    1.000000    
    270 O2    s    0.257767 *  0.793920 *  0.197451 *  -2.87073    1.000000    
    271 O2    s    0.522783 *  0.782145 *  0.304095 *  -2.87073    1.000000    
    272 O2    s    0.265654 *  0.468341 *  0.971652 *  -2.87073    1.000000    
    273 O2    s    0.220288 *  0.735691 *  0.636807 *  -2.87073    1.000000    
    274 O2    s    0.466515 *  0.205770 *  0.800628 *  -2.87073    1.000000    
    275 O2    s    0.744051 *  0.532398 *  0.469489 *  -2.87073    1.000000    
    276 O2    s    0.794085 *  0.260593 *  0.138556 *  -2.87073    1.000000    
    277 O2    s    0.248249 *  0.331894 *  0.901559 *  -2.87073    1.000000    
    278 O2    s    0.662627 *  0.900527 *  0.233741 *  -2.87073    1.000000    
    279 O2    s    0.104076 *  0.761009 *  0.566567 *  -2.87073    1.000000    
    280 O3    s    0.777368 *  0.684392 *  0.403808 *  -3.33043    1.000000    
    281 O3    s    0.314463 *  0.085197 *  0.736452 *  -3.33043    1.000000    
    282 O2    s    0.912463 *  0.243019 *  0.067951 *  -2.87073    1.000000    
    283 O2    s    0.340721 *  0.244695 *  0.435059 *  -2.87073    1.000000    
    284 O2    s    0.905701 *  0.665216 *  0.102032 *  -2.87073    1.000000    
    285 O2    s    0.754202 *  0.089996 *  0.766846 *  -2.87073    1.000000    
    286 O2    s    0.670000 *  0.751769 *  0.938316 *  -2.87073    1.000000    
    287 O2    s    0.094188 *  0.326956 *  0.601878 *  -2.87073    1.000000    
    288 O2    s    0.239634 *  0.910308 *  0.268935 *  -2.87073    1.000000    
    289 O3    s    0.595813 *  0.576110 *  0.998436 *  -3.33043    1.000000    
    290 O2    s    0.437044 *  0.017214 *  0.322771 *  -2.87073    1.000000    
    291 O2    s    0.984816 *  0.415121 *  0.655200 *  -2.87073    1.000000    
    292 O2    s    0.426760 *  0.442948 *  0.484852 *  -2.87073    1.000000    
    293 O2    s    0.556445 *  0.973900 *  0.817493 *  -2.87073    1.000000    
    294 O2    s    0.025365 *  0.584637 *  0.154985 *  -2.87073    1.000000    
    295 O3    s    0.543578 *  0.581511 *  0.341484 *  -3.33043    1.000000    
    296 O2    s    0.024078 *  0.441426 *  0.013329 *  -2.87073    1.000000    
    297 O3    s    0.417767 *  0.954377 *  0.674743 *  -3.33043    1.000000    
    298 O2    s    0.445959 *  0.415427 *  0.849399 *  -2.87073    1.000000    
    299 O2    s    0.981078 *  0.561396 *  0.513921 *  -2.87073    1.000000    
    300 O2    s    0.584180 *  0.025684 *  0.181557 *  -2.87073    1.000000    
    301 O2    s    0.576144 *  0.150791 *  0.252687 *  -2.87073    1.000000    
    302 O2    s    0.853986 *  0.424673 *  0.584467 *  -2.87073    1.000000    
    303 O3    s    0.596228 *  0.417313 *  0.913237 *  -3.33043    1.000000    
    304 O2    s    0.421388 *  0.841257 *  0.749166 *  -2.87073    1.000000    
    305 O2    s    0.155528 *  0.578496 *  0.083733 *  -2.87073    1.000000    
    306 O2    s    0.427513 *  0.578045 *  0.415446 *  -2.87073    1.000000    
    307 F     s    0.448451 *  0.903876 *  0.251353 *  -1.56000    1.000000    
    308 F     s    0.100427 *  0.542018 *  0.584061 *  -1.56000    1.000000    
    309 F     s    0.480108 *  0.516274 *  0.931162 *  -1.56000    1.000000    
    310 F     s    0.511370 *  0.090008 *  0.735763 *  -1.56000    1.000000    
    311 F     s    0.913451 *  0.454401 *  0.083851 *  -1.56000    1.000000    
    312 F     s    0.585656 *  0.487689 *  0.403692 *  -1.56000    1.000000    
--------------------------------------------------------------------------------



********************************************************************************
*  General input information                                                   *
********************************************************************************

  Species output for all configurations : 

--------------------------------------------------------------------------------
  Species    Type    Atomic    Atomic    Charge       Radii (Angs)     Library
                     Number     Mass       (e)     Cova   Ionic  VDW   Symbol
--------------------------------------------------------------------------------
    Si       Core       14      28.09   4.000000   1.200  0.000  2.100          
    O1       Core        8      16.00   1.733957   0.730  0.000  1.360          
    O1       Shell       8       0.00  -3.733957   0.730  0.000  1.360          
    O2       Core        8      16.00   0.870733   0.730  0.000  1.360          
    O2       Shell       8       0.00  -2.870733   0.730  0.000  1.360          
    O3       Core        8      16.00   1.330431   0.730  0.000  1.360          
    O3       Shell       8       0.00  -3.330431   0.730  0.000  1.360          
    F        Core        9      19.00   0.560000   0.710  0.000  1.300          
    F        Shell       9       0.00  -1.560000   0.710  0.000  1.300          
    Ge       Core       32      72.61   4.000000   1.170  0.000  1.750          
--------------------------------------------------------------------------------


  Lattice summation method               =    Ewald          (3-D)
                                         =    Parry          (2-D)
                                         =    Saunders et al (1-D)
  Accuracy factor for lattice sums       =   12.000


  Time limit = Infinity

  Maximum range for interatomic potentials =        16.000000 Angstroms

  Taper potentials to zero over   1.0000 Angstroms using polynomial

  General interatomic potentials :

--------------------------------------------------------------------------------
Atom  Types   Potential         A         B         C         D     Cutoffs(Ang)
  1     2                                                            Min    Max 
--------------------------------------------------------------------------------
Si   c O1   s Buckingham    0.132E+04 0.318      10.1      0.00     0.000 16.000
Si   c O2   s Buckingham    0.132E+04 0.318      10.1      0.00     0.000 16.000
Si   c O3   s Buckingham    0.132E+04 0.318      10.1      0.00     0.000 16.000
Ge   c O1   s Buckingham    0.150E+04 0.326      16.8      0.00     0.000 16.000
Ge   c O2   s Buckingham    0.150E+04 0.326      16.8      0.00     0.000 16.000
Ge   c O3   s Buckingham    0.150E+04 0.326      16.8      0.00     0.000 16.000
O1   s O1   s Buckingham    0.228E+05 0.149      10.9      0.00     0.000 16.000
O1   s O2   s Buckingham    0.228E+05 0.149      10.9      0.00     0.000 16.000
O1   s O3   s Buckingham    0.228E+05 0.149      10.9      0.00     0.000 16.000
O2   s O2   s Buckingham    0.228E+05 0.149      10.9      0.00     0.000 16.000
O2   s O3   s Buckingham    0.228E+05 0.149      10.9      0.00     0.000 16.000
O3   s O3   s Buckingham    0.228E+05 0.149      10.9      0.00     0.000 16.000
Si   c F    s Buckingham     977.     0.282      0.00      0.00     0.000 16.000
Ge   c F    s Buckingham     681.     0.320      0.00      0.00     0.000 16.000
F    s F    s Buckingham     540.     0.262      0.00      0.00     0.000 16.000
O1   s F    s Buckingham    0.168E+04 0.268      0.00      0.00     0.000 16.000
O2   s F    s Buckingham    0.168E+04 0.268      0.00      0.00     0.000 16.000
O3   s F    s Buckingham    0.168E+04 0.268      0.00      0.00     0.000 16.000
O2   c O2   s Spring (c-s)   76.0      0.00      0.00      0.00     0.000  0.800
O3   c O3   s Spring (c-s)   128.      0.00      0.00      0.00     0.000  0.800
O1   c O1   s Spring (c-s)   180.      0.00      0.00      0.00     0.000  0.800
F    c F    s Spring (c-s)   33.5      0.00      0.00      0.00     0.000  0.800
--------------------------------------------------------------------------------

  General Three-body potentials :

  Harmonic form:

--------------------------------------------------------------------------------
Atom    Atom    Atom           Force Constants            Theta     Cutoffs  
  1       2       3     (eVrad**-2/eVrad**-3/eVrad**-4)   (deg)  1-2  1-3  2-3
--------------------------------------------------------------------------------
Si    c O1    s O1    s  1.261        0.0000    0.0000   109.470 0.00 0.00 0.00
                                                                 1.90 1.90 3.50
Si    c O1    s O2    s  1.261        0.0000    0.0000   109.470 0.00 0.00 0.00
                                                                 1.90 1.90 3.50
Si    c O2    s O2    s  1.261        0.0000    0.0000   109.470 0.00 0.00 0.00
                                                                 1.90 1.90 3.50
--------------------------------------------------------------------------------

********************************************************************************
*  Output for configuration   1                                                *
********************************************************************************


  Components of energy : 

--------------------------------------------------------------------------------
  Interatomic potentials     =        2067.07745372 eV
  Three-body potentials      =           0.49700738 eV
  Monopole - monopole (real) =       -6616.23717909 eV
  Monopole - monopole (recip)=       -3172.03974421 eV
  Monopole - monopole (total)=       -9788.27692330 eV
  Neutralising energy        =          -6.46147065 eV
--------------------------------------------------------------------------------
  Total lattice energy       =       -7727.16393284 eV
--------------------------------------------------------------------------------
  Total lattice energy       =         -745553.1990 kJ/(mole unit cells)
--------------------------------------------------------------------------------


  Number of variables =      939

  Maximum number of calculations  =          1000
  Maximum Hessian update interval =            10
  Maximum step size               =   1.000000000
  Maximum parameter tolerance     =   0.000010000
  Maximum function  tolerance     =   0.000010000
  Maximum gradient  tolerance     =   0.001000000
  Maximum gradient  component     =   0.010000000

  Symmetry not applied to optimisation

  Cell parameters to be optimised using strains

  Newton-Raphson optimiser to be used

  BFGS hessian update to be used

  Dumpfile to be written after every cycle

  Start of bulk optimisation :

  Cycle:      0 Energy:     -7727.163933  Gnorm:      0.001161  CPU:    1.067
  ** Hessian calculated **
  Cycle:      1 Energy:     -7727.233213  Gnorm:      0.005050  CPU:    2.974
  Cycle:      2 Energy:     -7727.233953  Gnorm:      0.000300  CPU:    4.357
  Cycle:      3 Energy:     -7727.233992  Gnorm:      0.000119  CPU:    5.739


  **** Optimisation achieved ****


  Final energy =   -7727.23399241 eV
  Final Gnorm  =       0.00001260

  Components of energy : 

--------------------------------------------------------------------------------
  Interatomic potentials     =        2067.70234117 eV
  Three-body potentials      =           0.51126863 eV
  Monopole - monopole (real) =       -6614.84727465 eV
  Monopole - monopole (recip)=       -3174.13458779 eV
  Monopole - monopole (total)=       -9788.98186245 eV
  Neutralising energy        =          -6.46573976 eV
--------------------------------------------------------------------------------
  Total lattice energy       =       -7727.23399241 eV
--------------------------------------------------------------------------------
  Total lattice energy       =         -745559.9587 kJ/(mole unit cells)
--------------------------------------------------------------------------------

  Final fractional coordinates of atoms :

--------------------------------------------------------------------------------
   No.  Atomic        x           y          z          Radius
        Label       (Frac)      (Frac)     (Frac)       (Angs) 
--------------------------------------------------------------------------------
     1  Si    c     0.699600    0.375700    0.033890    0.000000
     2  Si    c     0.643557    0.310405    0.364940    0.000000
     3  Si    c     0.700154    0.304136    0.695016    0.000000
     4  Si    c     0.320088    0.615007    0.530154    0.000000
     5  Si    c     0.389494    0.667352    0.864768    0.000000
     6  Si    c     0.331321    0.700990    0.196944    0.000000
     7  Si    c     0.378963    0.690041    0.298043    0.000000
     8  Si    c     0.326900    0.617083    0.967399    0.000000
     9  Si    c     0.324999    0.665025    0.631145    0.000000
    10  Si    c     0.629954    0.291991    0.797240    0.000000
    11  Si    c     0.700520    0.377842    0.467102    0.000000
    12  Si    c     0.713588    0.325021    0.136020    0.000000
    13  Ge    c     0.531354    0.425973    0.966346    0.000000
    14  Si    c     0.590036    0.092616    0.303003    0.000000
    15  Si    c     0.922341    0.474946    0.634327    0.000000
    16  Si    c     0.492136    0.582860    0.463193    0.000000
    17  Si    c     0.425888    0.875583    0.796121    0.000000
    18  Si    c     0.121874    0.530594    0.131838    0.000000
    19  Si    c     0.428643    0.523492    0.360193    0.000000
    20  Si    c     0.111848    0.579228    0.030245    0.000000
    21  Si    c     0.488418    0.875877    0.693023    0.000000
    22  Si    c     0.599622    0.457499    0.866898    0.000000
    23  Si    c     0.911901    0.418975    0.532847    0.000000
    24  Si    c     0.542540    0.110724    0.201402    0.000000
    25  Si    c     0.312964    0.385615    0.852578    0.000000
    26  Si    c     0.611127    0.900027    0.185568    0.000000
    27  Si    c     0.122023    0.698613    0.517794    0.000000
    28  Ge    c     0.702324    0.580105    0.355976    0.000000
    29  Ge    c     0.431744    0.092993    0.688124    0.000000
    30  Si    c     0.903710    0.301011    0.018463    0.000000
    31  Si    c     0.418032    0.297652    0.481201    0.000000
    32  Si    c     0.914482    0.603501    0.148525    0.000000
    33  Si    c     0.708507    0.087527    0.812299    0.000000
    34  Si    c     0.609126    0.698165    0.987932    0.000000
    35  Si    c     0.122401    0.390724    0.647927    0.000000
    36  Si    c     0.307047    0.892246    0.315333    0.000000
    37  Si    c     0.252450    0.328989    0.955323    0.000000
    38  Si    c     0.664520    0.890130    0.286637    0.000000
    39  Si    c     0.124605    0.752107    0.619112    0.000000
    40  Si    c     0.776451    0.665591    0.451674    0.000000
    41  Si    c     0.343088    0.078428    0.783848    0.000000
    42  Si    c     0.922236    0.252580    0.119237    0.000000
    43  Si    c     0.357327    0.243084    0.379172    0.000000
    44  Si    c     0.911563    0.656259    0.046778    0.000000
    45  Si    c     0.767746    0.085324    0.710496    0.000000
    46  Si    c     0.673147    0.737410    0.884394    0.000000
    47  Si    c     0.110611    0.336495    0.546822    0.000000
    48  Si    c     0.262708    0.911095    0.214185    0.000000
    49  Si    c     0.967255    0.119865    0.968618    0.000000
    50  Si    c     0.887454    0.831900    0.303065    0.000000
    51  Si    c     0.181765    0.030918    0.635920    0.000000
    52  Si    c     0.050649    0.878924    0.468727    0.000000
    53  Si    c     0.130099    0.140048    0.802747    0.000000
    54  Si    c     0.861427    0.973152    0.135799    0.000000
    55  Si    c     0.132511    0.965179    0.366035    0.000000
    56  Si    c     0.854293    0.879846    0.035047    0.000000
    57  Si    c     0.048146    0.141231    0.699491    0.000000
    58  Si    c     0.884739    0.019488    0.867545    0.000000
    59  Si    c     0.171708    0.119299    0.534014    0.000000
    60  Si    c     0.983268    0.849165    0.200966    0.000000
    61  O2    c     0.932794    0.000511    0.001706    0.000000
    62  O2    c     0.009748    0.926080    0.334543    0.000000
    63  O2    c     0.089767    0.058923    0.668883    0.000000
    64  O2    c     0.095026    0.998917    0.501579    0.000000
    65  O2    c     0.009141    0.062682    0.836177    0.000000
    66  O2    c     0.940280    0.932007    0.169535    0.000000
    67  O2    c     0.338393    0.563628    0.330385    0.000000
    68  O2    c     0.449439    0.747284    0.663813    0.000000
    69  O2    c     0.236723    0.654786    0.996396    0.000000
    70  O2    c     0.670371    0.414493    0.829262    0.000000
    71  O2    c     0.593829    0.240074    0.170269    0.000000
    72  O2    c     0.784839    0.341762    0.501401    0.000000
    73  O3    c     0.578805    0.338406    0.003137    0.000000
    74  O2    c     0.800302    0.433123    0.667913    0.000000
    75  O2    c     0.670527    0.210307    0.337614    0.000000
    76  O2    c     0.440154    0.654875    0.495925    0.000000
    77  O2    c     0.249999    0.581903    0.163067    0.000000
    78  O2    c     0.354448    0.750264    0.829475    0.000000
    79  O2    c     0.119091    0.211966    0.973805    0.000000
    80  O2    c     0.786136    0.885049    0.308071    0.000000
    81  O2    c     0.127230    0.876370    0.640586    0.000000
    82  O2    c     0.897826    0.785561    0.476850    0.000000
    83  O2    c     0.221735    0.077312    0.809547    0.000000
    84  O2    c     0.924324    0.127012    0.139768    0.000000
    85  O2    c     0.231379    0.118430    0.359746    0.000000
    86  O2    c     0.908632    0.782359    0.026736    0.000000
    87  O2    c     0.894912    0.085587    0.692098    0.000000
    88  O2    c     0.796641    0.865353    0.863604    0.000000
    89  O2    c     0.108144    0.210043    0.526668    0.000000
    90  O2    c     0.137341    0.913673    0.194065    0.000000
    91  O2    c     0.944843    0.857513    0.251962    0.000000
    92  O2    c     0.157430    0.067498    0.585009    0.000000
    93  O2    c     0.929701    0.064736    0.918092    0.000000
    94  O2    c     0.075775    0.126332    0.752138    0.000000
    95  O2    c     0.876886    0.931376    0.085772    0.000000
    96  O2    c     0.085931    0.934542    0.417995    0.000000
    97  O2    c     0.895931    0.200253    0.979789    0.000000
    98  O3    c     0.817850    0.685309    0.314586    0.000000
    99  O3    c     0.328498    0.105279    0.646406    0.000000
   100  O2    c     0.123004    0.797647    0.479292    0.000000
   101  O2    c     0.214954    0.291536    0.814059    0.000000
   102  O2    c     0.709495    0.903888    0.146774    0.000000
   103  O2    c     0.209549    0.890250    0.354152    0.000000
   104  O2    c     0.701936    0.809465    0.023300    0.000000
   105  O2    c     0.122596    0.292841    0.686896    0.000000
   106  O2    c     0.801314    0.085783    0.851821    0.000000
   107  O2    c     0.323553    0.203975    0.520942    0.000000
   108  O2    c     0.914771    0.699682    0.186811    0.000000
   109  O2    c     0.325851    0.637723    0.247119    0.000000
   110  O2    c     0.381020    0.668532    0.580340    0.000000
   111  O2    c     0.332096    0.665776    0.914684    0.000000
   112  O2    c     0.688277    0.346463    0.747004    0.000000
   113  O2    c     0.653802    0.325017    0.086265    0.000000
   114  O2    c     0.698858    0.320574    0.417245    0.000000
   115  O3    c     0.364304    0.310374    0.975587    0.000000
   116  O2    c     0.675575    0.022218    0.305029    0.000000
   117  O2    c     0.991534    0.629780    0.637093    0.000000
   118  O2    c     0.647239    0.669625    0.467029    0.000000
   119  O2    c     0.340313    0.945550    0.800116    0.000000
   120  O2    c     0.055373    0.374882    0.136383    0.000000
   121  O2    c     0.347851    0.366500    0.361587    0.000000
   122  O2    c     0.044420    0.668348    0.026974    0.000000
   123  O2    c     0.645747    0.952556    0.693900    0.000000
   124  O2    c     0.682399    0.615891    0.865728    0.000000
   125  O2    c     0.979606    0.330632    0.528795    0.000000
   126  O2    c     0.386738    0.044030    0.196965    0.000000
   127  O2    c     0.769931    0.300682    0.012575    0.000000
   128  O3    c     0.719069    0.445964    0.339948    0.000000
   129  O3    c     0.564568    0.243886    0.670724    0.000000
   130  O2    c     0.251876    0.691975    0.508721    0.000000
   131  O2    c     0.319829    0.523179    0.845152    0.000000
   132  O2    c     0.476094    0.770536    0.175677    0.000000
   133  O2    c     0.302824    0.755602    0.321296    0.000000
   134  O2    c     0.470905    0.694827    0.988193    0.000000
   135  O2    c     0.258390    0.522052    0.654229    0.000000
   136  O2    c     0.700441    0.216585    0.818301    0.000000
   137  O2    c     0.554984    0.303424    0.487451    0.000000
   138  O2    c     0.783593    0.468074    0.157540    0.000000
   139  O2    c     0.786791    0.531979    0.027544    0.000000
   140  O2    c     0.486884    0.247955    0.362034    0.000000
   141  O2    c     0.762571    0.209411    0.691934    0.000000
   142  O2    c     0.238185    0.459447    0.526402    0.000000
   143  O2    c     0.543987    0.732318    0.865040    0.000000
   144  O2    c     0.259993    0.786010    0.193120    0.000000
   145  O2    c     0.534011    0.767040    0.304877    0.000000
   146  O2    c     0.263247    0.463290    0.971586    0.000000
   147  O2    c     0.246729    0.742285    0.637691    0.000000
   148  O2    c     0.474828    0.204419    0.800825    0.000000
   149  O2    c     0.767694    0.532377    0.470189    0.000000
   150  O2    c     0.797337    0.252242    0.139675    0.000000
   151  O2    c     0.243809    0.318076    0.899881    0.000000
   152  O2    c     0.681799    0.893339    0.231864    0.000000
   153  O2    c     0.124973    0.770570    0.564407    0.000000
   154  O3    c     0.804648    0.689968    0.398961    0.000000
   155  O3    c     0.319108    0.082520    0.731146    0.000000
   156  O2    c     0.916480    0.232205    0.064685    0.000000
   157  O2    c     0.348871    0.231351    0.434180    0.000000
   158  O2    c     0.912908    0.674327    0.101269    0.000000
   159  O2    c     0.777201    0.087637    0.765410    0.000000
   160  O2    c     0.683478    0.752272    0.938718    0.000000
   161  O2    c     0.113008    0.315890    0.601397    0.000000
   162  O2    c     0.240915    0.904949    0.268741    0.000000
   163  O3    c     0.598418    0.566259    0.001966    0.000000
   164  O2    c     0.447788    0.012532    0.325862    0.000000
   165  O2    c     0.000814    0.410703    0.657900    0.000000
   166  O2    c     0.439898    0.440506    0.484944    0.000000
   167  O2    c     0.567920    0.963255    0.817149    0.000000
   168  O2    c     0.041118    0.589979    0.155735    0.000000
   169  O3    c     0.563459    0.580841    0.334681    0.000000
   170  O2    c     0.029515    0.438945    0.006894    0.000000
   171  O3    c     0.430936    0.954043    0.667420    0.000000
   172  O2    c     0.454110    0.403176    0.846256    0.000000
   173  O2    c     0.994237    0.561146    0.510009    0.000000
   174  O2    c     0.601050    0.028550    0.178209    0.000000
   175  O2    c     0.592194    0.155749    0.253172    0.000000
   176  O2    c     0.862686    0.419073    0.584363    0.000000
   177  O3    c     0.605457    0.403264    0.915574    0.000000
   178  O2    c     0.430544    0.829366    0.745046    0.000000
   179  O2    c     0.173148    0.582218    0.080165    0.000000
   180  O2    c     0.440226    0.579546    0.411938    0.000000
   181  F     c     0.457656    0.895451    0.250383    0.000000
   182  F     c     0.122811    0.542637    0.582816    0.000000
   183  F     c     0.479803    0.516897    0.927213    0.000000
   184  F     c     0.533705    0.088610    0.736664    0.000000
   185  F     c     0.918536    0.454884    0.082301    0.000000
   186  F     c     0.596407    0.476965    0.404804    0.000000
   187  O2    s     0.927826    0.000541    0.001672    0.000000
   188  O2    s     0.011144    0.920884    0.334889    0.000000
   189  O2    s     0.094460    0.065368    0.668971    0.000000
   190  O2    s     0.098766    0.999099    0.501564    0.000000
   191  O2    s     0.008654    0.066443    0.835967    0.000000
   192  O2    s     0.936081    0.927481    0.169179    0.000000
   193  O2    s     0.351488    0.572147    0.330166    0.000000
   194  O2    s     0.441057    0.752097    0.663523    0.000000
   195  O2    s     0.234160    0.643374    0.996584    0.000000
   196  O2    s     0.659012    0.405846    0.829630    0.000000
   197  O2    s     0.600841    0.235453    0.169959    0.000000
   198  O2    s     0.789129    0.353482    0.501064    0.000000
   199  O3    s     0.588610    0.348643    0.003888    0.000000
   200  O2    s     0.802146    0.423576    0.667366    0.000000
   201  O2    s     0.659378    0.208880    0.336987    0.000000
   202  O2    s     0.433060    0.643158    0.496076    0.000000
   203  O2    s     0.245233    0.588960    0.163369    0.000000
   204  O2    s     0.365524    0.754430    0.829766    0.000000
   205  O2    s     0.116709    0.214556    0.971192    0.000000
   206  O2    s     0.783196    0.880280    0.305287    0.000000
   207  O2    s     0.132380    0.878494    0.637845    0.000000
   208  O2    s     0.901704    0.783362    0.473550    0.000000
   209  O2    s     0.224252    0.084012    0.806320    0.000000
   210  O2    s     0.917419    0.123659    0.137240    0.000000
   211  O2    s     0.234581    0.115883    0.362432    0.000000
   212  O2    s     0.903140    0.779881    0.029623    0.000000
   213  O2    s     0.897197    0.091314    0.694797    0.000000
   214  O2    s     0.793266    0.868535    0.866141    0.000000
   215  O2    s     0.115105    0.213653    0.529511    0.000000
   216  O2    s     0.134209    0.906663    0.196841    0.000000
   217  O2    s     0.943181    0.853825    0.251492    0.000000
   218  O2    s     0.161639    0.069595    0.584505    0.000000
   219  O2    s     0.928591    0.065541    0.917765    0.000000
   220  O2    s     0.078865    0.129517    0.752064    0.000000
   221  O2    s     0.872547    0.930124    0.085519    0.000000
   222  O2    s     0.087109    0.931620    0.417999    0.000000
   223  O2    s     0.904383    0.201452    0.982358    0.000000
   224  O3    s     0.817995    0.694772    0.316027    0.000000
   225  O3    s     0.318854    0.096047    0.648014    0.000000
   226  O2    s     0.115309    0.795919    0.482174    0.000000
   227  O2    s     0.216181    0.285425    0.816836    0.000000
   228  O2    s     0.715654    0.910890    0.149564    0.000000
   229  O2    s     0.211345    0.898357    0.351454    0.000000
   230  O2    s     0.708243    0.805502    0.020932    0.000000
   231  O2    s     0.114711    0.286797    0.684254    0.000000
   232  O2    s     0.800074    0.078928    0.849182    0.000000
   233  O2    s     0.318001    0.205199    0.518086    0.000000
   234  O2    s     0.921943    0.705394    0.184309    0.000000
   235  O2    s     0.331872    0.649567    0.247250    0.000000
   236  O2    s     0.369057    0.662711    0.580458    0.000000
   237  O2    s     0.337638    0.661113    0.914659    0.000000
   238  O2    s     0.683206    0.336488    0.747251    0.000000
   239  O2    s     0.664628    0.330072    0.086259    0.000000
   240  O2    s     0.693736    0.325625    0.417451    0.000000
   241  O3    s     0.363363    0.320116    0.972739    0.000000
   242  O2    s     0.665313    0.015851    0.302866    0.000000
   243  O2    s     0.998113    0.626121    0.634903    0.000000
   244  O2    s     0.643918    0.660141    0.465079    0.000000
   245  O2    s     0.349608    0.951311    0.798075    0.000000
   246  O2    s     0.048312    0.378082    0.134117    0.000000
   247  O2    s     0.356989    0.369087    0.363340    0.000000
   248  O2    s     0.037893    0.657984    0.029319    0.000000
   249  O2    s     0.642952    0.958982    0.695591    0.000000
   250  O2    s     0.673505    0.613563    0.867818    0.000000
   251  O2    s     0.986483    0.340389    0.531131    0.000000
   252  O2    s     0.389714    0.036961    0.199226    0.000000
   253  O2    s     0.777678    0.308165    0.015375    0.000000
   254  O3    s     0.710009    0.441108    0.343715    0.000000
   255  O3    s     0.569617    0.239752    0.674524    0.000000
   256  O2    s     0.245179    0.684635    0.511957    0.000000
   257  O2    s     0.326492    0.524098    0.848013    0.000000
   258  O2    s     0.475455    0.777040    0.178928    0.000000
   259  O2    s     0.311098    0.763289    0.318235    0.000000
   260  O2    s     0.469716    0.687043    0.985956    0.000000
   261  O2    s     0.250920    0.522925    0.651153    0.000000
   262  O2    s     0.694066    0.210312    0.815471    0.000000
   263  O2    s     0.555371    0.310447    0.484683    0.000000
   264  O2    s     0.790108    0.467540    0.154352    0.000000
   265  O2    s     0.792094    0.530177    0.030250    0.000000
   266  O2    s     0.488096    0.253732    0.364197    0.000000
   267  O2    s     0.756882    0.204897    0.694263    0.000000
   268  O2    s     0.232978    0.462485    0.528968    0.000000
   269  O2    s     0.541056    0.725824    0.867056    0.000000
   270  O2    s     0.267901    0.790659    0.195772    0.000000
   271  O2    s     0.531887    0.772417    0.302234    0.000000
   272  O2    s     0.269222    0.466212    0.969469    0.000000
   273  O2    s     0.241631    0.735120    0.635049    0.000000
   274  O2    s     0.477844    0.200787    0.798725    0.000000
   275  O2    s     0.761306    0.529454    0.467971    0.000000
   276  O2    s     0.802292    0.259991    0.137085    0.000000
   277  O2    s     0.252224    0.326522    0.900278    0.000000
   278  O2    s     0.672535    0.893703    0.232738    0.000000
   279  O2    s     0.124629    0.761069    0.565306    0.000000
   280  O3    s     0.794939    0.680221    0.401795    0.000000
   281  O3    s     0.328917    0.082701    0.734011    0.000000
   282  O2    s     0.915797    0.241497    0.065593    0.000000
   283  O2    s     0.357178    0.239691    0.433481    0.000000
   284  O2    s     0.912934    0.664966    0.100441    0.000000
   285  O2    s     0.768748    0.087382    0.764694    0.000000
   286  O2    s     0.675189    0.745374    0.937470    0.000000
   287  O2    s     0.113739    0.325956    0.600572    0.000000
   288  O2    s     0.250194    0.904273    0.267905    0.000000
   289  O3    s     0.594950    0.571497    0.998093    0.000000
   290  O2    s     0.447479    0.007835    0.322356    0.000000
   291  O2    s     0.005844    0.415334    0.654394    0.000000
   292  O2    s     0.443085    0.439695    0.482243    0.000000
   293  O2    s     0.568228    0.967612    0.814388    0.000000
   294  O2    s     0.035760    0.585066    0.152456    0.000000
   295  O3    s     0.559616    0.574681    0.338831    0.000000
   296  O2    s     0.024716    0.438946    0.010490    0.000000
   297  O3    s     0.437158    0.956143    0.671554    0.000000
   298  O2    s     0.452863    0.406681    0.848986    0.000000
   299  O2    s     0.999340    0.560847    0.513241    0.000000
   300  O2    s     0.595835    0.023198    0.181438    0.000000
   301  O2    s     0.586813    0.144637    0.252936    0.000000
   302  O2    s     0.873947    0.424785    0.584153    0.000000
   303  O3    s     0.600235    0.410561    0.913483    0.000000
   304  O2    s     0.435581    0.838793    0.745496    0.000000
   305  O2    s     0.161539    0.576606    0.080265    0.000000
   306  O2    s     0.444691    0.574479    0.412369    0.000000
   307  F     s     0.457290    0.895068    0.250435    0.000000
   308  F     s     0.123171    0.542538    0.582871    0.000000
   309  F     s     0.483662    0.510641    0.929847    0.000000
   310  F     s     0.526809    0.088937    0.733532    0.000000
   311  F     s     0.919278    0.455111    0.082207    0.000000
   312  F     s     0.603434    0.483698    0.401750    0.000000
--------------------------------------------------------------------------------

  Final Cartesian lattice vectors (Angstroms) :

       11.956053    0.002348    0.005325
       -5.935974   10.399737    0.007193
       -0.178510    0.405621   29.328970


  Final cell parameters and derivatives :

--------------------------------------------------------------------------------
       a           11.956054 Angstrom     dE/de1(xx)     0.001873 eV/strain
       b           11.974572 Angstrom     dE/de2(yy)     0.001639 eV/strain
       c           29.332318 Angstrom     dE/de3(zz)     0.002308 eV/strain
       alpha       89.104589 Degrees      dE/de4(yz)     0.000033 eV/strain
       beta        90.323020 Degrees      dE/de5(xz)    -0.000174 eV/strain
       gamma      119.705632 Degrees      dE/de6(xy)    -0.000020 eV/strain
--------------------------------------------------------------------------------

  Primitive cell volume =          3647.129399 Angs**3

  Density of cell =      1.754282 g/cm**3

  Non-primitive cell volume =          3647.129399 Angs**3


  Final internal derivatives :

--------------------------------------------------------------------------------
   No.  Atomic          a             b             c           Radius
        Label          (eV)          (eV)          (eV)        (eV/Angs)
--------------------------------------------------------------------------------
      1 Si    c       0.000000      0.000000      0.000000      0.000000
      2 Si    c      -0.000112      0.000590      0.000568      0.000000
      3 Si    c      -0.000267     -0.000263      0.000463      0.000000
      4 Si    c       0.000237     -0.000094     -0.000450      0.000000
      5 Si    c       0.000078      0.000155     -0.000299      0.000000
      6 Si    c      -0.000027      0.000441      0.000345      0.000000
      7 Si    c      -0.000516      0.000391     -0.001155      0.000000
      8 Si    c       0.000399     -0.000521      0.000109      0.000000
      9 Si    c       0.000006     -0.000009     -0.000082      0.000000
     10 Si    c       0.000025     -0.000103     -0.000062      0.000000
     11 Si    c       0.000104      0.000046      0.000142      0.000000
     12 Si    c       0.000120     -0.000003     -0.000412      0.000000
     13 Ge    c      -0.000967      0.000767     -0.000247      0.000000
     14 Si    c      -0.000187      0.000143      0.000123      0.000000
     15 Si    c      -0.000024      0.000075     -0.000367      0.000000
     16 Si    c      -0.000128     -0.000032      0.000269      0.000000
     17 Si    c       0.000132     -0.000088      0.000529      0.000000
     18 Si    c      -0.000030     -0.000094     -0.000047      0.000000
     19 Si    c       0.000335     -0.000204      0.001166      0.000000
     20 Si    c      -0.000274     -0.000016     -0.000827      0.000000
     21 Si    c      -0.000062     -0.000159     -0.000497      0.000000
     22 Si    c       0.000621     -0.000361     -0.003500      0.000000
     23 Si    c       0.000069      0.000088     -0.000201      0.000000
     24 Si    c       0.000043     -0.000061     -0.001640      0.000000
     25 Si    c      -0.000205      0.000022     -0.000313      0.000000
     26 Si    c       0.000056      0.000096      0.000213      0.000000
     27 Si    c      -0.000148      0.000048      0.000002      0.000000
     28 Ge    c       0.000087     -0.000250      0.000904      0.000000
     29 Ge    c       0.000314      0.000066      0.000875      0.000000
     30 Si    c       0.000041      0.000438      0.000373      0.000000
     31 Si    c      -0.000065     -0.000020      0.000032      0.000000
     32 Si    c      -0.000113      0.000114      0.000562      0.000000
     33 Si    c       0.000148     -0.000217      0.000402      0.000000
     34 Si    c       0.000228     -0.000460      0.000688      0.000000
     35 Si    c       0.000097     -0.000173      0.000522      0.000000
     36 Si    c      -0.000201      0.000140     -0.000240      0.000000
     37 Si    c       0.000158      0.000219      0.000521      0.000000
     38 Si    c       0.000272     -0.000121     -0.000165      0.000000
     39 Si    c      -0.000059      0.000106     -0.000073      0.000000
     40 Si    c       0.000183      0.000040      0.000275      0.000000
     41 Si    c      -0.000254      0.000185      0.000314      0.000000
     42 Si    c       0.000198     -0.000137      0.000366      0.000000
     43 Si    c      -0.000037     -0.000012      0.000388      0.000000
     44 Si    c       0.000102     -0.000743     -0.001271      0.000000
     45 Si    c       0.000063     -0.000006      0.000010      0.000000
     46 Si    c       0.000113      0.000040     -0.001289      0.000000
     47 Si    c       0.000047     -0.000246     -0.000337      0.000000
     48 Si    c       0.000070     -0.000036      0.000100      0.000000
     49 Si    c      -0.000259      0.000014      0.000368      0.000000
     50 Si    c       0.000284     -0.000071     -0.000832      0.000000
     51 Si    c      -0.000016     -0.000112      0.000025      0.000000
     52 Si    c      -0.000118     -0.000060     -0.000108      0.000000
     53 Si    c       0.000015      0.000180      0.000071      0.000000
     54 Si    c      -0.000642      0.000182     -0.000123      0.000000
     55 Si    c      -0.000106      0.000003      0.000695      0.000000
     56 Si    c      -0.000028     -0.000005     -0.001206      0.000000
     57 Si    c       0.000172      0.000108      0.000258      0.000000
     58 Si    c      -0.000333      0.000218      0.000322      0.000000
     59 Si    c      -0.000078      0.000030     -0.000190      0.000000
     60 Si    c      -0.000019     -0.000124      0.000251      0.000000
     61 O2    c      -0.000155     -0.000013      0.000489      0.000000
     62 O2    c      -0.000274      0.000364     -0.000032      0.000000
     63 O2    c      -0.000018     -0.000113      0.000011      0.000000
     64 O2    c       0.000012      0.000040      0.000094      0.000000
     65 O2    c       0.000610     -0.000325     -0.000586      0.000000
     66 O2    c       0.000667     -0.000216      0.000991      0.000000
     67 O2    c      -0.000258     -0.000538      0.000207      0.000000
     68 O2    c       0.000221      0.000228      0.000766      0.000000
     69 O2    c      -0.000700      0.000499      0.001219      0.000000
     70 O2    c       0.000022      0.000065      0.000248      0.000000
     71 O2    c       0.000013     -0.000137      0.000683      0.000000
     72 O2    c      -0.000121      0.000009     -0.000305      0.000000
     73 O3    c      -0.000407      0.001026     -0.000956      0.000000
     74 O2    c       0.000118      0.000405     -0.000492      0.000000
     75 O2    c       0.000439     -0.000896     -0.000848      0.000000
     76 O2    c      -0.000035      0.000001      0.000155      0.000000
     77 O2    c       0.000008     -0.000287     -0.000865      0.000000
     78 O2    c      -0.000125      0.000098     -0.000223      0.000000
     79 O2    c       0.000165     -0.000061      0.000238      0.000000
     80 O2    c      -0.000999      0.000666      0.000246      0.000000
     81 O2    c       0.000055     -0.000070      0.000068      0.000000
     82 O2    c       0.000109     -0.000034     -0.000289      0.000000
     83 O2    c       0.000259     -0.000173     -0.000158      0.000000
     84 O2    c      -0.000105      0.000329      0.000016      0.000000
     85 O2    c       0.000159      0.000401     -0.000158      0.000000
     86 O2    c       0.000031     -0.000039      0.000188      0.000000
     87 O2    c      -0.000342      0.000105     -0.000032      0.000000
     88 O2    c      -0.000054     -0.000102     -0.000328      0.000000
     89 O2    c       0.000025      0.000004      0.000105      0.000000
     90 O2    c       0.000018      0.000073      0.000041      0.000000
     91 O2    c      -0.000180      0.000059      0.000638      0.000000
     92 O2    c      -0.000030      0.000057     -0.000441      0.000000
     93 O2    c       0.000102     -0.000010     -0.000696      0.000000
     94 O2    c      -0.000335     -0.000033     -0.000515      0.000000
     95 O2    c       0.000066      0.000090      0.000621      0.000000
     96 O2    c      -0.000056     -0.000008      0.000143      0.000000
     97 O2    c      -0.000402      0.000367     -0.000226      0.000000
     98 O3    c       0.000109     -0.000576      0.000302      0.000000
     99 O3    c      -0.000105      0.000127     -0.000217      0.000000
    100 O2    c      -0.000067      0.000124     -0.000132      0.000000
    101 O2    c       0.000059     -0.000045      0.000073      0.000000
    102 O2    c      -0.000004      0.000021     -0.000004      0.000000
    103 O2    c       0.000157     -0.000420     -0.000062      0.000000
    104 O2    c       0.000100      0.000009      0.000143      0.000000
    105 O2    c       0.000010      0.000053     -0.000095      0.000000
    106 O2    c      -0.000082      0.000044     -0.000003      0.000000
    107 O2    c      -0.000029     -0.000027      0.000046      0.000000
    108 O2    c      -0.000009     -0.000048     -0.000139      0.000000
    109 O2    c       0.000017     -0.000161      0.000482      0.000000
    110 O2    c      -0.000012      0.000027      0.000200      0.000000
    111 O2    c      -0.000198      0.000181     -0.000035      0.000000
    112 O2    c      -0.000002      0.000028     -0.000127      0.000000
    113 O2    c      -0.000101      0.000064      0.000688      0.000000
    114 O2    c      -0.000000     -0.000019     -0.000114      0.000000
    115 O3    c      -0.000005      0.000139     -0.000114      0.000000
    116 O2    c       0.000001      0.000046      0.000050      0.000000
    117 O2    c      -0.000048      0.000030      0.000044      0.000000
    118 O2    c      -0.000008      0.000066      0.000061      0.000000
    119 O2    c      -0.000012     -0.000047      0.000073      0.000000
    120 O2    c      -0.000005      0.000143      0.000011      0.000000
    121 O2    c      -0.000026     -0.000145      0.000198      0.000000
    122 O2    c      -0.000080     -0.000025     -0.000074      0.000000
    123 O2    c       0.000064      0.000008      0.000011      0.000000
    124 O2    c       0.000027      0.000010     -0.000233      0.000000
    125 O2    c      -0.000076      0.000031     -0.000053      0.000000
    126 O2    c       0.000121      0.000024     -0.000048      0.000000
    127 O2    c       0.000156     -0.000131      0.000444      0.000000
    128 O3    c       0.000043     -0.000009      0.000006      0.000000
    129 O3    c       0.000083      0.000079     -0.000139      0.000000
    130 O2    c       0.000137     -0.000059     -0.000138      0.000000
    131 O2    c      -0.000080     -0.000163     -0.000039      0.000000
    132 O2    c      -0.000101     -0.000108     -0.000027      0.000000
    133 O2    c      -0.000057     -0.000067      0.000243      0.000000
    134 O2    c      -0.000197     -0.000034      0.000447      0.000000
    135 O2    c       0.000046      0.000053      0.000021      0.000000
    136 O2    c      -0.000139      0.000274     -0.000029      0.000000
    137 O2    c       0.000091     -0.000067      0.000057      0.000000
    138 O2    c      -0.000074     -0.000238     -0.000172      0.000000
    139 O2    c       0.000392      0.000157      0.000615      0.000000
    140 O2    c       0.000003     -0.000005     -0.000106      0.000000
    141 O2    c       0.000107     -0.000107     -0.000084      0.000000
    142 O2    c       0.000085      0.000052     -0.000192      0.000000
    143 O2    c      -0.000505      0.000211     -0.000546      0.000000
    144 O2    c       0.000231     -0.000313     -0.000110      0.000000
    145 O2    c       0.000412     -0.000234      0.000664      0.000000
    146 O2    c      -0.000053      0.000303      0.000058      0.000000
    147 O2    c       0.000064     -0.000114     -0.000151      0.000000
    148 O2    c       0.000004      0.000018      0.000084      0.000000
    149 O2    c      -0.000009     -0.000050     -0.000007      0.000000
    150 O2    c      -0.000021     -0.000050      0.000145      0.000000
    151 O2    c       0.000384     -0.000340     -0.001608      0.000000
    152 O2    c       0.000013     -0.000014      0.000082      0.000000
    153 O2    c      -0.000036      0.000059      0.000032      0.000000
    154 O3    c      -0.000111      0.000254     -0.000002      0.000000
    155 O3    c      -0.000208      0.000011      0.000435      0.000000
    156 O2    c      -0.000108     -0.000102     -0.000023      0.000000
    157 O2    c      -0.000044     -0.000025     -0.000344      0.000000
    158 O2    c      -0.000096      0.000167     -0.000302      0.000000
    159 O2    c       0.000078     -0.000040     -0.000674      0.000000
    160 O2    c      -0.000111      0.000295      0.000928      0.000000
    161 O2    c       0.000033     -0.000076      0.000106      0.000000
    162 O2    c      -0.000065      0.000044     -0.000486      0.000000
    163 O3    c      -0.000403      0.000687     -0.000974      0.000000
    164 O2    c       0.000124      0.000171      0.000307      0.000000
    165 O2    c      -0.000041     -0.000058      0.000342      0.000000
    166 O2    c      -0.000058      0.000216      0.000031      0.000000
    167 O2    c      -0.000095      0.000007      0.000103      0.000000
    168 O2    c       0.000167     -0.000067      0.000235      0.000000
    169 O3    c      -0.000056      0.000453     -0.001773      0.000000
    170 O2    c      -0.000157      0.000044      0.000112      0.000000
    171 O3    c       0.000276     -0.000514     -0.000457      0.000000
    172 O2    c      -0.000009      0.000090     -0.000445      0.000000
    173 O2    c      -0.000024     -0.000116      0.000081      0.000000
    174 O2    c      -0.000138      0.000121     -0.000103      0.000000
    175 O2    c       0.000144      0.000058      0.001226      0.000000
    176 O2    c      -0.000097      0.000038      0.000244      0.000000
    177 O3    c       0.001798     -0.001666      0.000086      0.000000
    178 O2    c       0.000041     -0.000109     -0.000219      0.000000
    179 O2    c       0.000193     -0.000045      0.000679      0.000000
    180 O2    c      -0.000065      0.000053     -0.000158      0.000000
    181 F     c      -0.000035     -0.000001     -0.000015      0.000000
    182 F     c      -0.000125      0.000014     -0.000088      0.000000
    183 F     c      -0.000044     -0.000137      0.001989      0.000000
    184 F     c      -0.000117      0.000142     -0.000280      0.000000
    185 F     c      -0.000032     -0.000037     -0.000463      0.000000
    186 F     c       0.000065      0.000006     -0.000391      0.000000
    187 O2    s      -0.000012     -0.000077     -0.000025      0.000000
    188 O2    s       0.000001      0.000149     -0.000239      0.000000
    189 O2    s       0.000033      0.000020     -0.000126      0.000000
    190 O2    s      -0.000019     -0.000023     -0.000029      0.000000
    191 O2    s      -0.000070     -0.000137      0.000068      0.000000
    192 O2    s      -0.000020      0.000219     -0.000022      0.000000
    193 O2    s       0.000173      0.000331     -0.000160      0.000000
    194 O2    s      -0.000026     -0.000247     -0.000162      0.000000
    195 O2    s       0.000135     -0.000067     -0.000055      0.000000
    196 O2    s      -0.000137      0.000175     -0.000027      0.000000
    197 O2    s      -0.000207      0.000275     -0.000226      0.000000
    198 O2    s      -0.000028     -0.000049      0.000048      0.000000
    199 O3    s      -0.000148     -0.000635      0.000193      0.000000
    200 O2    s      -0.000068     -0.000078      0.000061      0.000000
    201 O2    s      -0.000059      0.000319      0.000091      0.000000
    202 O2    s      -0.000060      0.000058      0.000115      0.000000
    203 O2    s      -0.000017     -0.000109      0.000174      0.000000
    204 O2    s      -0.000023      0.000109     -0.000093      0.000000
    205 O2    s       0.000162     -0.000093      0.000729      0.000000
    206 O2    s       0.000123      0.000013      0.000121      0.000000
    207 O2    s      -0.000025     -0.000008      0.000175      0.000000
    208 O2    s       0.000068     -0.000032      0.000272      0.000000
    209 O2    s      -0.000028     -0.000063      0.000542      0.000000
    210 O2    s       0.000170      0.000001      0.000147      0.000000
    211 O2    s      -0.000006      0.000079     -0.000110      0.000000
    212 O2    s       0.000151     -0.000110     -0.000691      0.000000
    213 O2    s       0.000032     -0.000003     -0.000206      0.000000
    214 O2    s       0.000270     -0.000204     -0.000052      0.000000
    215 O2    s       0.000027     -0.000061     -0.000108      0.000000
    216 O2    s      -0.000066     -0.000013     -0.000480      0.000000
    217 O2    s       0.000230     -0.000012     -0.000280      0.000000
    218 O2    s      -0.000031      0.000053      0.000108      0.000000
    219 O2    s      -0.000060     -0.000311      0.000399      0.000000
    220 O2    s       0.000153      0.000066     -0.000115      0.000000
    221 O2    s       0.000032     -0.000106     -0.000599      0.000000
    222 O2    s      -0.000092      0.000019      0.000321      0.000000
    223 O2    s      -0.000263      0.000087      0.000331      0.000000
    224 O3    s       0.000361     -0.000343     -0.000126      0.000000
    225 O3    s       0.000019      0.000064      0.000132      0.000000
    226 O2    s      -0.000058      0.000034     -0.000207      0.000000
    227 O2    s      -0.000123      0.000244      0.000017      0.000000
    228 O2    s      -0.000135     -0.000178     -0.000033      0.000000
    229 O2    s       0.000186     -0.000270      0.000107      0.000000
    230 O2    s      -0.000186      0.000114     -0.000373      0.000000
    231 O2    s       0.000141     -0.000047      0.000031      0.000000
    232 O2    s      -0.000147      0.000341     -0.000165      0.000000
    233 O2    s      -0.000035     -0.000014      0.000268      0.000000
    234 O2    s       0.000004     -0.000079      0.000363      0.000000
    235 O2    s       0.000030      0.000044      0.000377      0.000000
    236 O2    s      -0.000050     -0.000037     -0.000460      0.000000
    237 O2    s       0.000078      0.000088     -0.000098      0.000000
    238 O2    s      -0.000003      0.000104      0.000316      0.000000
    239 O2    s      -0.000228      0.000021      0.000466      0.000000
    240 O2    s       0.000108     -0.000102      0.000081      0.000000
    241 O3    s       0.000731     -0.000926      0.000751      0.000000
    242 O2    s      -0.000113      0.000134     -0.000002      0.000000
    243 O2    s       0.000029     -0.000053      0.000052      0.000000
    244 O2    s       0.000002      0.000047      0.000086      0.000000
    245 O2    s      -0.000015      0.000057     -0.000126      0.000000
    246 O2    s       0.000117     -0.000048      0.000299      0.000000
    247 O2    s       0.000023      0.000023     -0.000332      0.000000
    248 O2    s       0.000029      0.000258      0.000230      0.000000
    249 O2    s      -0.000085      0.000044      0.000041      0.000000
    250 O2    s       0.000122     -0.000432      0.000568      0.000000
    251 O2    s       0.000091     -0.000149     -0.000115      0.000000
    252 O2    s      -0.000124      0.000228     -0.000176      0.000000
    253 O2    s       0.000757     -0.000930     -0.001895      0.000000
    254 O3    s       0.000065      0.000107     -0.000579      0.000000
    255 O3    s      -0.000218      0.000011     -0.000659      0.000000
    256 O2    s       0.000086     -0.000039      0.000034      0.000000
    257 O2    s       0.000072     -0.000116     -0.000106      0.000000
    258 O2    s       0.000154     -0.000200     -0.000515      0.000000
    259 O2    s       0.000069     -0.000058      0.000178      0.000000
    260 O2    s       0.000360     -0.000055      0.000507      0.000000
    261 O2    s       0.000002     -0.000144      0.000247      0.000000
    262 O2    s       0.000046      0.000074      0.000180      0.000000
    263 O2    s       0.000084     -0.000115      0.000208      0.000000
    264 O2    s      -0.000034      0.000046      0.000277      0.000000
    265 O2    s      -0.000370      0.000682      0.000475      0.000000
    266 O2    s      -0.000042     -0.000118     -0.000063      0.000000
    267 O2    s       0.000042     -0.000082      0.000310      0.000000
    268 O2    s      -0.000019      0.000027      0.000240      0.000000
    269 O2    s       0.000131     -0.000044     -0.000244      0.000000
    270 O2    s      -0.000343      0.000074     -0.000518      0.000000
    271 O2    s      -0.000667      0.000310     -0.000688      0.000000
    272 O2    s      -0.000327      0.000116      0.000499      0.000000
    273 O2    s      -0.000097      0.000235      0.000536      0.000000
    274 O2    s      -0.000052      0.000038     -0.000060      0.000000
    275 O2    s       0.000078      0.000021      0.000143      0.000000
    276 O2    s      -0.000047      0.000061      0.000161      0.000000
    277 O2    s      -0.000085      0.000023     -0.000391      0.000000
    278 O2    s       0.000161     -0.000009      0.000225      0.000000
    279 O2    s      -0.000026      0.000009      0.000137      0.000000
    280 O3    s       0.000151     -0.000305     -0.000252      0.000000
    281 O3    s       0.000126      0.000047     -0.000472      0.000000
    282 O2    s       0.000162     -0.000111     -0.000093      0.000000
    283 O2    s      -0.000022      0.000002     -0.000165      0.000000
    284 O2    s       0.000108     -0.000067     -0.000315      0.000000
    285 O2    s       0.000082     -0.000087     -0.000149      0.000000
    286 O2    s      -0.000157      0.000010      0.000392      0.000000
    287 O2    s      -0.000043      0.000060     -0.000066      0.000000
    288 O2    s      -0.000145      0.000051      0.000706      0.000000
    289 O3    s       0.001063     -0.000711      0.000812      0.000000
    290 O2    s       0.000150     -0.000068     -0.000179      0.000000
    291 O2    s       0.000007      0.000130     -0.000392      0.000000
    292 O2    s      -0.000111      0.000036      0.000252      0.000000
    293 O2    s      -0.000023     -0.000102      0.000079      0.000000
    294 O2    s       0.000084     -0.000100      0.000015      0.000000
    295 O3    s       0.000101     -0.000547      0.001690      0.000000
    296 O2    s       0.000264     -0.000155     -0.000576      0.000000
    297 O3    s      -0.000268      0.000332      0.000318      0.000000
    298 O2    s       0.000252     -0.000035      0.000984      0.000000
    299 O2    s      -0.000118      0.000128     -0.000626      0.000000
    300 O2    s       0.000109      0.000111     -0.000004      0.000000
    301 O2    s       0.000007      0.000012     -0.000105      0.000000
    302 O2    s      -0.000128     -0.000035      0.000225      0.000000
    303 O3    s      -0.002390      0.002126      0.000691      0.000000
    304 O2    s      -0.000069      0.000042     -0.000052      0.000000
    305 O2    s      -0.000032      0.000029     -0.000282      0.000000
    306 O2    s      -0.000037      0.000068     -0.000126      0.000000
    307 F     s       0.000134     -0.000080      0.000286      0.000000
    308 F     s       0.000367     -0.000079      0.000186      0.000000
    309 F     s       0.001239     -0.001209     -0.000216      0.000000
    310 F     s      -0.000024     -0.000101     -0.000255      0.000000
    311 F     s       0.000032      0.000117      0.001141      0.000000
    312 F     s       0.000108      0.000103     -0.000280      0.000000
--------------------------------------------------------------------------------
  Maximum abs         0.002390      0.002126      0.003500      0.000000
--------------------------------------------------------------------------------


  Time to end of optimisation =       7.1235 seconds


  Peak dynamic memory used =      19.13 MB 


  Timing analysis for GULP :

--------------------------------------------------------------------------------
  Task / Subroutine                                          Time (Seconds)
--------------------------------------------------------------------------------
  Calculation of reciprocal space energy and derivatives          0.2828
  Calculation of real space energy and derivatives                5.9541
  Calculation of three-body energy and derivatives                0.6568
  Calculation of matrix inversion                                 0.1920
--------------------------------------------------------------------------------
  Total CPU time                                                  7.1235
--------------------------------------------------------------------------------


  Dump file written as out.res                                                 
  CIF file written as out.cif                                                 


  Job Finished at 13:29.03 29th November   2016                               

