********************************************************************************
*                       GENERAL UTILITY LATTICE PROGRAM                        *
*                                 Julian Gale                                  *
*                      Nanochemistry Research Institute                        *
*                           Department of Chemistry                            *
*                    Curtin University, Western Australia                      *
********************************************************************************
* Version = 4.2.0 * Last modified =  20th January 2014                         *
********************************************************************************
*  optimise     - perform optimisation run                                     *
*  conp         - constant pressure calculation                                *
*  qok          - running with non charge neutral cell is OK                   *
********************************************************************************

  Job Started  at 08:47.46 29th November   2016                               

  Number of CPUs =     1


  Total number of configurations input =   1

********************************************************************************
*  Input for Configuration =   1                                               *
********************************************************************************

  Formula = Si57Ge3O120F6                                               

  Number of irreducible atoms/shells =     312


  Total number atoms/shells =     312

  Dimensionality = 3               :  Bulk   


  Charge on solid   =  -6.000000 =>neutralising background added


  Cartesian lattice vectors (Angstroms) :

       11.981884    0.000000    0.000000
       -5.922773   10.383276    0.000000
       -0.024412   -0.124830   29.431006

  Cell parameters (Angstroms/Degrees):

  a =      11.9819    alpha =  90.1875
  b =      11.9537    beta  =  90.0475
  c =      29.4313    gamma = 119.7011

  Initial cell volume =        3661.547112 Angs**3

  Temperature of configuration =  0.000     K 

  Pressure of configuration =         0.000 GPa 

  Fractional coordinates of asymmetric unit :

--------------------------------------------------------------------------------
   No.  Atomic       x           y          z         Charge      Occupancy
        Label      (Frac)      (Frac)     (Frac)        (e)         (Frac)  
--------------------------------------------------------------------------------
      1 Si    c    0.699600    0.375700    0.033890     4.00000    1.000000    
      2 Si    c    0.622210 *  0.319747 *  0.369532 *   4.00000    1.000000    
      3 Si    c    0.679527 *  0.290548 *  0.699929 *   4.00000    1.000000    
      4 Si    c    0.298816 *  0.617454 *  0.535517 *   4.00000    1.000000    
      5 Si    c    0.389320 *  0.676643 *  0.868741 *   4.00000    1.000000    
      6 Si    c    0.330859 *  0.699321 *  0.202809 *   4.00000    1.000000    
      7 Si    c    0.384140 *  0.700473 *  0.303797 *   4.00000    1.000000    
      8 Si    c    0.344052 *  0.637262 *  0.971740 *   4.00000    1.000000    
      9 Si    c    0.298801 *  0.672258 *  0.636392 *   4.00000    1.000000    
     10 Si    c    0.625773 *  0.291589 *  0.800648 *   4.00000    1.000000    
     11 Si    c    0.677404 *  0.376065 *  0.470221 *   4.00000    1.000000    
     12 Si    c    0.709889 *  0.316290 *  0.136654 *   4.00000    1.000000    
     13 Ge    c    0.537807 *  0.440166 *  0.968051 *   4.00000    1.000000    
     14 Si    c    0.586479 *  0.109533 *  0.304446 *   4.00000    1.000000    
     15 Si    c    0.889266 *  0.466748 *  0.636141 *   4.00000    1.000000    
     16 Si    c    0.472293 *  0.580196 *  0.470922 *   4.00000    1.000000    
     17 Si    c    0.425128 *  0.884256 *  0.802397 *   4.00000    1.000000    
     18 Si    c    0.125652 *  0.524277 *  0.136230 *   4.00000    1.000000    
     19 Si    c    0.419773 *  0.527455 *  0.369128 *   4.00000    1.000000    
     20 Si    c    0.129968 *  0.589064 *  0.033654 *   4.00000    1.000000    
     21 Si    c    0.475067 *  0.881674 *  0.700884 *   4.00000    1.000000    
     22 Si    c    0.597519 *  0.463809 *  0.868773 *   4.00000    1.000000    
     23 Si    c    0.889119 *  0.414361 *  0.534369 *   4.00000    1.000000    
     24 Si    c    0.536245 *  0.108955 *  0.202406 *   4.00000    1.000000    
     25 Si    c    0.309858 *  0.392882 *  0.857176 *   4.00000    1.000000    
     26 Si    c    0.607994 *  0.899427 *  0.188351 *   4.00000    1.000000    
     27 Si    c    0.097273 *  0.693861 *  0.520896 *   4.00000    1.000000    
     28 Si    c    0.699227 *  0.597803 *  0.355349 *   4.00000    1.000000    
     29 Si    c    0.401957 *  0.089533 *  0.686136 *   4.00000    1.000000    
     30 Ge    c    0.911276 *  0.318419 *  0.027516 *   4.00000    1.000000    
     31 Si    c    0.400142 *  0.299375 *  0.485216 *   4.00000    1.000000    
     32 Si    c    0.912627 *  0.596156 *  0.152488 *   4.00000    1.000000    
     33 Si    c    0.704586 *  0.091352 *  0.817054 *   4.00000    1.000000    
     34 Si    c    0.625957 *  0.717071 *  0.987636 *   4.00000    1.000000    
     35 Si    c    0.097904 *  0.394871 *  0.650769 *   4.00000    1.000000    
     36 Si    c    0.306953 *  0.902239 *  0.318767 *   4.00000    1.000000    
     37 Si    c    0.258989 *  0.344881 *  0.960128 *   4.00000    1.000000    
     38 Si    c    0.664505 *  0.907812 *  0.289372 *   4.00000    1.000000    
     39 Si    c    0.089723 *  0.744618 *  0.621684 *   4.00000    1.000000    
     40 Si    c    0.750575 *  0.657726 *  0.456060 *   4.00000    1.000000    
     41 Si    c    0.345176 *  0.083869 *  0.786969 *   4.00000    1.000000    
     42 Si    c    0.923514 *  0.241398 *  0.122584 *   4.00000    1.000000    
     43 Si    c    0.342110 *  0.248774 *  0.384290 *   4.00000    1.000000    
     44 Si    c    0.919553 *  0.658811 *  0.050738 *   4.00000    1.000000    
     45 Si    c    0.752712 *  0.082136 *  0.715934 *   4.00000    1.000000    
     46 Si    c    0.674267 *  0.746255 *  0.883953 *   4.00000    1.000000    
     47 Si    c    0.090659 *  0.337286 *  0.549883 *   4.00000    1.000000    
     48 Si    c    0.259191 *  0.908711 *  0.217793 *   4.00000    1.000000    
     49 Ge    c    0.970241 *  0.127740 *  0.972723 *   4.00000    1.000000    
     50 Si    c    0.881840 *  0.844305 *  0.305206 *   4.00000    1.000000    
     51 Si    c    0.153929 *  0.025332 *  0.636569 *   4.00000    1.000000    
     52 Si    c    0.030514 *  0.875117 *  0.470594 *   4.00000    1.000000    
     53 Si    c    0.128600 *  0.148000 *  0.803561 *   4.00000    1.000000    
     54 Si    c    0.857345 *  0.965570 *  0.140534 *   4.00000    1.000000    
     55 Si    c    0.125476 *  0.968985 *  0.369842 *   4.00000    1.000000    
     56 Si    c    0.870043 *  0.888805 *  0.038312 *   4.00000    1.000000    
     57 Si    c    0.033950 *  0.148867 *  0.702281 *   4.00000    1.000000    
     58 Si    c    0.885819 *  0.025244 *  0.868583 *   4.00000    1.000000    
     59 Si    c    0.153063 *  0.119179 *  0.535663 *   4.00000    1.000000    
     60 Si    c    0.978853 *  0.842251 *  0.204922 *   4.00000    1.000000    
     61 O3    c    0.959921 *  0.005965 *  0.007715 *   1.33043    1.000000    
     62 O2    c    0.002125 *  0.925499 *  0.338098 *   0.87073    1.000000    
     63 O2    c    0.078039 *  0.069325 *  0.670298 *   0.87073    1.000000    
     64 O2    c    0.072766 *  0.996675 *  0.503433 *   0.87073    1.000000    
     65 O2    c    0.006912 *  0.067387 *  0.835339 *   0.87073    1.000000    
     66 O2    c    0.931107 *  0.918870 *  0.173885 *   0.87073    1.000000    
     67 O2    c    0.344445 *  0.577441 *  0.336490 *   0.87073    1.000000    
     68 O2    c    0.423133 *  0.755137 *  0.668667 *   0.87073    1.000000    
     69 O2    c    0.259938 *  0.677722 *  0.004022 *   0.87073    1.000000    
     70 O2    c    0.666370 *  0.418388 *  0.831260 *   0.87073    1.000000    
     71 O2    c    0.587960 *  0.233895 *  0.169783 *   0.87073    1.000000    
     72 O2    c    0.763230 *  0.337514 *  0.502296 *   0.87073    1.000000    
     73 O3    c    0.577670 *  0.352089 *  0.006833 *   1.33043    1.000000    
     74 O2    c    0.762580 *  0.414537 *  0.667834 *   0.87073    1.000000    
     75 O2    c    0.661647 *  0.235288 *  0.336890 *   0.87073    1.000000    
     76 O2    c    0.422277 *  0.656497 *  0.503212 *   0.87073    1.000000    
     77 O2    c    0.248677 *  0.576108 *  0.169814 *   0.87073    1.000000    
     78 O2    c    0.351077 *  0.758830 *  0.835118 *   0.87073    1.000000    
     79 O3    c    0.131714 *  0.234544 *  0.981131 *   1.33043    1.000000    
     80 O2    c    0.791452 *  0.908775 *  0.309204 *   0.87073    1.000000    
     81 O2    c    0.088891 *  0.871018 *  0.641620 *   0.87073    1.000000    
     82 O2    c    0.876640 *  0.784762 *  0.475668 *   0.87073    1.000000    
     83 O2    c    0.218739 *  0.083015 *  0.807112 *   0.87073    1.000000    
     84 O2    c    0.919881 *  0.118900 *  0.148254 *   0.87073    1.000000    
     85 O2    c    0.215471 *  0.122934 *  0.364359 *   0.87073    1.000000    
     86 O2    c    0.917158 *  0.783871 *  0.032277 *   0.87073    1.000000    
     87 O2    c    0.879881 *  0.082566 *  0.696606 *   0.87073    1.000000    
     88 O2    c    0.793699 *  0.871144 *  0.861126 *   0.87073    1.000000    
     89 O2    c    0.090263 *  0.210556 *  0.529746 *   0.87073    1.000000    
     90 O2    c    0.132195 *  0.908190 *  0.198165 *   0.87073    1.000000    
     91 O2    c    0.939011 *  0.852678 *  0.255674 *   0.87073    1.000000    
     92 O2    c    0.139799 *  0.067303 *  0.586398 *   0.87073    1.000000    
     93 O3    c    0.937823 *  0.060388 *  0.918499 *   1.33043    1.000000    
     94 O2    c    0.077315 *  0.142437 *  0.753031 *   0.87073    1.000000    
     95 O2    c    0.878345 *  0.929013 *  0.090610 *   0.87073    1.000000    
     96 O2    c    0.072895 *  0.929234 *  0.420365 *   0.87073    1.000000    
     97 O1    c    0.890826 *  0.203715 *  0.984327 *   1.73396    1.000000    
     98 O2    c    0.798068 *  0.693499 *  0.317275 *   0.87073    1.000000    
     99 O2    c    0.305365 *  0.091233 *  0.647730 *   0.87073    1.000000    
    100 O2    c    0.099089 *  0.792048 *  0.482524 *   0.87073    1.000000    
    101 O2    c    0.212441 *  0.297445 *  0.818456 *   0.87073    1.000000    
    102 O2    c    0.704625 *  0.896519 *  0.150344 *   0.87073    1.000000    
    103 O2    c    0.208486 *  0.900511 *  0.357091 *   0.87073    1.000000    
    104 O2    c    0.721696 *  0.829746 *  0.022410 *   0.87073    1.000000    
    105 O2    c    0.099975 *  0.299238 *  0.689336 *   0.87073    1.000000    
    106 O2    c    0.803070 *  0.094690 *  0.855553 *   0.87073    1.000000    
    107 O2    c    0.304027 *  0.200959 *  0.523438 *   0.87073    1.000000    
    108 O2    c    0.913593 *  0.690997 *  0.191993 *   0.87073    1.000000    
    109 O2    c    0.329317 *  0.642592 *  0.253267 *   0.87073    1.000000    
    110 O2    c    0.355370 *  0.673187 *  0.585976 *   0.87073    1.000000    
    111 O2    c    0.340003 *  0.681097 *  0.919639 *   0.87073    1.000000    
    112 O2    c    0.681396 *  0.346996 *  0.750347 *   0.87073    1.000000    
    113 O2    c    0.658708 *  0.322548 *  0.086758 *   0.87073    1.000000    
    114 O2    c    0.678179 *  0.318894 *  0.419931 *   0.87073    1.000000    
    115 O3    c    0.373403 *  0.326247 *  0.977569 *   1.33043    1.000000    
    116 O2    c    0.673964 *  0.040503 *  0.307583 *   0.87073    1.000000    
    117 O2    c    0.957501 *  0.622850 *  0.639921 *   0.87073    1.000000    
    118 O2    c    0.628003 *  0.667711 *  0.474313 *   0.87073    1.000000    
    119 O2    c    0.337002 *  0.952448 *  0.805969 *   0.87073    1.000000    
    120 O2    c    0.056246 *  0.368698 *  0.139273 *   0.87073    1.000000    
    121 O2    c    0.332266 *  0.371412 *  0.365936 *   0.87073    1.000000    
    122 O2    c    0.054882 *  0.671499 *  0.034592 *   0.87073    1.000000    
    123 O2    c    0.630876 *  0.948951 *  0.697800 *   0.87073    1.000000    
    124 O2    c    0.681264 *  0.621807 *  0.866360 *   0.87073    1.000000    
    125 O2    c    0.958498 *  0.327124 *  0.531299 *   0.87073    1.000000    
    126 O2    c    0.380308 *  0.040226 *  0.198833 *   0.87073    1.000000    
    127 O3    c    0.761843 *  0.299660 *  0.010786 *   1.33043    1.000000    
    128 O2    c    0.697575 *  0.462886 *  0.347459 *   0.87073    1.000000    
    129 O2    c    0.535692 *  0.222344 *  0.678283 *   0.87073    1.000000    
    130 O2    c    0.230571 *  0.692824 *  0.513265 *   0.87073    1.000000    
    131 O2    c    0.315792 *  0.530182 *  0.849942 *   0.87073    1.000000    
    132 O2    c    0.473529 *  0.767043 *  0.180601 *   0.87073    1.000000    
    133 O2    c    0.308350 *  0.768667 *  0.325901 *   0.87073    1.000000    
    134 O2    c    0.489585 *  0.716245 *  0.990754 *   0.87073    1.000000    
    135 O2    c    0.230610 *  0.529068 *  0.658483 *   0.87073    1.000000    
    136 O2    c    0.700026 *  0.223420 *  0.823920 *   0.87073    1.000000    
    137 O2    c    0.534882 *  0.300844 *  0.492697 *   0.87073    1.000000    
    138 O2    c    0.782699 *  0.460307 *  0.158653 *   0.87073    1.000000    
    139 O2    c    0.800261 *  0.531662 *  0.030910 *   0.87073    1.000000    
    140 O2    c    0.466658 *  0.246631 *  0.364557 *   0.87073    1.000000    
    141 O2    c    0.751969 *  0.206680 *  0.695257 *   0.87073    1.000000    
    142 O2    c    0.216728 *  0.461696 *  0.530426 *   0.87073    1.000000    
    143 O2    c    0.542608 *  0.737675 *  0.866595 *   0.87073    1.000000    
    144 O2    c    0.255580 *  0.780568 *  0.198130 *   0.87073    1.000000    
    145 O2    c    0.539578 *  0.782456 *  0.309001 *   0.87073    1.000000    
    146 O2    c    0.280170 *  0.484285 *  0.976947 *   0.87073    1.000000    
    147 O2    c    0.216131 *  0.745970 *  0.641459 *   0.87073    1.000000    
    148 O2    c    0.470114 *  0.211204 *  0.805822 *   0.87073    1.000000    
    149 O2    c    0.751156 *  0.532027 *  0.475545 *   0.87073    1.000000    
    150 O2    c    0.797963 *  0.248745 *  0.139737 *   0.87073    1.000000    
    151 O2    c    0.241821 *  0.329694 *  0.904626 *   0.87073    1.000000    
    152 O2    c    0.681271 *  0.903919 *  0.235116 *   0.87073    1.000000    
    153 O2    c    0.091884 *  0.764052 *  0.567327 *   0.87073    1.000000    
    154 O2    c    0.769085 *  0.673405 *  0.401697 *   0.87073    1.000000    
    155 O2    c    0.327084 *  0.084319 *  0.732572 *   0.87073    1.000000    
    156 O3    c    0.922317 *  0.214357 *  0.069868 *   1.33043    1.000000    
    157 O2    c    0.325694 *  0.229849 *  0.438652 *   0.87073    1.000000    
    158 O2    c    0.914527 *  0.665062 *  0.105552 *   0.87073    1.000000    
    159 O2    c    0.772938 *  0.086547 *  0.770256 *   0.87073    1.000000    
    160 O2    c    0.693223 *  0.770123 *  0.937983 *   0.87073    1.000000    
    161 O2    c    0.093194 *  0.320151 *  0.604237 *   0.87073    1.000000    
    162 O2    c    0.238777 *  0.908025 *  0.272070 *   0.87073    1.000000    
    163 O3    c    0.617983 *  0.586497 *  0.001492 *   1.33043    1.000000    
    164 O2    c    0.446102 *  0.026600 *  0.327713 *   0.87073    1.000000    
    165 O2    c    0.972748 *  0.409201 *  0.659527 *   0.87073    1.000000    
    166 O2    c    0.414805 *  0.439258 *  0.494093 *   0.87073    1.000000    
    167 O2    c    0.565959 *  0.965292 *  0.825721 *   0.87073    1.000000    
    168 O2    c    0.034676 *  0.575812 *  0.157165 *   0.87073    1.000000    
    169 O2    c    0.560504 *  0.584494 *  0.346083 *   0.87073    1.000000    
    170 O3    c    0.054846 *  0.455213 *  0.007469 *   1.33043    1.000000    
    171 O2    c    0.417239 *  0.964673 *  0.677237 *   0.87073    1.000000    
    172 O2    c    0.449839 *  0.408481 *  0.850521 *   0.87073    1.000000    
    173 O2    c    0.972504 *  0.555204 *  0.511356 *   0.87073    1.000000    
    174 O2    c    0.594345 *  0.025180 *  0.179513 *   0.87073    1.000000    
    175 O2    c    0.586871 *  0.162320 *  0.253515 *   0.87073    1.000000    
    176 O2    c    0.836460 *  0.414794 *  0.585186 *   0.87073    1.000000    
    177 O3    c    0.607948 *  0.413510 *  0.917391 *   1.33043    1.000000    
    178 O2    c    0.422494 *  0.828463 *  0.751750 *   0.87073    1.000000    
    179 O2    c    0.175323 *  0.577446 *  0.085409 *   0.87073    1.000000    
    180 O2    c    0.419505 *  0.580706 *  0.420020 *   0.87073    1.000000    
    181 F     c    0.456767 *  0.901643 *  0.253093 *   0.56000    1.000000    
    182 F     c    0.096359 *  0.544586 *  0.585646 *   0.56000    1.000000    
    183 F     c    0.486410 *  0.532346 *  0.929861 *   0.56000    1.000000    
    184 F     c    0.550367 *  0.086831 *  0.751489 *   0.56000    1.000000    
    185 F     c    0.918200 *  0.423621 *  0.076258 *   0.56000    1.000000    
    186 F     c    0.549570 *  0.449497 *  0.420014 *   0.56000    1.000000    
    187 O3    s    0.950634 *  0.002391 *  0.008380 *  -3.33043    1.000000    
    188 O2    s    0.002489 *  0.921284 *  0.337970 *  -2.87073    1.000000    
    189 O2    s    0.081618 *  0.073305 *  0.670098 *  -2.87073    1.000000    
    190 O2    s    0.077018 *  0.996770 *  0.503363 *  -2.87073    1.000000    
    191 O2    s    0.007682 *  0.072008 *  0.835304 *  -2.87073    1.000000    
    192 O2    s    0.928266 *  0.915251 *  0.173704 *  -2.87073    1.000000    
    193 O2    s    0.356302 *  0.584950 *  0.336478 *  -2.87073    1.000000    
    194 O2    s    0.415702 *  0.759656 *  0.668658 *  -2.87073    1.000000    
    195 O2    s    0.255878 *  0.664987 *  0.003609 *  -2.87073    1.000000    
    196 O2    s    0.655040 *  0.409670 *  0.831861 *  -2.87073    1.000000    
    197 O2    s    0.595107 *  0.229426 *  0.169758 *  -2.87073    1.000000    
    198 O2    s    0.767395 *  0.349417 *  0.502297 *  -2.87073    1.000000    
    199 O3    s    0.588551 *  0.360911 *  0.007134 *  -3.33043    1.000000    
    200 O2    s    0.767068 *  0.407115 *  0.667889 *  -2.87073    1.000000    
    201 O2    s    0.649832 *  0.230995 *  0.336911 *  -2.87073    1.000000    
    202 O2    s    0.414713 *  0.644605 *  0.503222 *  -2.87073    1.000000    
    203 O2    s    0.244328 *  0.583381 *  0.169719 *  -2.87073    1.000000    
    204 O2    s    0.362578 *  0.762763 *  0.835392 *  -2.87073    1.000000    
    205 O3    s    0.132601 *  0.238080 *  0.978138 *  -3.33043    1.000000    
    206 O2    s    0.787933 *  0.901822 *  0.306755 *  -2.87073    1.000000    
    207 O2    s    0.095868 *  0.874319 *  0.639053 *  -2.87073    1.000000    
    208 O2    s    0.879873 *  0.781211 *  0.473145 *  -2.87073    1.000000    
    209 O2    s    0.222324 *  0.089970 *  0.804675 *  -2.87073    1.000000    
    210 O2    s    0.913655 *  0.115046 *  0.144915 *  -2.87073    1.000000    
    211 O2    s    0.218974 *  0.119585 *  0.366960 *  -2.87073    1.000000    
    212 O2    s    0.912485 *  0.781120 *  0.034913 *  -2.87073    1.000000    
    213 O2    s    0.883054 *  0.089508 *  0.699171 *  -2.87073    1.000000    
    214 O2    s    0.790627 *  0.873845 *  0.864250 *  -2.87073    1.000000    
    215 O2    s    0.096991 *  0.213950 *  0.532434 *  -2.87073    1.000000    
    216 O2    s    0.128944 *  0.901212 *  0.200878 *  -2.87073    1.000000    
    217 O2    s    0.937063 *  0.850532 *  0.255500 *  -2.87073    1.000000    
    218 O2    s    0.142887 *  0.068416 *  0.586328 *  -2.87073    1.000000    
    219 O3    s    0.934607 *  0.061846 *  0.917251 *  -3.33043    1.000000    
    220 O2    s    0.078187 *  0.143772 *  0.752974 *  -2.87073    1.000000    
    221 O2    s    0.874998 *  0.928770 *  0.090570 *  -2.87073    1.000000    
    222 O2    s    0.074050 *  0.927607 *  0.420331 *  -2.87073    1.000000    
    223 O1    s    0.899469 *  0.203635 *  0.985854 *  -3.73396    1.000000    
    224 O2    s    0.796856 *  0.699796 *  0.319901 *  -2.87073    1.000000    
    225 O2    s    0.299159 *  0.084044 *  0.650477 *  -2.87073    1.000000    
    226 O2    s    0.091551 *  0.790852 *  0.485185 *  -2.87073    1.000000    
    227 O2    s    0.213646 *  0.291512 *  0.820873 *  -2.87073    1.000000    
    228 O2    s    0.710643 *  0.904024 *  0.153226 *  -2.87073    1.000000    
    229 O2    s    0.209749 *  0.907949 *  0.354531 *  -2.87073    1.000000    
    230 O2    s    0.727145 *  0.824409 *  0.020484 *  -2.87073    1.000000    
    231 O2    s    0.092707 *  0.293042 *  0.686737 *  -2.87073    1.000000    
    232 O2    s    0.801400 *  0.087254 *  0.852920 *  -2.87073    1.000000    
    233 O2    s    0.297874 *  0.202345 *  0.520834 *  -2.87073    1.000000    
    234 O2    s    0.920336 *  0.696859 *  0.189200 *  -2.87073    1.000000    
    235 O2    s    0.335060 *  0.654282 *  0.253256 *  -2.87073    1.000000    
    236 O2    s    0.343743 *  0.667353 *  0.585956 *  -2.87073    1.000000    
    237 O2    s    0.345534 *  0.676243 *  0.919605 *  -2.87073    1.000000    
    238 O2    s    0.675442 *  0.335324 *  0.750283 *  -2.87073    1.000000    
    239 O2    s    0.668079 *  0.326756 *  0.087363 *  -2.87073    1.000000    
    240 O2    s    0.672344 *  0.324832 *  0.419906 *  -2.87073    1.000000    
    241 O3    s    0.372885 *  0.336295 *  0.974991 *  -3.33043    1.000000    
    242 O2    s    0.663990 *  0.033746 *  0.305351 *  -2.87073    1.000000    
    243 O2    s    0.964230 *  0.619491 *  0.637635 *  -2.87073    1.000000    
    244 O2    s    0.624847 *  0.657717 *  0.472057 *  -2.87073    1.000000    
    245 O2    s    0.346942 *  0.958981 *  0.803631 *  -2.87073    1.000000    
    246 O2    s    0.050335 *  0.372308 *  0.137284 *  -2.87073    1.000000    
    247 O2    s    0.342270 *  0.374596 *  0.368191 *  -2.87073    1.000000    
    248 O2    s    0.048501 *  0.661868 *  0.036179 *  -2.87073    1.000000    
    249 O2    s    0.627596 *  0.955866 *  0.700002 *  -2.87073    1.000000    
    250 O2    s    0.672396 *  0.619735 *  0.868484 *  -2.87073    1.000000    
    251 O2    s    0.965202 *  0.337160 *  0.533570 *  -2.87073    1.000000    
    252 O2    s    0.383600 *  0.033541 *  0.201181 *  -2.87073    1.000000    
    253 O3    s    0.766433 *  0.308981 *  0.014479 *  -3.33043    1.000000    
    254 O2    s    0.689977 *  0.462369 *  0.350598 *  -2.87073    1.000000    
    255 O2    s    0.536435 *  0.215391 *  0.681366 *  -2.87073    1.000000    
    256 O2    s    0.223541 *  0.685156 *  0.516396 *  -2.87073    1.000000    
    257 O2    s    0.322919 *  0.531403 *  0.852678 *  -2.87073    1.000000    
    258 O2    s    0.472955 *  0.774006 *  0.183747 *  -2.87073    1.000000    
    259 O2    s    0.316004 *  0.775734 *  0.322841 *  -2.87073    1.000000    
    260 O2    s    0.487925 *  0.707991 *  0.988393 *  -2.87073    1.000000    
    261 O2    s    0.223647 *  0.529677 *  0.655364 *  -2.87073    1.000000    
    262 O2    s    0.692874 *  0.216437 *  0.820774 *  -2.87073    1.000000    
    263 O2    s    0.535363 *  0.308409 *  0.489575 *  -2.87073    1.000000    
    264 O2    s    0.789308 *  0.460322 *  0.155750 *  -2.87073    1.000000    
    265 O2    s    0.804471 *  0.531183 *  0.033455 *  -2.87073    1.000000    
    266 O2    s    0.469365 *  0.254551 *  0.367176 *  -2.87073    1.000000    
    267 O2    s    0.744401 *  0.201907 *  0.697937 *  -2.87073    1.000000    
    268 O2    s    0.211547 *  0.464471 *  0.533034 *  -2.87073    1.000000    
    269 O2    s    0.540023 *  0.731861 *  0.868686 *  -2.87073    1.000000    
    270 O2    s    0.263844 *  0.785941 *  0.200699 *  -2.87073    1.000000    
    271 O2    s    0.536917 *  0.787572 *  0.306368 *  -2.87073    1.000000    
    272 O2    s    0.285328 *  0.487208 *  0.974685 *  -2.87073    1.000000    
    273 O2    s    0.211003 *  0.738063 *  0.638832 *  -2.87073    1.000000    
    274 O2    s    0.472631 *  0.205604 *  0.803271 *  -2.87073    1.000000    
    275 O2    s    0.743362 *  0.529475 *  0.472919 *  -2.87073    1.000000    
    276 O2    s    0.801552 *  0.255258 *  0.137653 *  -2.87073    1.000000    
    277 O2    s    0.250763 *  0.337953 *  0.904821 *  -2.87073    1.000000    
    278 O2    s    0.671786 *  0.903862 *  0.236003 *  -2.87073    1.000000    
    279 O2    s    0.092212 *  0.754623 *  0.568222 *  -2.87073    1.000000    
    280 O2    s    0.759767 *  0.663790 *  0.402618 *  -2.87073    1.000000    
    281 O2    s    0.336836 *  0.084800 *  0.733479 *  -2.87073    1.000000    
    282 O3    s    0.921862 *  0.223697 *  0.072643 *  -3.33043    1.000000    
    283 O2    s    0.335252 *  0.239155 *  0.437764 *  -2.87073    1.000000    
    284 O2    s    0.914864 *  0.656935 *  0.104937 *  -2.87073    1.000000    
    285 O2    s    0.763579 *  0.086582 *  0.769375 *  -2.87073    1.000000    
    286 O2    s    0.684631 *  0.762370 *  0.937039 *  -2.87073    1.000000    
    287 O2    s    0.093421 *  0.329823 *  0.603366 *  -2.87073    1.000000    
    288 O2    s    0.248153 *  0.907498 *  0.271244 *  -2.87073    1.000000    
    289 O3    s    0.613490 *  0.591199 *  0.997801 *  -3.33043    1.000000    
    290 O2    s    0.445723 *  0.021657 *  0.324323 *  -2.87073    1.000000    
    291 O2    s    0.977678 *  0.413837 *  0.656140 *  -2.87073    1.000000    
    292 O2    s    0.419383 *  0.438855 *  0.490723 *  -2.87073    1.000000    
    293 O2    s    0.565914 *  0.970278 *  0.822371 *  -2.87073    1.000000    
    294 O2    s    0.030727 *  0.572503 *  0.154430 *  -2.87073    1.000000    
    295 O2    s    0.560793 *  0.579805 *  0.349488 *  -2.87073    1.000000    
    296 O3    s    0.052529 *  0.459493 *  0.011518 *  -3.33043    1.000000    
    297 O2    s    0.421804 *  0.969675 *  0.680669 *  -2.87073    1.000000    
    298 O2    s    0.448981 *  0.412337 *  0.853077 *  -2.87073    1.000000    
    299 O2    s    0.977394 *  0.555410 *  0.514788 *  -2.87073    1.000000    
    300 O2    s    0.589573 *  0.020253 *  0.182866 *  -2.87073    1.000000    
    301 O2    s    0.581573 *  0.151328 *  0.253486 *  -2.87073    1.000000    
    302 O2    s    0.847482 *  0.420188 *  0.585208 *  -2.87073    1.000000    
    303 O3    s    0.602409 *  0.420557 *  0.915552 *  -3.33043    1.000000    
    304 O2    s    0.428187 *  0.839764 *  0.751798 *  -2.87073    1.000000    
    305 O2    s    0.165699 *  0.572947 *  0.085707 *  -2.87073    1.000000    
    306 O2    s    0.425005 *  0.575120 *  0.420007 *  -2.87073    1.000000    
    307 F     s    0.456475 *  0.901306 *  0.253053 *  -1.56000    1.000000    
    308 F     s    0.096625 *  0.544775 *  0.585635 *  -1.56000    1.000000    
    309 F     s    0.490336 *  0.526448 *  0.932393 *  -1.56000    1.000000    
    310 F     s    0.550286 *  0.086845 *  0.751511 *  -1.56000    1.000000    
    311 F     s    0.918094 *  0.416423 *  0.073057 *  -1.56000    1.000000    
    312 F     s    0.549775 *  0.449336 *  0.420003 *  -1.56000    1.000000    
--------------------------------------------------------------------------------



********************************************************************************
*  General input information                                                   *
********************************************************************************

  Species output for all configurations : 

--------------------------------------------------------------------------------
  Species    Type    Atomic    Atomic    Charge       Radii (Angs)     Library
                     Number     Mass       (e)     Cova   Ionic  VDW   Symbol
--------------------------------------------------------------------------------
    Si       Core       14      28.09   4.000000   1.200  0.000  2.100          
    O1       Core        8      16.00   1.733957   0.730  0.000  1.360          
    O1       Shell       8       0.00  -3.733957   0.730  0.000  1.360          
    O2       Core        8      16.00   0.870733   0.730  0.000  1.360          
    O2       Shell       8       0.00  -2.870733   0.730  0.000  1.360          
    O3       Core        8      16.00   1.330431   0.730  0.000  1.360          
    O3       Shell       8       0.00  -3.330431   0.730  0.000  1.360          
    F        Core        9      19.00   0.560000   0.710  0.000  1.300          
    F        Shell       9       0.00  -1.560000   0.710  0.000  1.300          
    Ge       Core       32      72.61   4.000000   1.170  0.000  1.750          
--------------------------------------------------------------------------------


  Lattice summation method               =    Ewald          (3-D)
                                         =    Parry          (2-D)
                                         =    Saunders et al (1-D)
  Accuracy factor for lattice sums       =   12.000


  Time limit = Infinity

  Maximum range for interatomic potentials =        16.000000 Angstroms

  Taper potentials to zero over   1.0000 Angstroms using polynomial

  General interatomic potentials :

--------------------------------------------------------------------------------
Atom  Types   Potential         A         B         C         D     Cutoffs(Ang)
  1     2                                                            Min    Max 
--------------------------------------------------------------------------------
Si   c O1   s Buckingham    0.132E+04 0.318      10.1      0.00     0.000 16.000
Si   c O2   s Buckingham    0.132E+04 0.318      10.1      0.00     0.000 16.000
Si   c O3   s Buckingham    0.132E+04 0.318      10.1      0.00     0.000 16.000
Ge   c O1   s Buckingham    0.150E+04 0.326      16.8      0.00     0.000 16.000
Ge   c O2   s Buckingham    0.150E+04 0.326      16.8      0.00     0.000 16.000
Ge   c O3   s Buckingham    0.150E+04 0.326      16.8      0.00     0.000 16.000
O1   s O1   s Buckingham    0.228E+05 0.149      10.9      0.00     0.000 16.000
O1   s O2   s Buckingham    0.228E+05 0.149      10.9      0.00     0.000 16.000
O1   s O3   s Buckingham    0.228E+05 0.149      10.9      0.00     0.000 16.000
O2   s O2   s Buckingham    0.228E+05 0.149      10.9      0.00     0.000 16.000
O2   s O3   s Buckingham    0.228E+05 0.149      10.9      0.00     0.000 16.000
O3   s O3   s Buckingham    0.228E+05 0.149      10.9      0.00     0.000 16.000
Si   c F    s Buckingham     977.     0.282      0.00      0.00     0.000 16.000
Ge   c F    s Buckingham     681.     0.320      0.00      0.00     0.000 16.000
F    s F    s Buckingham     540.     0.262      0.00      0.00     0.000 16.000
O1   s F    s Buckingham    0.168E+04 0.268      0.00      0.00     0.000 16.000
O2   s F    s Buckingham    0.168E+04 0.268      0.00      0.00     0.000 16.000
O3   s F    s Buckingham    0.168E+04 0.268      0.00      0.00     0.000 16.000
O2   c O2   s Spring (c-s)   76.0      0.00      0.00      0.00     0.000  0.800
O3   c O3   s Spring (c-s)   128.      0.00      0.00      0.00     0.000  0.800
O1   c O1   s Spring (c-s)   180.      0.00      0.00      0.00     0.000  0.800
F    c F    s Spring (c-s)   33.5      0.00      0.00      0.00     0.000  0.800
--------------------------------------------------------------------------------

  General Three-body potentials :

  Harmonic form:

--------------------------------------------------------------------------------
Atom    Atom    Atom           Force Constants            Theta     Cutoffs  
  1       2       3     (eVrad**-2/eVrad**-3/eVrad**-4)   (deg)  1-2  1-3  2-3
--------------------------------------------------------------------------------
Si    c O1    s O1    s  1.261        0.0000    0.0000   109.470 0.00 0.00 0.00
                                                                 1.90 1.90 3.50
Si    c O1    s O2    s  1.261        0.0000    0.0000   109.470 0.00 0.00 0.00
                                                                 1.90 1.90 3.50
Si    c O2    s O2    s  1.261        0.0000    0.0000   109.470 0.00 0.00 0.00
                                                                 1.90 1.90 3.50
--------------------------------------------------------------------------------

********************************************************************************
*  Output for configuration   1                                                *
********************************************************************************


  Components of energy : 

--------------------------------------------------------------------------------
  Interatomic potentials     =        2064.25585075 eV
  Three-body potentials      =           0.48310108 eV
  Monopole - monopole (real) =       -6614.41507239 eV
  Monopole - monopole (recip)=       -3170.31897510 eV
  Monopole - monopole (total)=       -9784.73404749 eV
  Neutralising energy        =          -6.45724210 eV
--------------------------------------------------------------------------------
  Total lattice energy       =       -7726.45233776 eV
--------------------------------------------------------------------------------
  Total lattice energy       =         -745484.5410 kJ/(mole unit cells)
--------------------------------------------------------------------------------


  Number of variables =      939

  Maximum number of calculations  =          1000
  Maximum Hessian update interval =            10
  Maximum step size               =   1.000000000
  Maximum parameter tolerance     =   0.000010000
  Maximum function  tolerance     =   0.000010000
  Maximum gradient  tolerance     =   0.001000000
  Maximum gradient  component     =   0.010000000

  Symmetry not applied to optimisation

  Cell parameters to be optimised using strains

  Newton-Raphson optimiser to be used

  BFGS hessian update to be used

  Dumpfile to be written after every cycle

  Start of bulk optimisation :

  Cycle:      0 Energy:     -7726.452338  Gnorm:      0.000983  CPU:    1.058
  ** Hessian calculated **
  Cycle:      1 Energy:     -7726.519299  Gnorm:      0.006540  CPU:    3.294
  Cycle:      2 Energy:     -7726.520239  Gnorm:      0.000617  CPU:    4.675
  Cycle:      3 Energy:     -7726.520320  Gnorm:      0.000300  CPU:    6.055


  **** Optimisation achieved ****


  Final energy =   -7726.52032162 eV
  Final Gnorm  =       0.00003328

  Components of energy : 

--------------------------------------------------------------------------------
  Interatomic potentials     =        2065.09579047 eV
  Three-body potentials      =           0.48312527 eV
  Monopole - monopole (real) =       -6613.06544027 eV
  Monopole - monopole (recip)=       -3172.57196527 eV
  Monopole - monopole (total)=       -9785.63740553 eV
  Neutralising energy        =          -6.46183183 eV
--------------------------------------------------------------------------------
  Total lattice energy       =       -7726.52032162 eV
--------------------------------------------------------------------------------
  Total lattice energy       =         -745491.1004 kJ/(mole unit cells)
--------------------------------------------------------------------------------

  Final fractional coordinates of atoms :

--------------------------------------------------------------------------------
   No.  Atomic        x           y          z          Radius
        Label       (Frac)      (Frac)     (Frac)       (Angs) 
--------------------------------------------------------------------------------
     1  Si    c     0.699600    0.375700    0.033890    0.000000
     2  Si    c     0.641809    0.318377    0.368917    0.000000
     3  Si    c     0.701116    0.296511    0.699921    0.000000
     4  Si    c     0.317701    0.617530    0.533622    0.000000
     5  Si    c     0.407014    0.681518    0.866661    0.000000
     6  Si    c     0.347166    0.700138    0.199983    0.000000
     7  Si    c     0.400276    0.696945    0.300948    0.000000
     8  Si    c     0.356333    0.644928    0.969473    0.000000
     9  Si    c     0.321185    0.675206    0.634480    0.000000
    10  Si    c     0.645690    0.296541    0.800602    0.000000
    11  Si    c     0.696165    0.376342    0.469587    0.000000
    12  Si    c     0.722769    0.319690    0.136096    0.000000
    13  Ge    c     0.546355    0.446666    0.967663    0.000000
    14  Si    c     0.604170    0.106925    0.304174    0.000000
    15  Si    c     0.911223    0.470318    0.635990    0.000000
    16  Si    c     0.489902    0.579676    0.468335    0.000000
    17  Si    c     0.445469    0.888907    0.800180    0.000000
    18  Si    c     0.139672    0.528785    0.132628    0.000000
    19  Si    c     0.437852    0.525230    0.366394    0.000000
    20  Si    c     0.137202    0.590392    0.029910    0.000000
    21  Si    c     0.496844    0.886699    0.698718    0.000000
    22  Si    c     0.613968    0.467225    0.869193    0.000000
    23  Si    c     0.907521    0.414908    0.534206    0.000000
    24  Si    c     0.554315    0.110829    0.202267    0.000000
    25  Si    c     0.326199    0.396950    0.856206    0.000000
    26  Si    c     0.625303    0.900935    0.187096    0.000000
    27  Si    c     0.115799    0.694185    0.519863    0.000000
    28  Si    c     0.718222    0.595617    0.353578    0.000000
    29  Si    c     0.423953    0.095282    0.684961    0.000000
    30  Ge    c     0.914183    0.320688    0.025396    0.000000
    31  Si    c     0.418078    0.299253    0.483530    0.000000
    32  Si    c     0.926837    0.600636    0.150028    0.000000
    33  Si    c     0.724782    0.095881    0.815794    0.000000
    34  Si    c     0.637597    0.724460    0.987178    0.000000
    35  Si    c     0.120308    0.398359    0.649848    0.000000
    36  Si    c     0.324043    0.899045    0.317483    0.000000
    37  Si    c     0.267991    0.351056    0.958882    0.000000
    38  Si    c     0.681295    0.904900    0.287963    0.000000
    39  Si    c     0.111875    0.747901    0.620666    0.000000
    40  Si    c     0.768749    0.657363    0.454313    0.000000
    41  Si    c     0.365229    0.088525    0.785698    0.000000
    42  Si    c     0.936255    0.244966    0.119799    0.000000
    43  Si    c     0.361018    0.246887    0.382553    0.000000
    44  Si    c     0.925832    0.658977    0.048239    0.000000
    45  Si    c     0.774392    0.087756    0.714733    0.000000
    46  Si    c     0.691242    0.750684    0.883582    0.000000
    47  Si    c     0.109433    0.337830    0.549009    0.000000
    48  Si    c     0.276552    0.909968    0.216698    0.000000
    49  Ge    c     0.979467    0.132629    0.972157    0.000000
    50  Si    c     0.899620    0.842690    0.303981    0.000000
    51  Si    c     0.175390    0.028788    0.635510    0.000000
    52  Si    c     0.048665    0.874920    0.469390    0.000000
    53  Si    c     0.147268    0.150694    0.802673    0.000000
    54  Si    c     0.875793    0.970936    0.139290    0.000000
    55  Si    c     0.143676    0.966838    0.368585    0.000000
    56  Si    c     0.883213    0.893443    0.036976    0.000000
    57  Si    c     0.055162    0.152516    0.701156    0.000000
    58  Si    c     0.904752    0.028948    0.867865    0.000000
    59  Si    c     0.171378    0.119528    0.534471    0.000000
    60  Si    c     0.997195    0.847527    0.203310    0.000000
    61  O3    c     0.972993    0.012069    0.006961    0.000000
    62  O2    c     0.019375    0.923404    0.337264    0.000000
    63  O2    c     0.098842    0.072158    0.669289    0.000000
    64  O2    c     0.090507    0.996199    0.502497    0.000000
    65  O2    c     0.026219    0.069709    0.834776    0.000000
    66  O2    c     0.952514    0.928879    0.173307    0.000000
    67  O2    c     0.361739    0.573224    0.333207    0.000000
    68  O2    c     0.446476    0.760385    0.666291    0.000000
    69  O2    c     0.267075    0.682038    0.000452    0.000000
    70  O2    c     0.684432    0.421542    0.832292    0.000000
    71  O2    c     0.604520    0.237232    0.170598    0.000000
    72  O2    c     0.780862    0.337980    0.502351    0.000000
    73  O3    c     0.577897    0.354461    0.007896    0.000000
    74  O2    c     0.785604    0.420744    0.668142    0.000000
    75  O2    c     0.680713    0.232016    0.336958    0.000000
    76  O2    c     0.439652    0.656187    0.500535    0.000000
    77  O2    c     0.264325    0.579889    0.165657    0.000000
    78  O2    c     0.369919    0.762815    0.832336    0.000000
    79  O3    c     0.139967    0.244367    0.980488    0.000000
    80  O2    c     0.807504    0.905190    0.308266    0.000000
    81  O2    c     0.111959    0.874675    0.640807    0.000000
    82  O2    c     0.894496    0.784994    0.474004    0.000000
    83  O2    c     0.238418    0.086736    0.806005    0.000000
    84  O2    c     0.935974    0.124471    0.145718    0.000000
    85  O2    c     0.234777    0.120495    0.362501    0.000000
    86  O2    c     0.924441    0.784458    0.029437    0.000000
    87  O2    c     0.901243    0.088065    0.695033    0.000000
    88  O2    c     0.812222    0.874462    0.860890    0.000000
    89  O2    c     0.107841    0.210362    0.528826    0.000000
    90  O2    c     0.150597    0.911432    0.196959    0.000000
    91  O2    c     0.957527    0.854791    0.254384    0.000000
    92  O2    c     0.159629    0.068728    0.585257    0.000000
    93  O3    c     0.955207    0.065279    0.917893    0.000000
    94  O2    c     0.095512    0.143948    0.752140    0.000000
    95  O2    c     0.896765    0.931737    0.089696    0.000000
    96  O2    c     0.092571    0.929676    0.419362    0.000000
    97  O1    c     0.894989    0.204249    0.982577    0.000000
    98  O2    c     0.817209    0.691200    0.315460    0.000000
    99  O2    c     0.327352    0.096784    0.646450    0.000000
   100  O2    c     0.116597    0.791283    0.481359    0.000000
   101  O2    c     0.230539    0.300649    0.817196    0.000000
   102  O2    c     0.722904    0.899731    0.149092    0.000000
   103  O2    c     0.225172    0.896435    0.355931    0.000000
   104  O2    c     0.734101    0.837833    0.021830    0.000000
   105  O2    c     0.123317    0.303270    0.688442    0.000000
   106  O2    c     0.822762    0.098836    0.854375    0.000000
   107  O2    c     0.322112    0.201536    0.521862    0.000000
   108  O2    c     0.929398    0.696860    0.189334    0.000000
   109  O2    c     0.345379    0.640851    0.250076    0.000000
   110  O2    c     0.376316    0.674389    0.583906    0.000000
   111  O2    c     0.355408    0.687626    0.917046    0.000000
   112  O2    c     0.702244    0.352978    0.750443    0.000000
   113  O2    c     0.665242    0.324913    0.087173    0.000000
   114  O2    c     0.697876    0.318581    0.419420    0.000000
   115  O3    c     0.381934    0.331937    0.976479    0.000000
   116  O2    c     0.691119    0.037266    0.306833    0.000000
   117  O2    c     0.980101    0.626571    0.639350    0.000000
   118  O2    c     0.645686    0.667514    0.472005    0.000000
   119  O2    c     0.357177    0.956838    0.804086    0.000000
   120  O2    c     0.069234    0.373251    0.135945    0.000000
   121  O2    c     0.350973    0.368946    0.363731    0.000000
   122  O2    c     0.060426    0.671298    0.031347    0.000000
   123  O2    c     0.652860    0.954799    0.696104    0.000000
   124  O2    c     0.697851    0.625283    0.866670    0.000000
   125  O2    c     0.976553    0.327303    0.530935    0.000000
   126  O2    c     0.398361    0.041813    0.198476    0.000000
   127  O3    c     0.762228    0.299048    0.010512    0.000000
   128  O2    c     0.717353    0.460761    0.346246    0.000000
   129  O2    c     0.557683    0.228742    0.677720    0.000000
   130  O2    c     0.248728    0.692589    0.511757    0.000000
   131  O2    c     0.334196    0.534765    0.847961    0.000000
   132  O2    c     0.490662    0.768971    0.178267    0.000000
   133  O2    c     0.324303    0.764498    0.323625    0.000000
   134  O2    c     0.501477    0.725165    0.989246    0.000000
   135  O2    c     0.253759    0.532655    0.657058    0.000000
   136  O2    c     0.720125    0.227889    0.823326    0.000000
   137  O2    c     0.553001    0.301334    0.491605    0.000000
   138  O2    c     0.798012    0.464398    0.157609    0.000000
   139  O2    c     0.803959    0.531432    0.029606    0.000000
   140  O2    c     0.486157    0.244675    0.363397    0.000000
   141  O2    c     0.774022    0.213095    0.694812    0.000000
   142  O2    c     0.235168    0.461558    0.528968    0.000000
   143  O2    c     0.560543    0.742659    0.865259    0.000000
   144  O2    c     0.272534    0.782174    0.196373    0.000000
   145  O2    c     0.555749    0.778405    0.306648    0.000000
   146  O2    c     0.292754    0.492271    0.975240    0.000000
   147  O2    c     0.238984    0.749400    0.639827    0.000000
   148  O2    c     0.489847    0.215689    0.805082    0.000000
   149  O2    c     0.769690    0.532501    0.474465    0.000000
   150  O2    c     0.810684    0.251863    0.137561    0.000000
   151  O2    c     0.254089    0.335474    0.903266    0.000000
   152  O2    c     0.698648    0.903041    0.233635    0.000000
   153  O2    c     0.112156    0.765805    0.566269    0.000000
   154  O2    c     0.787950    0.672123    0.399936    0.000000
   155  O2    c     0.348072    0.089632    0.731249    0.000000
   156  O3    c     0.931111    0.217391    0.067061    0.000000
   157  O2    c     0.344011    0.228748    0.436944    0.000000
   158  O2    c     0.924192    0.667161    0.103139    0.000000
   159  O2    c     0.794120    0.091562    0.769106    0.000000
   160  O2    c     0.707269    0.775438    0.937692    0.000000
   161  O2    c     0.113923    0.322097    0.603392    0.000000
   162  O2    c     0.256159    0.907300    0.271037    0.000000
   163  O3    c     0.626198    0.592685    0.001522    0.000000
   164  O2    c     0.463447    0.022816    0.327183    0.000000
   165  O2    c     0.995437    0.413152    0.659112    0.000000
   166  O2    c     0.432125    0.439182    0.491794    0.000000
   167  O2    c     0.586020    0.969352    0.823958    0.000000
   168  O2    c     0.050419    0.582256    0.153916    0.000000
   169  O2    c     0.579237    0.581689    0.343864    0.000000
   170  O3    c     0.058725    0.456136    0.004178    0.000000
   171  O2    c     0.439521    0.970632    0.675513    0.000000
   172  O2    c     0.466010    0.410682    0.850767    0.000000
   173  O2    c     0.990451    0.555303    0.510928    0.000000
   174  O2    c     0.612890    0.027771    0.178957    0.000000
   175  O2    c     0.604707    0.161736    0.253626    0.000000
   176  O2    c     0.856539    0.416579    0.585240    0.000000
   177  O3    c     0.621570    0.418929    0.918487    0.000000
   178  O2    c     0.443599    0.833471    0.749472    0.000000
   179  O2    c     0.185663    0.579925    0.081395    0.000000
   180  O2    c     0.437487    0.579402    0.417249    0.000000
   181  F     c     0.474257    0.900201    0.251773    0.000000
   182  F     c     0.117109    0.546060    0.584745    0.000000
   183  F     c     0.499064    0.538690    0.928698    0.000000
   184  F     c     0.571714    0.092641    0.750325    0.000000
   185  F     c     0.925951    0.426400    0.074075    0.000000
   186  F     c     0.568729    0.448405    0.418317    0.000000
   187  O3    s     0.963431    0.008170    0.007594    0.000000
   188  O2    s     0.019901    0.919235    0.337045    0.000000
   189  O2    s     0.102529    0.076301    0.669071    0.000000
   190  O2    s     0.094877    0.996436    0.502371    0.000000
   191  O2    s     0.026882    0.074498    0.834684    0.000000
   192  O2    s     0.949035    0.924223    0.172942    0.000000
   193  O2    s     0.373487    0.580945    0.333302    0.000000
   194  O2    s     0.438812    0.764655    0.666357    0.000000
   195  O2    s     0.263680    0.669431    0.000125    0.000000
   196  O2    s     0.673158    0.413091    0.832728    0.000000
   197  O2    s     0.611484    0.232621    0.170330    0.000000
   198  O2    s     0.785232    0.349883    0.502261    0.000000
   199  O3    s     0.589952    0.363199    0.008177    0.000000
   200  O2    s     0.789825    0.413023    0.668118    0.000000
   201  O2    s     0.668793    0.227986    0.336872    0.000000
   202  O2    s     0.432248    0.644303    0.500638    0.000000
   203  O2    s     0.259969    0.586953    0.165779    0.000000
   204  O2    s     0.381519    0.766918    0.832745    0.000000
   205  O3    s     0.141169    0.247218    0.977412    0.000000
   206  O2    s     0.804232    0.898492    0.305732    0.000000
   207  O2    s     0.118679    0.877898    0.638185    0.000000
   208  O2    s     0.897819    0.781352    0.471517    0.000000
   209  O2    s     0.241948    0.093686    0.803566    0.000000
   210  O2    s     0.929630    0.120318    0.142488    0.000000
   211  O2    s     0.238143    0.117254    0.365183    0.000000
   212  O2    s     0.920251    0.782247    0.032238    0.000000
   213  O2    s     0.904429    0.094844    0.697688    0.000000
   214  O2    s     0.808998    0.877273    0.863948    0.000000
   215  O2    s     0.114776    0.213882    0.531489    0.000000
   216  O2    s     0.147216    0.904447    0.199648    0.000000
   217  O2    s     0.955448    0.852573    0.254190    0.000000
   218  O2    s     0.162734    0.069947    0.585198    0.000000
   219  O3    s     0.951452    0.066545    0.916573    0.000000
   220  O2    s     0.096780    0.145666    0.752057    0.000000
   221  O2    s     0.892834    0.932017    0.089570    0.000000
   222  O2    s     0.093373    0.927672    0.419281    0.000000
   223  O1    s     0.903925    0.204545    0.984130    0.000000
   224  O2    s     0.815843    0.697542    0.318139    0.000000
   225  O2    s     0.321102    0.089414    0.649226    0.000000
   226  O2    s     0.109219    0.790240    0.484043    0.000000
   227  O2    s     0.231626    0.294746    0.819692    0.000000
   228  O2    s     0.728859    0.907303    0.151980    0.000000
   229  O2    s     0.226621    0.904139    0.353357    0.000000
   230  O2    s     0.739338    0.832036    0.019832    0.000000
   231  O2    s     0.115756    0.296991    0.685830    0.000000
   232  O2    s     0.821010    0.091373    0.851754    0.000000
   233  O2    s     0.315938    0.202831    0.519278    0.000000
   234  O2    s     0.936288    0.702581    0.186653    0.000000
   235  O2    s     0.351093    0.652491    0.250148    0.000000
   236  O2    s     0.364656    0.668641    0.583938    0.000000
   237  O2    s     0.360860    0.682691    0.917127    0.000000
   238  O2    s     0.696294    0.341283    0.750371    0.000000
   239  O2    s     0.674627    0.329042    0.087554    0.000000
   240  O2    s     0.691941    0.324487    0.419375    0.000000
   241  O3    s     0.381454    0.342136    0.973908    0.000000
   242  O2    s     0.681110    0.030586    0.304572    0.000000
   243  O2    s     0.986754    0.623159    0.637051    0.000000
   244  O2    s     0.642566    0.657451    0.469772    0.000000
   245  O2    s     0.367167    0.963487    0.801760    0.000000
   246  O2    s     0.063415    0.376812    0.133980    0.000000
   247  O2    s     0.360937    0.372230    0.365981    0.000000
   248  O2    s     0.054201    0.661859    0.032970    0.000000
   249  O2    s     0.649493    0.961615    0.698314    0.000000
   250  O2    s     0.688997    0.623282    0.868729    0.000000
   251  O2    s     0.983368    0.337431    0.533175    0.000000
   252  O2    s     0.401569    0.035052    0.200785    0.000000
   253  O3    s     0.767167    0.308339    0.014003    0.000000
   254  O2    s     0.709675    0.460346    0.349381    0.000000
   255  O2    s     0.558362    0.221669    0.680795    0.000000
   256  O2    s     0.241791    0.685001    0.514907    0.000000
   257  O2    s     0.341041    0.535942    0.850799    0.000000
   258  O2    s     0.489990    0.775731    0.181470    0.000000
   259  O2    s     0.332071    0.771702    0.320616    0.000000
   260  O2    s     0.499819    0.716704    0.986933    0.000000
   261  O2    s     0.246672    0.533210    0.653947    0.000000
   262  O2    s     0.712943    0.221034    0.820163    0.000000
   263  O2    s     0.553543    0.308835    0.488459    0.000000
   264  O2    s     0.804189    0.464293    0.154597    0.000000
   265  O2    s     0.808286    0.531345    0.032113    0.000000
   266  O2    s     0.488765    0.252658    0.366012    0.000000
   267  O2    s     0.766357    0.208158    0.697463    0.000000
   268  O2    s     0.230079    0.464452    0.531597    0.000000
   269  O2    s     0.557824    0.736761    0.867376    0.000000
   270  O2    s     0.280811    0.787438    0.198920    0.000000
   271  O2    s     0.553131    0.783695    0.304062    0.000000
   272  O2    s     0.297533    0.495066    0.972965    0.000000
   273  O2    s     0.233722    0.741422    0.637233    0.000000
   274  O2    s     0.492495    0.210198    0.802538    0.000000
   275  O2    s     0.761866    0.529798    0.471813    0.000000
   276  O2    s     0.814177    0.258500    0.135588    0.000000
   277  O2    s     0.263124    0.343566    0.903523    0.000000
   278  O2    s     0.689116    0.903019    0.234570    0.000000
   279  O2    s     0.112501    0.756394    0.567174    0.000000
   280  O2    s     0.778586    0.662530    0.400860    0.000000
   281  O2    s     0.357807    0.090087    0.732185    0.000000
   282  O3    s     0.930751    0.226518    0.070008    0.000000
   283  O2    s     0.353598    0.238085    0.436067    0.000000
   284  O2    s     0.924664    0.659070    0.102536    0.000000
   285  O2    s     0.784721    0.091611    0.768203    0.000000
   286  O2    s     0.698784    0.767822    0.936716    0.000000
   287  O2    s     0.114118    0.331768    0.602506    0.000000
   288  O2    s     0.265482    0.906725    0.270163    0.000000
   289  O3    s     0.622100    0.597500    0.997758    0.000000
   290  O2    s     0.463077    0.018062    0.323742    0.000000
   291  O2    s     0.000252    0.417701    0.655699    0.000000
   292  O2    s     0.436798    0.438714    0.488456    0.000000
   293  O2    s     0.586025    0.974462    0.820612    0.000000
   294  O2    s     0.046130    0.578538    0.151240    0.000000
   295  O2    s     0.579433    0.577116    0.347269    0.000000
   296  O3    s     0.057030    0.460916    0.008229    0.000000
   297  O2    s     0.444015    0.975467    0.678959    0.000000
   298  O2    s     0.465237    0.414858    0.853204    0.000000
   299  O2    s     0.995459    0.555585    0.514329    0.000000
   300  O2    s     0.607926    0.022697    0.182278    0.000000
   301  O2    s     0.599388    0.150759    0.253508    0.000000
   302  O2    s     0.867562    0.422007    0.585199    0.000000
   303  O3    s     0.616067    0.425807    0.916471    0.000000
   304  O2    s     0.449291    0.844762    0.749529    0.000000
   305  O2    s     0.176171    0.575512    0.081825    0.000000
   306  O2    s     0.442940    0.573835    0.417266    0.000000
   307  F     s     0.474004    0.899820    0.251742    0.000000
   308  F     s     0.117413    0.546231    0.584744    0.000000
   309  F     s     0.502864    0.532494    0.931418    0.000000
   310  F     s     0.571658    0.092715    0.750348    0.000000
   311  F     s     0.925475    0.418795    0.070717    0.000000
   312  F     s     0.568998    0.448227    0.418303    0.000000
--------------------------------------------------------------------------------

  Final Cartesian lattice vectors (Angstroms) :

       11.969515   -0.003976    0.002323
       -5.920104   10.378522   -0.014926
       -0.018638   -0.163793   29.417941


  Final cell parameters and derivatives :

--------------------------------------------------------------------------------
       a           11.969516 Angstrom     dE/de1(xx)     0.006690 eV/strain
       b           11.948287 Angstrom     dE/de2(yy)     0.006279 eV/strain
       c           29.418403 Angstrom     dE/de3(zz)     0.008998 eV/strain
       alpha       90.330685 Degrees      dE/de4(yz)    -0.000573 eV/strain
       beta        90.025073 Degrees      dE/de5(xz)     0.000579 eV/strain
       gamma      119.720272 Degrees      dE/de6(xy)     0.000187 eV/strain
--------------------------------------------------------------------------------

  Primitive cell volume =          3653.750447 Angs**3

  Density of cell =      1.751103 g/cm**3

  Non-primitive cell volume =          3653.750447 Angs**3


  Final internal derivatives :

--------------------------------------------------------------------------------
   No.  Atomic          a             b             c           Radius
        Label          (eV)          (eV)          (eV)        (eV/Angs)
--------------------------------------------------------------------------------
      1 Si    c       0.000000      0.000000      0.000000      0.000000
      2 Si    c      -0.000107      0.000033      0.001000      0.000000
      3 Si    c      -0.000038      0.000190      0.000107      0.000000
      4 Si    c       0.000104      0.000040      0.000279      0.000000
      5 Si    c      -0.000190      0.000279     -0.000799      0.000000
      6 Si    c       0.000150      0.000270      0.002056      0.000000
      7 Si    c      -0.000146     -0.000091     -0.000524      0.000000
      8 Si    c       0.001569     -0.001160     -0.002256      0.000000
      9 Si    c      -0.000006      0.000146     -0.000622      0.000000
     10 Si    c      -0.000190     -0.000199     -0.000108      0.000000
     11 Si    c       0.000117     -0.000125      0.000107      0.000000
     12 Si    c       0.001011     -0.000721      0.002656      0.000000
     13 Ge    c       0.000024      0.000422      0.002841      0.000000
     14 Si    c       0.000109     -0.000014      0.001047      0.000000
     15 Si    c      -0.000053     -0.000074      0.000428      0.000000
     16 Si    c      -0.000060      0.000087      0.000084      0.000000
     17 Si    c       0.000113     -0.000359      0.000350      0.000000
     18 Si    c       0.000041      0.000043      0.002776      0.000000
     19 Si    c       0.000030      0.000025      0.000515      0.000000
     20 Si    c      -0.000020      0.000839      0.000477      0.000000
     21 Si    c       0.000045     -0.000179      0.000320      0.000000
     22 Si    c       0.000660     -0.000282     -0.006580      0.000000
     23 Si    c       0.000092     -0.000043     -0.000168      0.000000
     24 Si    c       0.000535      0.000132     -0.002931      0.000000
     25 Si    c      -0.000197     -0.000315     -0.003683      0.000000
     26 Si    c       0.000481     -0.000012     -0.000472      0.000000
     27 Si    c      -0.000172      0.000285     -0.000238      0.000000
     28 Si    c       0.000062      0.000540     -0.000617      0.000000
     29 Si    c      -0.000407      0.000167     -0.000204      0.000000
     30 Ge    c      -0.000969      0.001273      0.000515      0.000000
     31 Si    c      -0.000279     -0.000158      0.000365      0.000000
     32 Si    c       0.000292      0.000885      0.001811      0.000000
     33 Si    c       0.000242     -0.000179      0.000081      0.000000
     34 Si    c       0.000021      0.000486      0.000802      0.000000
     35 Si    c       0.000003     -0.000395      0.000278      0.000000
     36 Si    c      -0.000478      0.000411      0.000887      0.000000
     37 Si    c      -0.000614     -0.000064      0.003237      0.000000
     38 Si    c       0.000550     -0.000109      0.000383      0.000000
     39 Si    c      -0.000195      0.000352      0.000015      0.000000
     40 Si    c       0.000102      0.000371      0.000119      0.000000
     41 Si    c      -0.000273      0.000123      0.000240      0.000000
     42 Si    c       0.001360     -0.001351      0.006264      0.000000
     43 Si    c      -0.000219     -0.000189      0.000183      0.000000
     44 Si    c      -0.000350      0.000709     -0.002214      0.000000
     45 Si    c       0.000374     -0.000264     -0.000042      0.000000
     46 Si    c       0.000425      0.000290     -0.002246      0.000000
     47 Si    c       0.000088     -0.000392     -0.000034      0.000000
     48 Si    c      -0.000515      0.000133     -0.000214      0.000000
     49 Ge    c       0.000819     -0.000829     -0.000881      0.000000
     50 Si    c      -0.000077     -0.000234      0.001616      0.000000
     51 Si    c       0.000015      0.000004      0.000704      0.000000
     52 Si    c       0.000010      0.000010      0.000633      0.000000
     53 Si    c       0.000120      0.000422      0.000373      0.000000
     54 Si    c      -0.001621      0.000545     -0.000070      0.000000
     55 Si    c      -0.000108     -0.000046     -0.000804      0.000000
     56 Si    c      -0.000113      0.000218     -0.000525      0.000000
     57 Si    c       0.000076      0.000067     -0.001506      0.000000
     58 Si    c       0.000023     -0.000272     -0.001638      0.000000
     59 Si    c       0.000047      0.000014     -0.000650      0.000000
     60 Si    c       0.000790     -0.001073     -0.000036      0.000000
     61 O3    c       0.001002     -0.000611      0.001111      0.000000
     62 O2    c       0.000065     -0.000074     -0.000077      0.000000
     63 O2    c      -0.000052      0.000082      0.000209      0.000000
     64 O2    c       0.000034     -0.000040     -0.000012      0.000000
     65 O2    c      -0.000085     -0.000065      0.000681      0.000000
     66 O2    c       0.000260      0.000665      0.000684      0.000000
     67 O2    c      -0.000278     -0.000085     -0.000431      0.000000
     68 O2    c       0.000334      0.000080      0.000649      0.000000
     69 O2    c      -0.002476      0.002005      0.003451      0.000000
     70 O2    c       0.000019      0.000344      0.000523      0.000000
     71 O2    c      -0.000350     -0.000803      0.003608      0.000000
     72 O2    c      -0.000007     -0.000175     -0.000237      0.000000
     73 O3    c      -0.005030      0.001762     -0.009496      0.000000
     74 O2    c       0.000002      0.000245     -0.000216      0.000000
     75 O2    c       0.000541     -0.000834     -0.001566      0.000000
     76 O2    c       0.000231      0.000028     -0.000284      0.000000
     77 O2    c      -0.000396     -0.000817     -0.003575      0.000000
     78 O2    c      -0.000137      0.000263     -0.000226      0.000000
     79 O3    c       0.002419     -0.000483      0.000154      0.000000
     80 O2    c      -0.000334      0.000196     -0.000208      0.000000
     81 O2    c       0.000013     -0.000192      0.000006      0.000000
     82 O2    c      -0.000150     -0.000067     -0.000041      0.000000
     83 O2    c      -0.000088      0.000096      0.000007      0.000000
     84 O2    c      -0.000101      0.000455      0.000021      0.000000
     85 O2    c       0.000011      0.000140     -0.000027      0.000000
     86 O2    c       0.001919     -0.002763      0.000309      0.000000
     87 O2    c      -0.000365      0.000118     -0.000010      0.000000
     88 O2    c       0.000129      0.000075     -0.000177      0.000000
     89 O2    c      -0.000105      0.000167      0.000029      0.000000
     90 O2    c      -0.000032     -0.000124      0.000109      0.000000
     91 O2    c      -0.000109      0.000557     -0.000828      0.000000
     92 O2    c      -0.000061      0.000052     -0.000184      0.000000
     93 O3    c      -0.000892      0.000628      0.002682      0.000000
     94 O2    c       0.000390     -0.000387      0.003210      0.000000
     95 O2    c      -0.000191      0.000169      0.000900      0.000000
     96 O2    c      -0.000037      0.000067     -0.000189      0.000000
     97 O1    c      -0.001805      0.001087      0.000826      0.000000
     98 O2    c       0.000005     -0.000064     -0.000004      0.000000
     99 O2    c       0.000077      0.000031      0.000115      0.000000
    100 O2    c       0.000045     -0.000010     -0.000012      0.000000
    101 O2    c       0.000002     -0.000304      0.000172      0.000000
    102 O2    c       0.000509     -0.000066     -0.000264      0.000000
    103 O2    c       0.000028     -0.000064     -0.000216      0.000000
    104 O2    c      -0.000664      0.000214     -0.000200      0.000000
    105 O2    c       0.000059     -0.000014      0.000113      0.000000
    106 O2    c       0.000212     -0.000120     -0.000070      0.000000
    107 O2    c       0.000053     -0.000014     -0.000066      0.000000
    108 O2    c       0.000102     -0.000463     -0.000655      0.000000
    109 O2    c      -0.000007     -0.000247      0.000353      0.000000
    110 O2    c       0.000112      0.000015      0.000170      0.000000
    111 O2    c      -0.000506      0.000564     -0.001687      0.000000
    112 O2    c       0.000068      0.000102     -0.000461      0.000000
    113 O2    c      -0.000945     -0.000031      0.002427      0.000000
    114 O2    c       0.000127     -0.000161     -0.000333      0.000000
    115 O3    c       0.000546      0.000014     -0.000021      0.000000
    116 O2    c      -0.000100      0.000215      0.000150      0.000000
    117 O2    c      -0.000165      0.000028      0.000212      0.000000
    118 O2    c      -0.000249      0.000158      0.000200      0.000000
    119 O2    c      -0.000057     -0.000066      0.000105      0.000000
    120 O2    c       0.000242      0.000217      0.000437      0.000000
    121 O2    c      -0.000184      0.000088     -0.000156      0.000000
    122 O2    c       0.000269     -0.000001      0.000213      0.000000
    123 O2    c       0.000003     -0.000087     -0.000033      0.000000
    124 O2    c       0.000314     -0.000573     -0.000792      0.000000
    125 O2    c      -0.000213      0.000102     -0.000173      0.000000
    126 O2    c       0.000049      0.000113     -0.000096      0.000000
    127 O3    c      -0.002401      0.000935     -0.002027      0.000000
    128 O2    c       0.000311     -0.000379     -0.000433      0.000000
    129 O2    c       0.000042      0.000171     -0.000222      0.000000
    130 O2    c       0.000203     -0.000018     -0.000201      0.000000
    131 O2    c      -0.000586      0.000983     -0.000031      0.000000
    132 O2    c      -0.000137     -0.000349     -0.000375      0.000000
    133 O2    c       0.000208     -0.000676      0.000288      0.000000
    134 O2    c      -0.000140      0.000239      0.000044      0.000000
    135 O2    c       0.000278     -0.000023      0.000429      0.000000
    136 O2    c      -0.000008      0.000139      0.000185      0.000000
    137 O2    c       0.000345     -0.000225      0.000268      0.000000
    138 O2    c      -0.000846     -0.000504      0.000512      0.000000
    139 O2    c      -0.001509     -0.000508     -0.000399      0.000000
    140 O2    c       0.000306     -0.000244     -0.000421      0.000000
    141 O2    c      -0.000034      0.000233     -0.000476      0.000000
    142 O2    c       0.000270     -0.000037     -0.000600      0.000000
    143 O2    c      -0.001033      0.000422     -0.000945      0.000000
    144 O2    c      -0.000195     -0.000158     -0.000272      0.000000
    145 O2    c       0.000144     -0.000321      0.000719      0.000000
    146 O2    c      -0.000468      0.000405      0.000406      0.000000
    147 O2    c       0.000267     -0.000059      0.000424      0.000000
    148 O2    c       0.000098      0.000146      0.000212      0.000000
    149 O2    c       0.000280     -0.000314      0.000711      0.000000
    150 O2    c       0.000224     -0.000476      0.001655      0.000000
    151 O2    c      -0.000220     -0.000817      0.001976      0.000000
    152 O2    c       0.000201     -0.000140     -0.000288      0.000000
    153 O2    c      -0.000082      0.000165     -0.000064      0.000000
    154 O2    c       0.000068      0.000092     -0.000304      0.000000
    155 O2    c      -0.000119      0.000023     -0.000146      0.000000
    156 O3    c       0.002345     -0.002842     -0.005594      0.000000
    157 O2    c      -0.000109     -0.000068      0.000027      0.000000
    158 O2    c       0.000171      0.000426     -0.000592      0.000000
    159 O2    c       0.000056      0.000009      0.000391      0.000000
    160 O2    c      -0.000106      0.000389      0.002520      0.000000
    161 O2    c       0.000077     -0.000109      0.000198      0.000000
    162 O2    c      -0.000430      0.000174     -0.001237      0.000000
    163 O3    c       0.000605     -0.001426      0.000842      0.000000
    164 O2    c       0.000237      0.000191      0.000278      0.000000
    165 O2    c      -0.000173      0.000080      0.000268      0.000000
    166 O2    c      -0.000189      0.000338      0.000403      0.000000
    167 O2    c      -0.000024     -0.000068      0.000315      0.000000
    168 O2    c       0.000428     -0.000225      0.000212      0.000000
    169 O2    c      -0.000069      0.000131     -0.000489      0.000000
    170 O3    c       0.000666     -0.001353     -0.005770      0.000000
    171 O2    c      -0.000021     -0.000088     -0.000371      0.000000
    172 O2    c       0.001136     -0.000405     -0.000573      0.000000
    173 O2    c      -0.000142     -0.000097     -0.000324      0.000000
    174 O2    c      -0.000128      0.000288     -0.000213      0.000000
    175 O2    c       0.000086      0.000272      0.000357      0.000000
    176 O2    c      -0.000169      0.000010     -0.000088      0.000000
    177 O3    c       0.003116     -0.002807      0.001849      0.000000
    178 O2    c      -0.000025     -0.000010      0.000062      0.000000
    179 O2    c       0.000355      0.000273     -0.002294      0.000000
    180 O2    c      -0.000132      0.000109     -0.000246      0.000000
    181 F     c      -0.000056     -0.000005      0.000157      0.000000
    182 F     c       0.000005      0.000017     -0.000026      0.000000
    183 F     c      -0.000620      0.000301      0.000677      0.000000
    184 F     c      -0.000021     -0.000049     -0.000002      0.000000
    185 F     c      -0.000857      0.000493     -0.000632      0.000000
    186 F     c      -0.000053      0.000052      0.000123      0.000000
    187 O3    s      -0.000530      0.000880     -0.001814      0.000000
    188 O2    s       0.000003      0.000047      0.000322      0.000000
    189 O2    s      -0.000004     -0.000066     -0.000372      0.000000
    190 O2    s      -0.000078      0.000045      0.000036      0.000000
    191 O2    s       0.000185     -0.000189     -0.000494      0.000000
    192 O2    s       0.000429      0.000129     -0.000183      0.000000
    193 O2    s       0.000017     -0.000020      0.000370      0.000000
    194 O2    s       0.000005     -0.000033      0.000085      0.000000
    195 O2    s       0.000799     -0.000710      0.000707      0.000000
    196 O2    s       0.000147      0.000031      0.000144      0.000000
    197 O2    s      -0.001073      0.000756      0.000272      0.000000
    198 O2    s       0.000066     -0.000126      0.000205      0.000000
    199 O3    s       0.000787     -0.000494      0.007501      0.000000
    200 O2    s      -0.000078     -0.000065     -0.000001      0.000000
    201 O2    s       0.000065      0.000164      0.000038      0.000000
    202 O2    s      -0.000054      0.000145     -0.000100      0.000000
    203 O2    s       0.000522     -0.000358      0.000415      0.000000
    204 O2    s      -0.000146      0.000023     -0.000025      0.000000
    205 O3    s      -0.001262     -0.000342      0.000729      0.000000
    206 O2    s       0.000013      0.000152      0.001115      0.000000
    207 O2    s      -0.000098      0.000046      0.000377      0.000000
    208 O2    s      -0.000060      0.000213      0.000385      0.000000
    209 O2    s      -0.000138      0.000073      0.000279      0.000000
    210 O2    s       0.000321     -0.000010      0.001745      0.000000
    211 O2    s      -0.000132      0.000074     -0.000512      0.000000
    212 O2    s       0.000140      0.000442     -0.001193      0.000000
    213 O2    s      -0.000019     -0.000108     -0.000609      0.000000
    214 O2    s       0.000246     -0.000004     -0.001392      0.000000
    215 O2    s      -0.000071     -0.000114     -0.000380      0.000000
    216 O2    s       0.000077      0.000382     -0.000704      0.000000
    217 O2    s       0.000407     -0.000509      0.001503      0.000000
    218 O2    s      -0.000043      0.000003     -0.000059      0.000000
    219 O3    s       0.000125     -0.000231     -0.001853      0.000000
    220 O2    s      -0.000063      0.000105     -0.000784      0.000000
    221 O2    s      -0.000095      0.000352      0.000745      0.000000
    222 O2    s       0.000003     -0.000028      0.000055      0.000000
    223 O1    s       0.000554      0.000033     -0.000585      0.000000
    224 O2    s       0.000260     -0.000228     -0.000108      0.000000
    225 O2    s       0.000071      0.000067     -0.000196      0.000000
    226 O2    s       0.000129      0.000005     -0.000305      0.000000
    227 O2    s      -0.000269     -0.000112     -0.002169      0.000000
    228 O2    s      -0.000411     -0.000351     -0.000387      0.000000
    229 O2    s      -0.000105     -0.000067      0.000927      0.000000
    230 O2    s      -0.000784      0.000342     -0.001771      0.000000
    231 O2    s       0.000139      0.000059     -0.000009      0.000000
    232 O2    s      -0.000338      0.000356      0.000273      0.000000
    233 O2    s       0.000062     -0.000103      0.000442      0.000000
    234 O2    s      -0.000304     -0.000089      0.001734      0.000000
    235 O2    s       0.000144     -0.000494      0.000738      0.000000
    236 O2    s       0.000094      0.000041     -0.000111      0.000000
    237 O2    s       0.000059      0.000103     -0.001391      0.000000
    238 O2    s      -0.000050      0.000086     -0.000413      0.000000
    239 O2    s      -0.000604      0.000207     -0.001539      0.000000
    240 O2    s       0.000145     -0.000131      0.000461      0.000000
    241 O3    s       0.000060     -0.000785      0.000291      0.000000
    242 O2    s       0.000022      0.000153      0.000332      0.000000
    243 O2    s      -0.000022      0.000012      0.000123      0.000000
    244 O2    s      -0.000013      0.000156      0.000240      0.000000
    245 O2    s       0.000010     -0.000038      0.000306      0.000000
    246 O2    s       0.000049      0.000062     -0.000343      0.000000
    247 O2    s      -0.000006     -0.000062     -0.000398      0.000000
    248 O2    s       0.000381     -0.000225     -0.002317      0.000000
    249 O2    s      -0.000011     -0.000039     -0.000373      0.000000
    250 O2    s       0.000371     -0.000471      0.000710      0.000000
    251 O2    s       0.000004     -0.000114     -0.000179      0.000000
    252 O2    s       0.000008      0.000103     -0.000222      0.000000
    253 O3    s       0.002700     -0.002300     -0.001633      0.000000
    254 O2    s      -0.000076      0.000207     -0.000443      0.000000
    255 O2    s      -0.000049      0.000004     -0.000403      0.000000
    256 O2    s      -0.000048      0.000096     -0.000492      0.000000
    257 O2    s      -0.000433      0.000384     -0.001255      0.000000
    258 O2    s       0.000212      0.000032     -0.001122      0.000000
    259 O2    s      -0.000056      0.000013      0.001029      0.000000
    260 O2    s       0.000408     -0.000118      0.002154      0.000000
    261 O2    s      -0.000074      0.000003      0.000387      0.000000
    262 O2    s       0.000077     -0.000109      0.000512      0.000000
    263 O2    s       0.000012     -0.000117      0.000449      0.000000
    264 O2    s      -0.000061      0.000393      0.000930      0.000000
    265 O2    s       0.000871      0.000954      0.001674      0.000000
    266 O2    s      -0.000293      0.000140     -0.000187      0.000000
    267 O2    s      -0.000047     -0.000015     -0.000077      0.000000
    268 O2    s      -0.000115      0.000024      0.000111      0.000000
    269 O2    s      -0.000109      0.000330     -0.000478      0.000000
    270 O2    s      -0.000199      0.000656     -0.000558      0.000000
    271 O2    s      -0.000155      0.000073     -0.000088      0.000000
    272 O2    s       0.000608     -0.000186      0.000033      0.000000
    273 O2    s      -0.000100      0.000056     -0.000001      0.000000
    274 O2    s      -0.000159     -0.000027      0.000146      0.000000
    275 O2    s      -0.000043      0.000050     -0.000166      0.000000
    276 O2    s       0.000455     -0.000139     -0.001908      0.000000
    277 O2    s      -0.000298      0.000346      0.000119      0.000000
    278 O2    s       0.000142      0.000080      0.000524      0.000000
    279 O2    s      -0.000016      0.000014      0.000031      0.000000
    280 O2    s      -0.000016      0.000006      0.000125      0.000000
    281 O2    s       0.000019      0.000045     -0.000362      0.000000
    282 O3    s      -0.002836      0.002734      0.001914      0.000000
    283 O2    s       0.000011     -0.000030     -0.000113      0.000000
    284 O2    s      -0.000254      0.000703      0.000511      0.000000
    285 O2    s       0.000080     -0.000125     -0.000205      0.000000
    286 O2    s       0.000215     -0.000284      0.000412      0.000000
    287 O2    s      -0.000073     -0.000019     -0.000106      0.000000
    288 O2    s       0.000005      0.000160      0.000595      0.000000
    289 O3    s       0.000144      0.000223     -0.000711      0.000000
    290 O2    s       0.000093      0.000164      0.000536      0.000000
    291 O2    s      -0.000070      0.000010      0.000064      0.000000
    292 O2    s      -0.000091      0.000079      0.000267      0.000000
    293 O2    s       0.000063     -0.000040      0.000198      0.000000
    294 O2    s       0.000450     -0.000339      0.000921      0.000000
    295 O2    s      -0.000048     -0.000044      0.000001      0.000000
    296 O3    s      -0.000801      0.001296      0.003720      0.000000
    297 O2    s       0.000100     -0.000076     -0.000054      0.000000
    298 O2    s       0.000851     -0.000499     -0.000340      0.000000
    299 O2    s      -0.000028      0.000026     -0.000175      0.000000
    300 O2    s      -0.000109      0.000073     -0.000303      0.000000
    301 O2    s      -0.000080      0.000072      0.000336      0.000000
    302 O2    s      -0.000065     -0.000007      0.000170      0.000000
    303 O3    s      -0.002465      0.002196     -0.000506      0.000000
    304 O2    s       0.000059     -0.000204     -0.000145      0.000000
    305 O2    s      -0.000001     -0.000191      0.000448      0.000000
    306 O2    s      -0.000156      0.000239      0.000318      0.000000
    307 F     s       0.000102      0.000079     -0.000182      0.000000
    308 F     s      -0.000029     -0.000019      0.000073      0.000000
    309 F     s       0.001138     -0.000556      0.000135      0.000000
    310 F     s       0.000041      0.000100     -0.000060      0.000000
    311 F     s       0.001848     -0.001449      0.000946      0.000000
    312 F     s       0.000099     -0.000080     -0.000252      0.000000
--------------------------------------------------------------------------------
  Maximum abs         0.005030      0.002842      0.009496      0.000000
--------------------------------------------------------------------------------


  Time to end of optimisation =       7.4370 seconds


  Peak dynamic memory used =      19.13 MB 


  Timing analysis for GULP :

--------------------------------------------------------------------------------
  Task / Subroutine                                          Time (Seconds)
--------------------------------------------------------------------------------
  Calculation of reciprocal space energy and derivatives          0.2881
  Calculation of real space energy and derivatives                6.2140
  Calculation of three-body energy and derivatives                0.7055
  Calculation of matrix inversion                                 0.1920
--------------------------------------------------------------------------------
  Total CPU time                                                  7.4370
--------------------------------------------------------------------------------


  Dump file written as out.res                                                 
  CIF file written as out.cif                                                 


  Job Finished at 08:47.54 29th November   2016                               

