********************************************************************************
*                       GENERAL UTILITY LATTICE PROGRAM                        *
*                                 Julian Gale                                  *
*                      Nanochemistry Research Institute                        *
*                           Department of Chemistry                            *
*                    Curtin University, Western Australia                      *
********************************************************************************
* Version = 4.2.0 * Last modified =  20th January 2014                         *
********************************************************************************
*  optimise     - perform optimisation run                                     *
*  conp         - constant pressure calculation                                *
*  qok          - running with non charge neutral cell is OK                   *
********************************************************************************

  Job Started  at 08:30.49 29th November   2016                               

  Number of CPUs =     1


  Total number of configurations input =   1

********************************************************************************
*  Input for Configuration =   1                                               *
********************************************************************************

  Formula = Si57Ge3O120F6                                               

  Number of irreducible atoms/shells =     312


  Total number atoms/shells =     312

  Dimensionality = 3               :  Bulk   


  Charge on solid   =  -6.000000 =>neutralising background added


  Cartesian lattice vectors (Angstroms) :

       11.968365    0.000000    0.000000
       -5.942923   10.346844    0.000000
       -0.065218   -0.001686   29.568556

  Cell parameters (Angstroms/Degrees):

  a =      11.9684    alpha =  89.9399
  b =      11.9321    beta  =  90.1264
  c =      29.5686    gamma = 119.8718

  Initial cell volume =        3661.616384 Angs**3

  Temperature of configuration =  0.000     K 

  Pressure of configuration =         0.000 GPa 

  Fractional coordinates of asymmetric unit :

--------------------------------------------------------------------------------
   No.  Atomic       x           y          z         Charge      Occupancy
        Label      (Frac)      (Frac)     (Frac)        (e)         (Frac)  
--------------------------------------------------------------------------------
      1 Si    c    0.699600    0.375700    0.033890     4.00000    1.000000    
      2 Si    c    0.621402 *  0.323600 *  0.367699 *   4.00000    1.000000    
      3 Si    c    0.675902 *  0.297394 *  0.698613 *   4.00000    1.000000    
      4 Si    c    0.298322 *  0.621660 *  0.533542 *   4.00000    1.000000    
      5 Si    c    0.382336 *  0.677789 *  0.869070 *   4.00000    1.000000    
      6 Si    c    0.325356 *  0.702490 *  0.201985 *   4.00000    1.000000    
      7 Si    c    0.378700 *  0.701676 *  0.302111 *   4.00000    1.000000    
      8 Si    c    0.328018 *  0.626543 *  0.970089 *   4.00000    1.000000    
      9 Si    c    0.297450 *  0.676515 *  0.633663 *   4.00000    1.000000    
     10 Si    c    0.626190 *  0.299098 *  0.799131 *   4.00000    1.000000    
     11 Si    c    0.676217 *  0.378392 *  0.467797 *   4.00000    1.000000    
     12 Si    c    0.703855 *  0.319511 *  0.136049 *   4.00000    1.000000    
     13 Ge    c    0.527650 *  0.428706 *  0.967378 *   4.00000    1.000000    
     14 Si    c    0.583727 *  0.113715 *  0.302823 *   4.00000    1.000000    
     15 Si    c    0.885243 *  0.468921 *  0.633668 *   4.00000    1.000000    
     16 Si    c    0.469841 *  0.583629 *  0.468395 *   4.00000    1.000000    
     17 Si    c    0.422029 *  0.884006 *  0.800638 *   4.00000    1.000000    
     18 Si    c    0.120057 *  0.529641 *  0.135664 *   4.00000    1.000000    
     19 Si    c    0.416808 *  0.530138 *  0.367266 *   4.00000    1.000000    
     20 Si    c    0.121596 *  0.590278 *  0.033769 *   4.00000    1.000000    
     21 Si    c    0.468697 *  0.884549 *  0.699442 *   4.00000    1.000000    
     22 Si    c    0.593661 *  0.464629 *  0.868353 *   4.00000    1.000000    
     23 Si    c    0.886383 *  0.416422 *  0.532549 *   4.00000    1.000000    
     24 Si    c    0.531623 *  0.112708 *  0.201624 *   4.00000    1.000000    
     25 Si    c    0.307348 *  0.395560 *  0.854373 *   4.00000    1.000000    
     26 Si    c    0.603872 *  0.903490 *  0.187086 *   4.00000    1.000000    
     27 Si    c    0.096030 *  0.697653 *  0.518689 *   4.00000    1.000000    
     28 Si    c    0.697523 *  0.602025 *  0.353301 *   4.00000    1.000000    
     29 Si    c    0.396252 *  0.094545 *  0.686070 *   4.00000    1.000000    
     30 Ge    c    0.909242 *  0.314984 *  0.027321 *   4.00000    1.000000    
     31 Si    c    0.398053 *  0.301759 *  0.482340 *   4.00000    1.000000    
     32 Si    c    0.906370 *  0.601243 *  0.150950 *   4.00000    1.000000    
     33 Si    c    0.702556 *  0.095630 *  0.813950 *   4.00000    1.000000    
     34 Si    c    0.609873 *  0.703826 *  0.989027 *   4.00000    1.000000    
     35 Si    c    0.095163 *  0.397808 *  0.648345 *   4.00000    1.000000    
     36 Si    c    0.302505 *  0.904132 *  0.317030 *   4.00000    1.000000    
     37 Si    c    0.247469 *  0.334432 *  0.955661 *   4.00000    1.000000    
     38 Si    c    0.660557 *  0.911204 *  0.287519 *   4.00000    1.000000    
     39 Si    c    0.087670 *  0.748113 *  0.618711 *   4.00000    1.000000    
     40 Si    c    0.748778 *  0.660682 *  0.453334 *   4.00000    1.000000    
     41 Si    c    0.344762 *  0.086603 *  0.786686 *   4.00000    1.000000    
     42 Si    c    0.917798 *  0.246074 *  0.123236 *   4.00000    1.000000    
     43 Si    c    0.340007 *  0.250916 *  0.382196 *   4.00000    1.000000    
     44 Si    c    0.913449 *  0.663276 *  0.049750 *   4.00000    1.000000    
     45 Si    c    0.747994 *  0.087602 *  0.713356 *   4.00000    1.000000    
     46 Si    c    0.666608 *  0.745069 *  0.886858 *   4.00000    1.000000    
     47 Si    c    0.088609 *  0.339894 *  0.548205 *   4.00000    1.000000    
     48 Si    c    0.253312 *  0.911523 *  0.216858 *   4.00000    1.000000    
     49 Si    c    0.960689 *  0.124984 *  0.971299 *   4.00000    1.000000    
     50 Si    c    0.878531 *  0.849072 *  0.302858 *   4.00000    1.000000    
     51 Si    c    0.150152 *  0.028385 *  0.634013 *   4.00000    1.000000    
     52 Si    c    0.028758 *  0.878471 *  0.468158 *   4.00000    1.000000    
     53 Ge    c    0.121958 *  0.147294 *  0.802266 *   4.00000    1.000000    
     54 Si    c    0.851972 *  0.969890 *  0.138342 *   4.00000    1.000000    
     55 Si    c    0.121883 *  0.971122 *  0.367594 *   4.00000    1.000000    
     56 Si    c    0.854499 *  0.887197 *  0.036823 *   4.00000    1.000000    
     57 Si    c    0.026473 *  0.149050 *  0.698603 *   4.00000    1.000000    
     58 Si    c    0.876582 *  0.027380 *  0.869802 *   4.00000    1.000000    
     59 Si    c    0.151145 *  0.121727 *  0.533167 *   4.00000    1.000000    
     60 Si    c    0.973405 *  0.846827 *  0.202841 *   4.00000    1.000000    
     61 O2    c    0.934883 *  0.003513 *  0.002910 *   0.87073    1.000000    
     62 O2    c    0.999840 *  0.929459 *  0.335359 *   0.87073    1.000000    
     63 O2    c    0.068906 *  0.070442 *  0.665482 *   0.87073    1.000000    
     64 O2    c    0.070329 *  0.000146 *  0.500666 *   0.87073    1.000000    
     65 O3    c    0.997079 *  0.060933 *  0.838447 *   1.33043    1.000000    
     66 O2    c    0.927795 *  0.921821 *  0.170029 *   0.87073    1.000000    
     67 O2    c    0.339572 *  0.578332 *  0.334755 *   0.87073    1.000000    
     68 O2    c    0.420107 *  0.760044 *  0.666509 *   0.87073    1.000000    
     69 O2    c    0.249690 *  0.672426 *  0.002633 *   0.87073    1.000000    
     70 O2    c    0.666471 *  0.424445 *  0.830526 *   0.87073    1.000000    
     71 O2    c    0.581284 *  0.237910 *  0.168970 *   0.87073    1.000000    
     72 O2    c    0.760873 *  0.339259 *  0.500273 *   0.87073    1.000000    
     73 O3    c    0.576398 *  0.346341 *  0.005020 *   1.33043    1.000000    
     74 O2    c    0.759089 *  0.419952 *  0.665585 *   0.87073    1.000000    
     75 O2    c    0.660690 *  0.239443 *  0.335061 *   0.87073    1.000000    
     76 O2    c    0.421363 *  0.660454 *  0.500936 *   0.87073    1.000000    
     77 O2    c    0.243121 *  0.579923 *  0.168966 *   0.87073    1.000000    
     78 O2    c    0.347556 *  0.760030 *  0.834124 *   0.87073    1.000000    
     79 O2    c    0.114669 *  0.219687 *  0.974874 *   0.87073    1.000000    
     80 O2    c    0.787577 *  0.912656 *  0.307676 *   0.87073    1.000000    
     81 O2    c    0.086425 *  0.873731 *  0.639092 *   0.87073    1.000000    
     82 O2    c    0.874601 *  0.787255 *  0.473450 *   0.87073    1.000000    
     83 O3    c    0.220210 *  0.081098 *  0.808553 *   1.33043    1.000000    
     84 O2    c    0.914370 *  0.122490 *  0.148284 *   0.87073    1.000000    
     85 O2    c    0.213390 *  0.125408 *  0.361958 *   0.87073    1.000000    
     86 O2    c    0.910357 *  0.788696 *  0.030993 *   0.87073    1.000000    
     87 O2    c    0.872515 *  0.086883 *  0.692155 *   0.87073    1.000000    
     88 O2    c    0.785086 *  0.872658 *  0.865045 *   0.87073    1.000000    
     89 O2    c    0.087479 *  0.212708 *  0.528167 *   0.87073    1.000000    
     90 O2    c    0.127226 *  0.912274 *  0.196913 *   0.87073    1.000000    
     91 O2    c    0.932743 *  0.859941 *  0.252901 *   0.87073    1.000000    
     92 O2    c    0.140496 *  0.068705 *  0.583345 *   0.87073    1.000000    
     93 O2    c    0.921740 *  0.069942 *  0.920391 *   0.87073    1.000000    
     94 O3    c    0.062404 *  0.130965 *  0.748612 *   1.33043    1.000000    
     95 O2    c    0.872422 *  0.938178 *  0.087736 *   0.87073    1.000000    
     96 O2    c    0.068841 *  0.931928 *  0.417883 *   0.87073    1.000000    
     97 O3    c    0.890138 *  0.198946 *  0.985069 *   1.33043    1.000000    
     98 O2    c    0.795646 *  0.697407 *  0.314888 *   0.87073    1.000000    
     99 O2    c    0.300541 *  0.097716 *  0.647691 *   0.87073    1.000000    
    100 O2    c    0.098592 *  0.796287 *  0.480176 *   0.87073    1.000000    
    101 O3    c    0.212758 *  0.309756 *  0.814355 *   1.33043    1.000000    
    102 O2    c    0.698918 *  0.899136 *  0.148854 *   0.87073    1.000000    
    103 O2    c    0.203983 *  0.901346 *  0.355396 *   0.87073    1.000000    
    104 O2    c    0.702294 *  0.813946 *  0.025368 *   0.87073    1.000000    
    105 O2    c    0.097146 *  0.301981 *  0.687113 *   0.87073    1.000000    
    106 O2    c    0.800170 *  0.099596 *  0.852630 *   0.87073    1.000000    
    107 O2    c    0.302357 *  0.203945 *  0.520750 *   0.87073    1.000000    
    108 O2    c    0.906439 *  0.694596 *  0.190580 *   0.87073    1.000000    
    109 O2    c    0.322182 *  0.643464 *  0.252043 *   0.87073    1.000000    
    110 O2    c    0.356008 *  0.678576 *  0.583649 *   0.87073    1.000000    
    111 O2    c    0.327467 *  0.678859 *  0.919069 *   0.87073    1.000000    
    112 O2    c    0.680660 *  0.355642 *  0.748780 *   0.87073    1.000000    
    113 O2    c    0.652721 *  0.321433 *  0.085876 *   0.87073    1.000000    
    114 O2    c    0.678019 *  0.322047 *  0.417749 *   0.87073    1.000000    
    115 O3    c    0.359465 *  0.315312 *  0.975507 *   1.33043    1.000000    
    116 O2    c    0.670668 *  0.044105 *  0.305703 *   0.87073    1.000000    
    117 O2    c    0.954671 *  0.625609 *  0.636576 *   0.87073    1.000000    
    118 O2    c    0.626057 *  0.670722 *  0.471285 *   0.87073    1.000000    
    119 O2    c    0.335752 *  0.953307 *  0.804224 *   0.87073    1.000000    
    120 O2    c    0.051393 *  0.373667 *  0.139107 *   0.87073    1.000000    
    121 O2    c    0.329504 *  0.373676 *  0.364157 *   0.87073    1.000000    
    122 O2    c    0.048651 *  0.674876 *  0.033609 *   0.87073    1.000000    
    123 O2    c    0.624798 *  0.953974 *  0.696148 *   0.87073    1.000000    
    124 O2    c    0.677005 *  0.623409 *  0.868113 *   0.87073    1.000000    
    125 O2    c    0.956010 *  0.329375 *  0.529719 *   0.87073    1.000000    
    126 O2    c    0.375396 *  0.044041 *  0.198458 *   0.87073    1.000000    
    127 O3    c    0.761142 *  0.299221 *  0.010878 *   1.33043    1.000000    
    128 O2    c    0.696913 *  0.467388 *  0.345705 *   0.87073    1.000000    
    129 O2    c    0.530718 *  0.228068 *  0.678016 *   0.87073    1.000000    
    130 O2    c    0.229815 *  0.697028 *  0.511363 *   0.87073    1.000000    
    131 O2    c    0.310027 *  0.531994 *  0.850260 *   0.87073    1.000000    
    132 O2    c    0.468578 *  0.770492 *  0.180081 *   0.87073    1.000000    
    133 O2    c    0.303322 *  0.770014 *  0.324171 *   0.87073    1.000000    
    134 O2    c    0.472459 *  0.700664 *  0.990328 *   0.87073    1.000000    
    135 O2    c    0.228812 *  0.532494 *  0.655623 *   0.87073    1.000000    
    136 O2    c    0.700247 *  0.228912 *  0.820992 *   0.87073    1.000000    
    137 O2    c    0.532753 *  0.302864 *  0.489707 *   0.87073    1.000000    
    138 O2    c    0.775182 *  0.465239 *  0.156518 *   0.87073    1.000000    
    139 O2    c    0.794146 *  0.533331 *  0.030966 *   0.87073    1.000000    
    140 O2    c    0.465338 *  0.249460 *  0.362878 *   0.87073    1.000000    
    141 O2    c    0.748679 *  0.214057 *  0.693664 *   0.87073    1.000000    
    142 O2    c    0.215968 *  0.465119 *  0.529123 *   0.87073    1.000000    
    143 O2    c    0.535788 *  0.738630 *  0.869525 *   0.87073    1.000000    
    144 O2    c    0.249184 *  0.783036 *  0.197349 *   0.87073    1.000000    
    145 O2    c    0.534808 *  0.784388 *  0.306591 *   0.87073    1.000000    
    146 O2    c    0.260571 *  0.471409 *  0.971658 *   0.87073    1.000000    
    147 O2    c    0.214851 *  0.750329 *  0.638148 *   0.87073    1.000000    
    148 O2    c    0.470383 *  0.216125 *  0.804526 *   0.87073    1.000000    
    149 O2    c    0.750111 *  0.534828 *  0.472628 *   0.87073    1.000000    
    150 O2    c    0.792428 *  0.252731 *  0.140727 *   0.87073    1.000000    
    151 O2    c    0.237096 *  0.320314 *  0.900375 *   0.87073    1.000000    
    152 O2    c    0.678448 *  0.908944 *  0.233503 *   0.87073    1.000000    
    153 O2    c    0.090668 *  0.768637 *  0.564615 *   0.87073    1.000000    
    154 O2    c    0.768636 *  0.678145 *  0.399251 *   0.87073    1.000000    
    155 O2    c    0.322497 *  0.090191 *  0.732547 *   0.87073    1.000000    
    156 O3    c    0.916050 *  0.215075 *  0.071067 *   1.33043    1.000000    
    157 O2    c    0.322532 *  0.230903 *  0.436268 *   0.87073    1.000000    
    158 O2    c    0.909876 *  0.672079 *  0.104249 *   0.87073    1.000000    
    159 O2    c    0.772588 *  0.092956 *  0.767379 *   0.87073    1.000000    
    160 O2    c    0.683312 *  0.761997 *  0.940736 *   0.87073    1.000000    
    161 O2    c    0.090122 *  0.321968 *  0.602336 *   0.87073    1.000000    
    162 O2    c    0.232112 *  0.909044 *  0.270881 *   0.87073    1.000000    
    163 O3    c    0.601832 *  0.572703 *  0.002191 *   1.33043    1.000000    
    164 O2    c    0.442195 *  0.029707 *  0.325523 *   0.87073    1.000000    
    165 O2    c    0.969557 *  0.411865 *  0.656854 *   0.87073    1.000000    
    166 O2    c    0.411935 *  0.441582 *  0.491011 *   0.87073    1.000000    
    167 O2    c    0.564915 *  0.966634 *  0.822325 *   0.87073    1.000000    
    168 O2    c    0.028797 *  0.581432 *  0.155951 *   0.87073    1.000000    
    169 O2    c    0.558236 *  0.588524 *  0.344450 *   0.87073    1.000000    
    170 O3    c    0.050044 *  0.454680 *  0.008257 *   1.33043    1.000000    
    171 O2    c    0.408550 *  0.967603 *  0.677366 *   0.87073    1.000000    
    172 O2    c    0.448598 *  0.413449 *  0.848046 *   0.87073    1.000000    
    173 O2    c    0.970262 *  0.558280 *  0.509789 *   0.87073    1.000000    
    174 O2    c    0.590132 *  0.029658 *  0.178522 *   0.87073    1.000000    
    175 O2    c    0.584707 *  0.167526 *  0.252118 *   0.87073    1.000000    
    176 O2    c    0.832143 *  0.415463 *  0.583072 *   0.87073    1.000000    
    177 O3    c    0.599076 *  0.406847 *  0.915996 *   1.33043    1.000000    
    178 O2    c    0.416917 *  0.827982 *  0.750013 *   0.87073    1.000000    
    179 O2    c    0.170813 *  0.583824 *  0.085137 *   0.87073    1.000000    
    180 O2    c    0.416182 *  0.583847 *  0.417789 *   0.87073    1.000000    
    181 F     c    0.451662 *  0.904731 *  0.251614 *   0.56000    1.000000    
    182 F     c    0.095094 *  0.547780 *  0.583248 *   0.56000    1.000000    
    183 F     c    0.476823 *  0.523121 *  0.929583 *   0.56000    1.000000    
    184 F     c    0.547545 *  0.091731 *  0.749701 *   0.56000    1.000000    
    185 F     c    0.913385 *  0.426030 *  0.076125 *   0.56000    1.000000    
    186 F     c    0.547714 *  0.452384 *  0.417494 *   0.56000    1.000000    
    187 O2    s    0.928331 *  0.002814 *  0.003508 *  -2.87073    1.000000    
    188 O2    s    0.999910 *  0.925100 *  0.335316 *  -2.87073    1.000000    
    189 O2    s    0.073388 *  0.074402 *  0.665590 *  -2.87073    1.000000    
    190 O2    s    0.074723 *  0.000120 *  0.500652 *  -2.87073    1.000000    
    191 O3    s    0.995461 *  0.065027 *  0.838582 *  -3.33043    1.000000    
    192 O2    s    0.924422 *  0.918477 *  0.170247 *  -2.87073    1.000000    
    193 O2    s    0.351642 *  0.586193 *  0.334715 *  -2.87073    1.000000    
    194 O2    s    0.412457 *  0.764260 *  0.666504 *  -2.87073    1.000000    
    195 O2    s    0.245094 *  0.659568 *  0.002361 *  -2.87073    1.000000    
    196 O2    s    0.654967 *  0.415279 *  0.830997 *  -2.87073    1.000000    
    197 O2    s    0.588860 *  0.233419 *  0.168934 *  -2.87073    1.000000    
    198 O2    s    0.765112 *  0.351261 *  0.500248 *  -2.87073    1.000000    
    199 O3    s    0.585682 *  0.355265 *  0.005330 *  -3.33043    1.000000    
    200 O2    s    0.763491 *  0.412385 *  0.665714 *  -2.87073    1.000000    
    201 O2    s    0.648632 *  0.235051 *  0.335099 *  -2.87073    1.000000    
    202 O2    s    0.413670 *  0.648540 *  0.500945 *  -2.87073    1.000000    
    203 O2    s    0.238707 *  0.587340 *  0.168898 *  -2.87073    1.000000    
    204 O2    s    0.358862 *  0.763929 *  0.834451 *  -2.87073    1.000000    
    205 O2    s    0.113177 *  0.222467 *  0.972380 *  -2.87073    1.000000    
    206 O2    s    0.784103 *  0.905707 *  0.305097 *  -2.87073    1.000000    
    207 O2    s    0.093340 *  0.877142 *  0.636470 *  -2.87073    1.000000    
    208 O2    s    0.877855 *  0.783794 *  0.470834 *  -2.87073    1.000000    
    209 O3    s    0.224677 *  0.087096 *  0.805891 *  -3.33043    1.000000    
    210 O2    s    0.908073 *  0.118788 *  0.144792 *  -2.87073    1.000000    
    211 O2    s    0.216804 *  0.122031 *  0.364622 *  -2.87073    1.000000    
    212 O2    s    0.904948 *  0.785351 *  0.033584 *  -2.87073    1.000000    
    213 O2    s    0.875735 *  0.093478 *  0.694998 *  -2.87073    1.000000    
    214 O2    s    0.781975 *  0.875239 *  0.867874 *  -2.87073    1.000000    
    215 O2    s    0.094433 *  0.216218 *  0.530745 *  -2.87073    1.000000    
    216 O2    s    0.123814 *  0.905153 *  0.199585 *  -2.87073    1.000000    
    217 O2    s    0.931252 *  0.857166 *  0.252852 *  -2.87073    1.000000    
    218 O2    s    0.142813 *  0.070177 *  0.583369 *  -2.87073    1.000000    
    219 O2    s    0.920628 *  0.070794 *  0.919885 *  -2.87073    1.000000    
    220 O3    s    0.063674 *  0.134295 *  0.747903 *  -3.33043    1.000000    
    221 O2    s    0.868089 *  0.936076 *  0.087802 *  -2.87073    1.000000    
    222 O2    s    0.070321 *  0.930327 *  0.417865 *  -2.87073    1.000000    
    223 O3    s    0.899678 *  0.198196 *  0.986301 *  -3.33043    1.000000    
    224 O2    s    0.794386 *  0.703806 *  0.317539 *  -2.87073    1.000000    
    225 O2    s    0.294334 *  0.089971 *  0.650163 *  -2.87073    1.000000    
    226 O2    s    0.090826 *  0.794932 *  0.482814 *  -2.87073    1.000000    
    227 O3    s    0.214641 *  0.304941 *  0.817302 *  -3.33043    1.000000    
    228 O2    s    0.705099 *  0.906943 *  0.151672 *  -2.87073    1.000000    
    229 O2    s    0.205366 *  0.909086 *  0.352783 *  -2.87073    1.000000    
    230 O2    s    0.709077 *  0.810667 *  0.022934 *  -2.87073    1.000000    
    231 O2    s    0.089596 *  0.295796 *  0.684391 *  -2.87073    1.000000    
    232 O2    s    0.797923 *  0.091596 *  0.850366 *  -2.87073    1.000000    
    233 O2    s    0.296166 *  0.205295 *  0.518116 *  -2.87073    1.000000    
    234 O2    s    0.913467 *  0.700674 *  0.187704 *  -2.87073    1.000000    
    235 O2    s    0.328338 *  0.655501 *  0.252040 *  -2.87073    1.000000    
    236 O2    s    0.344121 *  0.672524 *  0.583626 *  -2.87073    1.000000    
    237 O2    s    0.333272 *  0.673574 *  0.918978 *  -2.87073    1.000000    
    238 O2    s    0.674580 *  0.343806 *  0.748744 *  -2.87073    1.000000    
    239 O2    s    0.662845 *  0.326362 *  0.086454 *  -2.87073    1.000000    
    240 O2    s    0.671994 *  0.327952 *  0.417750 *  -2.87073    1.000000    
    241 O3    s    0.358884 *  0.324959 *  0.972844 *  -3.33043    1.000000    
    242 O2    s    0.660565 *  0.037292 *  0.303498 *  -2.87073    1.000000    
    243 O2    s    0.961434 *  0.622259 *  0.634409 *  -2.87073    1.000000    
    244 O2    s    0.622839 *  0.660743 *  0.469111 *  -2.87073    1.000000    
    245 O2    s    0.345985 *  0.959814 *  0.802021 *  -2.87073    1.000000    
    246 O2    s    0.045099 *  0.377115 *  0.137139 *  -2.87073    1.000000    
    247 O2    s    0.339647 *  0.376941 *  0.366373 *  -2.87073    1.000000    
    248 O2    s    0.042132 *  0.665116 *  0.035285 *  -2.87073    1.000000    
    249 O2    s    0.621601 *  0.960814 *  0.698296 *  -2.87073    1.000000    
    250 O2    s    0.667829 *  0.620885 *  0.870125 *  -2.87073    1.000000    
    251 O2    s    0.962745 *  0.339500 *  0.531940 *  -2.87073    1.000000    
    252 O2    s    0.378636 *  0.037195 *  0.200711 *  -2.87073    1.000000    
    253 O3    s    0.765961 *  0.308438 *  0.014584 *  -3.33043    1.000000    
    254 O2    s    0.689097 *  0.466683 *  0.348803 *  -2.87073    1.000000    
    255 O2    s    0.531653 *  0.221283 *  0.681002 *  -2.87073    1.000000    
    256 O2    s    0.222744 *  0.689290 *  0.514442 *  -2.87073    1.000000    
    257 O2    s    0.317642 *  0.533463 *  0.852741 *  -2.87073    1.000000    
    258 O2    s    0.467993 *  0.777473 *  0.183122 *  -2.87073    1.000000    
    259 O2    s    0.311068 *  0.777200 *  0.321115 *  -2.87073    1.000000    
    260 O2    s    0.471183 *  0.693093 *  0.988015 *  -2.87073    1.000000    
    261 O2    s    0.221816 *  0.533132 *  0.652577 *  -2.87073    1.000000    
    262 O2    s    0.692808 *  0.221990 *  0.817966 *  -2.87073    1.000000    
    263 O2    s    0.533404 *  0.310564 *  0.486652 *  -2.87073    1.000000    
    264 O2    s    0.782084 *  0.465015 *  0.153823 *  -2.87073    1.000000    
    265 O2    s    0.798812 *  0.532818 *  0.033369 *  -2.87073    1.000000    
    266 O2    s    0.467999 *  0.257388 *  0.365424 *  -2.87073    1.000000    
    267 O2    s    0.740810 *  0.208966 *  0.696271 *  -2.87073    1.000000    
    268 O2    s    0.210696 *  0.467902 *  0.531601 *  -2.87073    1.000000    
    269 O2    s    0.532958 *  0.732560 *  0.871337 *  -2.87073    1.000000    
    270 O2    s    0.257627 *  0.788580 *  0.199884 *  -2.87073    1.000000    
    271 O2    s    0.532195 *  0.789591 *  0.304099 *  -2.87073    1.000000    
    272 O2    s    0.266834 *  0.474552 *  0.969883 *  -2.87073    1.000000    
    273 O2    s    0.209615 *  0.742232 *  0.635609 *  -2.87073    1.000000    
    274 O2    s    0.473046 *  0.210750 *  0.802093 *  -2.87073    1.000000    
    275 O2    s    0.742169 *  0.532162 *  0.470075 *  -2.87073    1.000000    
    276 O2    s    0.796152 *  0.259250 *  0.138445 *  -2.87073    1.000000    
    277 O2    s    0.245512 *  0.329504 *  0.900907 *  -2.87073    1.000000    
    278 O2    s    0.668679 *  0.908571 *  0.234402 *  -2.87073    1.000000    
    279 O2    s    0.090879 *  0.759000 *  0.565541 *  -2.87073    1.000000    
    280 O2    s    0.759017 *  0.668297 *  0.400182 *  -2.87073    1.000000    
    281 O2    s    0.332434 *  0.090340 *  0.733260 *  -2.87073    1.000000    
    282 O3    s    0.915838 *  0.225165 *  0.073494 *  -3.33043    1.000000    
    283 O2    s    0.332340 *  0.240488 *  0.435349 *  -2.87073    1.000000    
    284 O2    s    0.909877 *  0.663513 *  0.103599 *  -2.87073    1.000000    
    285 O2    s    0.762769 *  0.092655 *  0.766550 *  -2.87073    1.000000    
    286 O2    s    0.674316 *  0.754354 *  0.939605 *  -2.87073    1.000000    
    287 O2    s    0.090502 *  0.331839 *  0.601426 *  -2.87073    1.000000    
    288 O2    s    0.241811 *  0.908847 *  0.270004 *  -2.87073    1.000000    
    289 O3    s    0.597720 *  0.577841 *  0.998504 *  -3.33043    1.000000    
    290 O2    s    0.441914 *  0.024823 *  0.322256 *  -2.87073    1.000000    
    291 O2    s    0.974436 *  0.416489 *  0.653529 *  -2.87073    1.000000    
    292 O2    s    0.416705 *  0.441429 *  0.487712 *  -2.87073    1.000000    
    293 O2    s    0.564493 *  0.971677 *  0.819169 *  -2.87073    1.000000    
    294 O2    s    0.024797 *  0.577982 *  0.153255 *  -2.87073    1.000000    
    295 O2    s    0.558446 *  0.583708 *  0.347768 *  -2.87073    1.000000    
    296 O3    s    0.046918 *  0.458309 *  0.012249 *  -3.33043    1.000000    
    297 O2    s    0.413689 *  0.972783 *  0.680605 *  -2.87073    1.000000    
    298 O2    s    0.447465 *  0.416659 *  0.850744 *  -2.87073    1.000000    
    299 O2    s    0.975166 *  0.558443 *  0.513109 *  -2.87073    1.000000    
    300 O2    s    0.585339 *  0.024555 *  0.181839 *  -2.87073    1.000000    
    301 O2    s    0.579037 *  0.156230 *  0.252123 *  -2.87073    1.000000    
    302 O2    s    0.843319 *  0.421155 *  0.583117 *  -2.87073    1.000000    
    303 O3    s    0.594047 *  0.414350 *  0.914212 *  -3.33043    1.000000    
    304 O2    s    0.422766 *  0.839530 *  0.750081 *  -2.87073    1.000000    
    305 O2    s    0.160610 *  0.578686 *  0.085391 *  -2.87073    1.000000    
    306 O2    s    0.421839 *  0.578272 *  0.417805 *  -2.87073    1.000000    
    307 F     s    0.451299 *  0.904384 *  0.251564 *  -1.56000    1.000000    
    308 F     s    0.095437 *  0.547980 *  0.583231 *  -1.56000    1.000000    
    309 F     s    0.480557 *  0.517069 *  0.932005 *  -1.56000    1.000000    
    310 F     s    0.547492 *  0.091750 *  0.749707 *  -1.56000    1.000000    
    311 F     s    0.913509 *  0.419832 *  0.073499 *  -1.56000    1.000000    
    312 F     s    0.547923 *  0.452204 *  0.417466 *  -1.56000    1.000000    
--------------------------------------------------------------------------------



********************************************************************************
*  General input information                                                   *
********************************************************************************

  Species output for all configurations : 

--------------------------------------------------------------------------------
  Species    Type    Atomic    Atomic    Charge       Radii (Angs)     Library
                     Number     Mass       (e)     Cova   Ionic  VDW   Symbol
--------------------------------------------------------------------------------
    Si       Core       14      28.09   4.000000   1.200  0.000  2.100          
    O1       Core        8      16.00   1.733957   0.730  0.000  1.360          
    O1       Shell       8       0.00  -3.733957   0.730  0.000  1.360          
    O2       Core        8      16.00   0.870733   0.730  0.000  1.360          
    O2       Shell       8       0.00  -2.870733   0.730  0.000  1.360          
    O3       Core        8      16.00   1.330431   0.730  0.000  1.360          
    O3       Shell       8       0.00  -3.330431   0.730  0.000  1.360          
    F        Core        9      19.00   0.560000   0.710  0.000  1.300          
    F        Shell       9       0.00  -1.560000   0.710  0.000  1.300          
    Ge       Core       32      72.61   4.000000   1.170  0.000  1.750          
--------------------------------------------------------------------------------


  Lattice summation method               =    Ewald          (3-D)
                                         =    Parry          (2-D)
                                         =    Saunders et al (1-D)
  Accuracy factor for lattice sums       =   12.000


  Time limit = Infinity

  Maximum range for interatomic potentials =        16.000000 Angstroms

  Taper potentials to zero over   1.0000 Angstroms using polynomial

  General interatomic potentials :

--------------------------------------------------------------------------------
Atom  Types   Potential         A         B         C         D     Cutoffs(Ang)
  1     2                                                            Min    Max 
--------------------------------------------------------------------------------
Si   c O1   s Buckingham    0.132E+04 0.318      10.1      0.00     0.000 16.000
Si   c O2   s Buckingham    0.132E+04 0.318      10.1      0.00     0.000 16.000
Si   c O3   s Buckingham    0.132E+04 0.318      10.1      0.00     0.000 16.000
Ge   c O1   s Buckingham    0.150E+04 0.326      16.8      0.00     0.000 16.000
Ge   c O2   s Buckingham    0.150E+04 0.326      16.8      0.00     0.000 16.000
Ge   c O3   s Buckingham    0.150E+04 0.326      16.8      0.00     0.000 16.000
O1   s O1   s Buckingham    0.228E+05 0.149      10.9      0.00     0.000 16.000
O1   s O2   s Buckingham    0.228E+05 0.149      10.9      0.00     0.000 16.000
O1   s O3   s Buckingham    0.228E+05 0.149      10.9      0.00     0.000 16.000
O2   s O2   s Buckingham    0.228E+05 0.149      10.9      0.00     0.000 16.000
O2   s O3   s Buckingham    0.228E+05 0.149      10.9      0.00     0.000 16.000
O3   s O3   s Buckingham    0.228E+05 0.149      10.9      0.00     0.000 16.000
Si   c F    s Buckingham     977.     0.282      0.00      0.00     0.000 16.000
Ge   c F    s Buckingham     681.     0.320      0.00      0.00     0.000 16.000
F    s F    s Buckingham     540.     0.262      0.00      0.00     0.000 16.000
O1   s F    s Buckingham    0.168E+04 0.268      0.00      0.00     0.000 16.000
O2   s F    s Buckingham    0.168E+04 0.268      0.00      0.00     0.000 16.000
O3   s F    s Buckingham    0.168E+04 0.268      0.00      0.00     0.000 16.000
O2   c O2   s Spring (c-s)   76.0      0.00      0.00      0.00     0.000  0.800
O3   c O3   s Spring (c-s)   128.      0.00      0.00      0.00     0.000  0.800
O1   c O1   s Spring (c-s)   180.      0.00      0.00      0.00     0.000  0.800
F    c F    s Spring (c-s)   33.5      0.00      0.00      0.00     0.000  0.800
--------------------------------------------------------------------------------

  General Three-body potentials :

  Harmonic form:

--------------------------------------------------------------------------------
Atom    Atom    Atom           Force Constants            Theta     Cutoffs  
  1       2       3     (eVrad**-2/eVrad**-3/eVrad**-4)   (deg)  1-2  1-3  2-3
--------------------------------------------------------------------------------
Si    c O1    s O1    s  1.261        0.0000    0.0000   109.470 0.00 0.00 0.00
                                                                 1.90 1.90 3.50
Si    c O1    s O2    s  1.261        0.0000    0.0000   109.470 0.00 0.00 0.00
                                                                 1.90 1.90 3.50
Si    c O2    s O2    s  1.261        0.0000    0.0000   109.470 0.00 0.00 0.00
                                                                 1.90 1.90 3.50
--------------------------------------------------------------------------------

********************************************************************************
*  Output for configuration   1                                                *
********************************************************************************


  Components of energy : 

--------------------------------------------------------------------------------
  Interatomic potentials     =        2063.97218337 eV
  Three-body potentials      =           0.42725250 eV
  Monopole - monopole (real) =       -6614.49559194 eV
  Monopole - monopole (recip)=       -3169.95816739 eV
  Monopole - monopole (total)=       -9784.45375933 eV
  Neutralising energy        =          -6.45720138 eV
--------------------------------------------------------------------------------
  Total lattice energy       =       -7726.51152483 eV
--------------------------------------------------------------------------------
  Total lattice energy       =         -745490.2516 kJ/(mole unit cells)
--------------------------------------------------------------------------------


  Number of variables =      939

  Maximum number of calculations  =          1000
  Maximum Hessian update interval =            10
  Maximum step size               =   1.000000000
  Maximum parameter tolerance     =   0.000010000
  Maximum function  tolerance     =   0.000010000
  Maximum gradient  tolerance     =   0.001000000
  Maximum gradient  component     =   0.010000000

  Symmetry not applied to optimisation

  Cell parameters to be optimised using strains

  Newton-Raphson optimiser to be used

  BFGS hessian update to be used

  Dumpfile to be written after every cycle

  Start of bulk optimisation :

  Cycle:      0 Energy:     -7726.511525  Gnorm:      0.020707  CPU:    1.052
  ** Hessian calculated **
  Cycle:      1 Energy:     -7726.513184  Gnorm:      0.008689  CPU:    2.624
  Cycle:      2 Energy:     -7726.514449  Gnorm:      0.012564  CPU:    4.002
  Cycle:      3 Energy:     -7726.516591  Gnorm:      0.013299  CPU:    5.710
  Cycle:      4 Energy:     -7726.519456  Gnorm:      0.018405  CPU:    7.088
  Cycle:      5 Energy:     -7726.524359  Gnorm:      0.018573  CPU:    8.796
  Cycle:      6 Energy:     -7726.530013  Gnorm:      0.023346  CPU:   10.173
  Cycle:      7 Energy:     -7726.537566  Gnorm:      0.023970  CPU:   11.551
  Cycle:      8 Energy:     -7726.544333  Gnorm:      0.020533  CPU:   12.928
  Cycle:      9 Energy:     -7726.549021  Gnorm:      0.015934  CPU:   14.305
  Cycle:     10 Energy:     -7726.551751  Gnorm:      0.013949  CPU:   15.682
  ** Hessian calculated **
  Cycle:     11 Energy:     -7726.569882  Gnorm:      0.013137  CPU:   19.233
  Cycle:     12 Energy:     -7726.592126  Gnorm:      0.012058  CPU:   21.268
  Cycle:     13 Energy:     -7726.626334  Gnorm:      0.010164  CPU:   23.633
  Cycle:     14 Energy:     -7726.662123  Gnorm:      0.007683  CPU:   25.667
  Cycle:     15 Energy:     -7726.695625  Gnorm:      0.004225  CPU:   27.856
  Cycle:     16 Energy:     -7726.708169  Gnorm:      0.001267  CPU:   29.560
  Cycle:     17 Energy:     -7726.708227  Gnorm:      0.000146  CPU:   30.935
  Cycle:     18 Energy:     -7726.708231  Gnorm:      0.000089  CPU:   32.394


  **** Optimisation achieved ****


  Final energy =   -7726.70823082 eV
  Final Gnorm  =       0.00002177

  Components of energy : 

--------------------------------------------------------------------------------
  Interatomic potentials     =        2064.58895315 eV
  Three-body potentials      =           0.46057896 eV
  Monopole - monopole (real) =       -6614.37224124 eV
  Monopole - monopole (recip)=       -3170.92635086 eV
  Monopole - monopole (total)=       -9785.29859209 eV
  Neutralising energy        =          -6.45917085 eV
--------------------------------------------------------------------------------
  Total lattice energy       =       -7726.70823082 eV
--------------------------------------------------------------------------------
  Total lattice energy       =         -745509.2307 kJ/(mole unit cells)
--------------------------------------------------------------------------------

  Final fractional coordinates of atoms :

--------------------------------------------------------------------------------
   No.  Atomic        x           y          z          Radius
        Label       (Frac)      (Frac)     (Frac)       (Angs) 
--------------------------------------------------------------------------------
     1  Si    c     0.699600    0.375700    0.033890    0.000000
     2  Si    c     0.637833    0.319036    0.369309    0.000000
     3  Si    c     0.695540    0.295652    0.699842    0.000000
     4  Si    c     0.313964    0.615971    0.534463    0.000000
     5  Si    c     0.406873    0.682406    0.869336    0.000000
     6  Si    c     0.343638    0.701439    0.201193    0.000000
     7  Si    c     0.397612    0.698900    0.301985    0.000000
     8  Si    c     0.347746    0.634978    0.970876    0.000000
     9  Si    c     0.315265    0.672125    0.635250    0.000000
    10  Si    c     0.647033    0.298056    0.801023    0.000000
    11  Si    c     0.692761    0.375351    0.469980    0.000000
    12  Si    c     0.718370    0.320932    0.136695    0.000000
    13  Ge    c     0.537029    0.435968    0.968073    0.000000
    14  Si    c     0.600130    0.108334    0.304284    0.000000
    15  Si    c     0.906142    0.467785    0.636068    0.000000
    16  Si    c     0.487396    0.579817    0.469441    0.000000
    17  Si    c     0.447243    0.887849    0.801154    0.000000
    18  Si    c     0.134720    0.529646    0.134711    0.000000
    19  Si    c     0.435235    0.526826    0.367526    0.000000
    20  Si    c     0.132006    0.588834    0.031848    0.000000
    21  Si    c     0.490682    0.884012    0.699422    0.000000
    22  Si    c     0.613059    0.465476    0.869960    0.000000
    23  Si    c     0.904051    0.413014    0.534361    0.000000
    24  Si    c     0.549383    0.111447    0.202416    0.000000
    25  Si    c     0.328216    0.399183    0.854973    0.000000
    26  Si    c     0.621010    0.901603    0.187447    0.000000
    27  Si    c     0.112387    0.692724    0.520153    0.000000
    28  Si    c     0.714802    0.597171    0.354426    0.000000
    29  Si    c     0.418129    0.094195    0.686674    0.000000
    30  Ge    c     0.913250    0.317961    0.027414    0.000000
    31  Si    c     0.415546    0.298741    0.484168    0.000000
    32  Si    c     0.922006    0.601594    0.150633    0.000000
    33  Si    c     0.726041    0.096235    0.814712    0.000000
    34  Si    c     0.627747    0.711796    0.990992    0.000000
    35  Si    c     0.114319    0.395068    0.650680    0.000000
    36  Si    c     0.320615    0.900644    0.318026    0.000000
    37  Si    c     0.259513    0.340605    0.956621    0.000000
    38  Si    c     0.677902    0.906590    0.288349    0.000000
    39  Si    c     0.107150    0.745478    0.620864    0.000000
    40  Si    c     0.765489    0.657189    0.455181    0.000000
    41  Si    c     0.367213    0.088183    0.787924    0.000000
    42  Si    c     0.931398    0.246196    0.122652    0.000000
    43  Si    c     0.357804    0.247644    0.383271    0.000000
    44  Si    c     0.922817    0.660605    0.048651    0.000000
    45  Si    c     0.768246    0.086035    0.713276    0.000000
    46  Si    c     0.688421    0.747313    0.887989    0.000000
    47  Si    c     0.105581    0.336018    0.549810    0.000000
    48  Si    c     0.272138    0.910884    0.217270    0.000000
    49  Si    c     0.973962    0.130201    0.973520    0.000000
    50  Si    c     0.896199    0.844606    0.304526    0.000000
    51  Si    c     0.170492    0.026405    0.635956    0.000000
    52  Si    c     0.045361    0.874086    0.469766    0.000000
    53  Ge    c     0.143391    0.147768    0.804355    0.000000
    54  Si    c     0.871254    0.971980    0.140060    0.000000
    55  Si    c     0.140012    0.967767    0.369020    0.000000
    56  Si    c     0.873958    0.891827    0.038035    0.000000
    57  Si    c     0.045354    0.146458    0.700763    0.000000
    58  Si    c     0.899190    0.027979    0.871686    0.000000
    59  Si    c     0.168835    0.118473    0.534826    0.000000
    60  Si    c     0.992913    0.848049    0.203917    0.000000
    61  O2    c     0.955692    0.012302    0.005949    0.000000
    62  O2    c     0.016310    0.925420    0.337562    0.000000
    63  O2    c     0.091968    0.068664    0.668864    0.000000
    64  O2    c     0.088125    0.995712    0.502693    0.000000
    65  O3    c     0.024501    0.063590    0.842885    0.000000
    66  O2    c     0.947752    0.928217    0.173439    0.000000
    67  O2    c     0.359233    0.575390    0.334529    0.000000
    68  O2    c     0.439745    0.757529    0.667182    0.000000
    69  O2    c     0.261993    0.675355    0.002030    0.000000
    70  O2    c     0.686154    0.422828    0.832989    0.000000
    71  O2    c     0.598709    0.237917    0.170571    0.000000
    72  O2    c     0.777843    0.336500    0.502403    0.000000
    73  O3    c     0.576077    0.347352    0.007262    0.000000
    74  O2    c     0.779969    0.419500    0.667720    0.000000
    75  O2    c     0.676567    0.233454    0.336986    0.000000
    76  O2    c     0.436490    0.655351    0.501750    0.000000
    77  O2    c     0.259514    0.580486    0.167416    0.000000
    78  O2    c     0.372319    0.764243    0.834393    0.000000
    79  O2    c     0.126438    0.229991    0.975979    0.000000
    80  O2    c     0.804387    0.907419    0.308536    0.000000
    81  O2    c     0.107453    0.872133    0.641152    0.000000
    82  O2    c     0.891559    0.784344    0.474815    0.000000
    83  O3    c     0.242512    0.082348    0.809523    0.000000
    84  O2    c     0.930196    0.124701    0.148513    0.000000
    85  O2    c     0.231262    0.121737    0.363293    0.000000
    86  O2    c     0.922864    0.788284    0.030201    0.000000
    87  O2    c     0.892754    0.085594    0.692003    0.000000
    88  O2    c     0.808501    0.873320    0.866371    0.000000
    89  O2    c     0.104910    0.209077    0.529587    0.000000
    90  O2    c     0.146002    0.911787    0.197600    0.000000
    91  O2    c     0.953574    0.855908    0.254927    0.000000
    92  O2    c     0.157844    0.066727    0.585432    0.000000
    93  O2    c     0.936295    0.068894    0.923095    0.000000
    94  O3    c     0.074199    0.126474    0.751794    0.000000
    95  O2    c     0.895034    0.937579    0.089962    0.000000
    96  O2    c     0.088026    0.928759    0.419623    0.000000
    97  O3    c     0.898565    0.200358    0.985683    0.000000
    98  O2    c     0.813709    0.693143    0.316365    0.000000
    99  O2    c     0.321157    0.095487    0.648403    0.000000
   100  O2    c     0.113241    0.790139    0.481575    0.000000
   101  O3    c     0.235735    0.311015    0.814720    0.000000
   102  O2    c     0.718261    0.899713    0.149488    0.000000
   103  O2    c     0.221748    0.897803    0.356368    0.000000
   104  O2    c     0.722044    0.823396    0.026645    0.000000
   105  O2    c     0.116529    0.299223    0.689498    0.000000
   106  O2    c     0.825461    0.100814    0.852653    0.000000
   107  O2    c     0.319312    0.200607    0.522369    0.000000
   108  O2    c     0.924460    0.697330    0.189985    0.000000
   109  O2    c     0.342345    0.642173    0.251295    0.000000
   110  O2    c     0.371353    0.671955    0.584875    0.000000
   111  O2    c     0.351854    0.685795    0.919234    0.000000
   112  O2    c     0.699883    0.353401    0.750382    0.000000
   113  O2    c     0.663484    0.324546    0.087090    0.000000
   114  O2    c     0.693801    0.318083    0.419731    0.000000
   115  O3    c     0.370969    0.320927    0.976360    0.000000
   116  O2    c     0.687255    0.038938    0.307017    0.000000
   117  O2    c     0.975257    0.624200    0.639348    0.000000
   118  O2    c     0.642931    0.667460    0.473135    0.000000
   119  O2    c     0.360418    0.956237    0.805393    0.000000
   120  O2    c     0.064763    0.374019    0.138465    0.000000
   121  O2    c     0.348166    0.370456    0.364746    0.000000
   122  O2    c     0.056618    0.671321    0.031818    0.000000
   123  O2    c     0.646057    0.952707    0.695625    0.000000
   124  O2    c     0.696863    0.623987    0.869553    0.000000
   125  O2    c     0.973210    0.325485    0.531358    0.000000
   126  O2    c     0.393727    0.042661    0.198851    0.000000
   127  O3    c     0.764231    0.300071    0.011065    0.000000
   128  O2    c     0.713513    0.462074    0.346915    0.000000
   129  O2    c     0.551454    0.227625    0.678531    0.000000
   130  O2    c     0.245208    0.691198    0.512398    0.000000
   131  O2    c     0.334830    0.537050    0.849933    0.000000
   132  O2    c     0.486369    0.769452    0.179090    0.000000
   133  O2    c     0.321617    0.766373    0.324521    0.000000
   134  O2    c     0.491072    0.710602    0.992045    0.000000
   135  O2    c     0.247618    0.529346    0.658011    0.000000
   136  O2    c     0.722274    0.228750    0.822538    0.000000
   137  O2    c     0.550030    0.300232    0.492148    0.000000
   138  O2    c     0.791963    0.466218    0.157727    0.000000
   139  O2    c     0.800771    0.532691    0.030071    0.000000
   140  O2    c     0.482490    0.245572    0.363901    0.000000
   141  O2    c     0.767274    0.211600    0.693742    0.000000
   142  O2    c     0.231472    0.459902    0.529904    0.000000
   143  O2    c     0.559706    0.742536    0.869537    0.000000
   144  O2    c     0.268648    0.783104    0.197242    0.000000
   145  O2    c     0.552866    0.780235    0.307411    0.000000
   146  O2    c     0.280339    0.480409    0.973180    0.000000
   147  O2    c     0.233605    0.746723    0.640320    0.000000
   148  O2    c     0.492128    0.216403    0.806543    0.000000
   149  O2    c     0.766261    0.531637    0.475054    0.000000
   150  O2    c     0.806747    0.254015    0.140306    0.000000
   151  O2    c     0.253826    0.327350    0.901020    0.000000
   152  O2    c     0.694446    0.904240    0.234024    0.000000
   153  O2    c     0.108262    0.764084    0.566476    0.000000
   154  O2    c     0.784314    0.672935    0.400826    0.000000
   155  O2    c     0.345861    0.091673    0.733490    0.000000
   156  O3    c     0.925921    0.216391    0.070241    0.000000
   157  O2    c     0.341342    0.228697    0.437632    0.000000
   158  O2    c     0.921526    0.668967    0.103514    0.000000
   159  O2    c     0.793201    0.092038    0.767514    0.000000
   160  O2    c     0.701237    0.764271    0.942242    0.000000
   161  O2    c     0.108766    0.319369    0.604228    0.000000
   162  O2    c     0.252453    0.908558    0.271605    0.000000
   163  O3    c     0.613476    0.578133    0.004225    0.000000
   164  O2    c     0.459797    0.024606    0.327441    0.000000
   165  O2    c     0.989816    0.410409    0.659629    0.000000
   166  O2    c     0.429779    0.438773    0.492707    0.000000
   167  O2    c     0.589207    0.968392    0.823548    0.000000
   168  O2    c     0.044781    0.582565    0.155543    0.000000
   169  O2    c     0.576176    0.583567    0.344875    0.000000
   170  O3    c     0.056227    0.453928    0.006471    0.000000
   171  O2    c     0.431388    0.967900    0.677463    0.000000
   172  O2    c     0.468182    0.413853    0.849637    0.000000
   173  O2    c     0.987450    0.553737    0.511140    0.000000
   174  O2    c     0.607599    0.028084    0.179132    0.000000
   175  O2    c     0.600259    0.162801    0.253653    0.000000
   176  O2    c     0.852614    0.414263    0.585277    0.000000
   177  O3    c     0.614340    0.411060    0.918758    0.000000
   178  O2    c     0.441836    0.830562    0.750538    0.000000
   179  O2    c     0.180706    0.580951    0.083478    0.000000
   180  O2    c     0.435269    0.580576    0.418412    0.000000
   181  F     c     0.470202    0.901097    0.252346    0.000000
   182  F     c     0.112736    0.543763    0.585356    0.000000
   183  F     c     0.492097    0.530083    0.929963    0.000000
   184  F     c     0.569382    0.091817    0.750628    0.000000
   185  F     c     0.922922    0.426967    0.075623    0.000000
   186  F     c     0.565512    0.448720    0.419161    0.000000
   187  O2    s     0.948201    0.010592    0.006290    0.000000
   188  O2    s     0.016718    0.921131    0.337385    0.000000
   189  O2    s     0.095671    0.072553    0.668686    0.000000
   190  O2    s     0.092376    0.995839    0.502603    0.000000
   191  O3    s     0.021769    0.067190    0.842533    0.000000
   192  O2    s     0.944328    0.923852    0.173196    0.000000
   193  O2    s     0.370987    0.583040    0.334581    0.000000
   194  O2    s     0.432205    0.761821    0.667222    0.000000
   195  O2    s     0.258170    0.662775    0.001718    0.000000
   196  O2    s     0.674753    0.414155    0.833371    0.000000
   197  O2    s     0.605900    0.233386    0.170381    0.000000
   198  O2    s     0.782125    0.348386    0.502362    0.000000
   199  O3    s     0.587391    0.356672    0.007567    0.000000
   200  O2    s     0.784217    0.411691    0.667788    0.000000
   201  O2    s     0.664670    0.229350    0.336950    0.000000
   202  O2    s     0.429105    0.643514    0.501805    0.000000
   203  O2    s     0.255235    0.587657    0.167504    0.000000
   204  O2    s     0.383731    0.768077    0.834763    0.000000
   205  O2    s     0.125479    0.232050    0.973519    0.000000
   206  O2    s     0.801088    0.900644    0.306052    0.000000
   207  O2    s     0.114124    0.875383    0.638519    0.000000
   208  O2    s     0.894790    0.780726    0.472291    0.000000
   209  O3    s     0.246944    0.088317    0.806928    0.000000
   210  O2    s     0.924055    0.120658    0.145089    0.000000
   211  O2    s     0.234639    0.118408    0.365928    0.000000
   212  O2    s     0.917802    0.785492    0.032921    0.000000
   213  O2    s     0.895800    0.091981    0.695083    0.000000
   214  O2    s     0.805164    0.876028    0.869205    0.000000
   215  O2    s     0.111807    0.212570    0.532218    0.000000
   216  O2    s     0.142687    0.904892    0.200277    0.000000
   217  O2    s     0.951527    0.853718    0.254736    0.000000
   218  O2    s     0.160527    0.068016    0.585428    0.000000
   219  O2    s     0.935940    0.070576    0.922395    0.000000
   220  O3    s     0.077136    0.130445    0.750916    0.000000
   221  O2    s     0.889967    0.936354    0.089853    0.000000
   222  O2    s     0.089070    0.926976    0.419575    0.000000
   223  O3    s     0.908257    0.199821    0.986947    0.000000
   224  O2    s     0.812359    0.699457    0.319004    0.000000
   225  O2    s     0.315069    0.087989    0.651014    0.000000
   226  O2    s     0.105884    0.789090    0.484280    0.000000
   227  O3    s     0.237253    0.306397    0.817789    0.000000
   228  O2    s     0.724222    0.907409    0.152387    0.000000
   229  O2    s     0.223166    0.905492    0.353806    0.000000
   230  O2    s     0.728254    0.819262    0.024231    0.000000
   231  O2    s     0.108942    0.293061    0.686763    0.000000
   232  O2    s     0.822689    0.092697    0.850602    0.000000
   233  O2    s     0.313198    0.201939    0.519777    0.000000
   234  O2    s     0.931453    0.703132    0.187289    0.000000
   235  O2    s     0.348067    0.653908    0.251349    0.000000
   236  O2    s     0.359713    0.666225    0.584876    0.000000
   237  O2    s     0.357172    0.680328    0.919246    0.000000
   238  O2    s     0.694003    0.341750    0.750373    0.000000
   239  O2    s     0.672786    0.328902    0.087551    0.000000
   240  O2    s     0.687949    0.324052    0.419710    0.000000
   241  O3    s     0.370395    0.330856    0.973648    0.000000
   242  O2    s     0.677279    0.032219    0.304768    0.000000
   243  O2    s     0.981935    0.620784    0.637071    0.000000
   244  O2    s     0.639779    0.657438    0.470883    0.000000
   245  O2    s     0.370432    0.962785    0.803086    0.000000
   246  O2    s     0.058821    0.377609    0.136483    0.000000
   247  O2    s     0.358119    0.373663    0.366981    0.000000
   248  O2    s     0.050373    0.661955    0.033566    0.000000
   249  O2    s     0.642832    0.959570    0.697872    0.000000
   250  O2    s     0.687868    0.621672    0.871552    0.000000
   251  O2    s     0.979935    0.335597    0.533606    0.000000
   252  O2    s     0.396901    0.035871    0.201157    0.000000
   253  O3    s     0.768948    0.308929    0.014591    0.000000
   254  O2    s     0.705856    0.461620    0.350046    0.000000
   255  O2    s     0.552366    0.220693    0.681609    0.000000
   256  O2    s     0.238267    0.683601    0.515525    0.000000
   257  O2    s     0.341886    0.538104    0.852571    0.000000
   258  O2    s     0.485778    0.776305    0.182278    0.000000
   259  O2    s     0.329312    0.773581    0.321488    0.000000
   260  O2    s     0.489723    0.702772    0.989681    0.000000
   261  O2    s     0.240589    0.529916    0.654881    0.000000
   262  O2    s     0.714887    0.221976    0.819453    0.000000
   263  O2    s     0.550578    0.307788    0.489006    0.000000
   264  O2    s     0.798440    0.465966    0.154811    0.000000
   265  O2    s     0.805264    0.532411    0.032500    0.000000
   266  O2    s     0.485103    0.253511    0.366527    0.000000
   267  O2    s     0.759755    0.206670    0.696469    0.000000
   268  O2    s     0.226401    0.462846    0.532508    0.000000
   269  O2    s     0.556749    0.736336    0.871510    0.000000
   270  O2    s     0.276889    0.788444    0.199792    0.000000
   271  O2    s     0.550237    0.785530    0.304815    0.000000
   272  O2    s     0.285831    0.483246    0.971258    0.000000
   273  O2    s     0.228365    0.738691    0.637714    0.000000
   274  O2    s     0.494869    0.211080    0.803989    0.000000
   275  O2    s     0.758464    0.529001    0.472414    0.000000
   276  O2    s     0.810179    0.260456    0.138118    0.000000
   277  O2    s     0.262091    0.336030    0.901594    0.000000
   278  O2    s     0.685003    0.904213    0.234959    0.000000
   279  O2    s     0.108568    0.754631    0.567389    0.000000
   280  O2    s     0.775002    0.663306    0.401742    0.000000
   281  O2    s     0.355517    0.091618    0.734202    0.000000
   282  O3    s     0.925752    0.226126    0.073071    0.000000
   283  O2    s     0.350890    0.238073    0.436747    0.000000
   284  O2    s     0.921719    0.660809    0.102904    0.000000
   285  O2    s     0.783595    0.091880    0.766742    0.000000
   286  O2    s     0.692657    0.757225    0.941103    0.000000
   287  O2    s     0.109010    0.329051    0.603349    0.000000
   288  O2    s     0.261733    0.907985    0.270726    0.000000
   289  O3    s     0.610002    0.583749    0.000469    0.000000
   290  O2    s     0.459387    0.019779    0.324019    0.000000
   291  O2    s     0.994637    0.414904    0.656224    0.000000
   292  O2    s     0.434426    0.438373    0.489355    0.000000
   293  O2    s     0.588906    0.973669    0.820254    0.000000
   294  O2    s     0.040665    0.578969    0.152799    0.000000
   295  O2    s     0.576398    0.578934    0.348275    0.000000
   296  O3    s     0.054107    0.458574    0.010537    0.000000
   297  O2    s     0.436342    0.972852    0.680758    0.000000
   298  O2    s     0.467184    0.417441    0.852239    0.000000
   299  O2    s     0.992362    0.553992    0.514544    0.000000
   300  O2    s     0.602799    0.023071    0.182454    0.000000
   301  O2    s     0.594941    0.151815    0.253569    0.000000
   302  O2    s     0.863578    0.419719    0.585257    0.000000
   303  O3    s     0.609409    0.418389    0.916702    0.000000
   304  O2    s     0.447432    0.842020    0.750542    0.000000
   305  O2    s     0.171130    0.576275    0.083856    0.000000
   306  O2    s     0.440660    0.574948    0.418426    0.000000
   307  F     s     0.469910    0.900657    0.252319    0.000000
   308  F     s     0.113060    0.543943    0.585369    0.000000
   309  F     s     0.495775    0.523253    0.932761    0.000000
   310  F     s     0.569315    0.091864    0.750641    0.000000
   311  F     s     0.922705    0.419747    0.072544    0.000000
   312  F     s     0.565765    0.448535    0.419155    0.000000
--------------------------------------------------------------------------------

  Final Cartesian lattice vectors (Angstroms) :

       11.994403    0.025279    0.002138
       -5.933998   10.351478   -0.021373
       -0.060083   -0.059872   29.428741


  Final cell parameters and derivatives :

--------------------------------------------------------------------------------
       a           11.994430 Angstrom     dE/de1(xx)    -0.000175 eV/strain
       b           11.931718 Angstrom     dE/de2(yy)     0.000482 eV/strain
       c           29.428864 Angstrom     dE/de3(zz)    -0.001066 eV/strain
       alpha       90.145583 Degrees      dE/de4(yz)    -0.000037 eV/strain
       beta        90.107012 Degrees      dE/de5(xz)     0.000199 eV/strain
       gamma      119.702760 Degrees      dE/de6(xy)     0.000045 eV/strain
--------------------------------------------------------------------------------

  Primitive cell volume =          3658.268011 Angs**3

  Density of cell =      1.748940 g/cm**3

  Non-primitive cell volume =          3658.268011 Angs**3


  Final internal derivatives :

--------------------------------------------------------------------------------
   No.  Atomic          a             b             c           Radius
        Label          (eV)          (eV)          (eV)        (eV/Angs)
--------------------------------------------------------------------------------
      1 Si    c       0.000000      0.000000      0.000000      0.000000
      2 Si    c      -0.000095      0.000144      0.000169      0.000000
      3 Si    c       0.000146     -0.000205      0.000182      0.000000
      4 Si    c       0.000006      0.000105     -0.000012      0.000000
      5 Si    c      -0.000052     -0.000292      0.000570      0.000000
      6 Si    c       0.000011      0.000122      0.000307      0.000000
      7 Si    c      -0.000056     -0.000098      0.000028      0.000000
      8 Si    c       0.000780     -0.000139     -0.001252      0.000000
      9 Si    c      -0.000095      0.000165     -0.000117      0.000000
     10 Si    c       0.000153     -0.000200     -0.000042      0.000000
     11 Si    c      -0.000049     -0.000035     -0.000027      0.000000
     12 Si    c       0.000177     -0.000213      0.001610      0.000000
     13 Ge    c      -0.000288      0.000194      0.000354      0.000000
     14 Si    c      -0.000086      0.000105      0.000196      0.000000
     15 Si    c       0.000099     -0.000197     -0.000162      0.000000
     16 Si    c       0.000089     -0.000070     -0.000382      0.000000
     17 Si    c       0.000145     -0.000214     -0.000638      0.000000
     18 Si    c      -0.000085      0.000075      0.000461      0.000000
     19 Si    c      -0.000013      0.000027      0.000212      0.000000
     20 Si    c       0.000032      0.000154     -0.000257      0.000000
     21 Si    c      -0.000047     -0.000191      0.000692      0.000000
     22 Si    c       0.000928     -0.000632     -0.002093      0.000000
     23 Si    c       0.000034     -0.000022      0.000003      0.000000
     24 Si    c       0.000075      0.000142     -0.000830      0.000000
     25 Si    c      -0.000233     -0.000049     -0.000867      0.000000
     26 Si    c       0.000053      0.000006      0.000004      0.000000
     27 Si    c       0.000030     -0.000070     -0.000056      0.000000
     28 Si    c       0.000001     -0.000007     -0.000223      0.000000
     29 Si    c      -0.000128      0.000130     -0.000065      0.000000
     30 Ge    c      -0.000983      0.000967     -0.000489      0.000000
     31 Si    c      -0.000072     -0.000008      0.000067      0.000000
     32 Si    c       0.000152      0.000154      0.000823      0.000000
     33 Si    c       0.000255     -0.000234     -0.000372      0.000000
     34 Si    c       0.000216      0.000208      0.000478      0.000000
     35 Si    c      -0.000093      0.000055     -0.000312      0.000000
     36 Si    c      -0.000074      0.000087      0.000272      0.000000
     37 Si    c       0.000285     -0.000356      0.000732      0.000000
     38 Si    c       0.000175     -0.000063     -0.000181      0.000000
     39 Si    c       0.000130     -0.000000     -0.000253      0.000000
     40 Si    c       0.000009      0.000044      0.000060      0.000000
     41 Si    c       0.000170     -0.000083     -0.000513      0.000000
     42 Si    c       0.000431     -0.000276      0.003302      0.000000
     43 Si    c      -0.000015     -0.000022      0.000028      0.000000
     44 Si    c       0.000181     -0.000268     -0.000611      0.000000
     45 Si    c      -0.000009      0.000060      0.000395      0.000000
     46 Si    c      -0.000315      0.000319     -0.000061      0.000000
     47 Si    c      -0.000082     -0.000043      0.000174      0.000000
     48 Si    c      -0.000055     -0.000102     -0.000015      0.000000
     49 Si    c       0.001110     -0.000113      0.001389      0.000000
     50 Si    c      -0.000118      0.000157      0.000217      0.000000
     51 Si    c      -0.000348      0.000604      0.000590      0.000000
     52 Si    c      -0.000022      0.000078      0.000357      0.000000
     53 Ge    c      -0.003083      0.000112      0.000488      0.000000
     54 Si    c      -0.000622      0.000238     -0.000127      0.000000
     55 Si    c       0.000003     -0.000047     -0.000089      0.000000
     56 Si    c       0.000382      0.000287     -0.002203      0.000000
     57 Si    c      -0.000327     -0.000989      0.006068      0.000000
     58 Si    c       0.002769      0.000383      0.000198      0.000000
     59 Si    c       0.000003     -0.000067      0.000180      0.000000
     60 Si    c       0.000443     -0.000491     -0.000084      0.000000
     61 O2    c       0.000025     -0.000717      0.001648      0.000000
     62 O2    c      -0.000204     -0.000016     -0.000293      0.000000
     63 O2    c       0.000561     -0.000090     -0.000905      0.000000
     64 O2    c       0.000069     -0.000076     -0.000100      0.000000
     65 O3    c      -0.002342      0.002462     -0.002786      0.000000
     66 O2    c      -0.000093      0.000409      0.000221      0.000000
     67 O2    c       0.000093     -0.000105     -0.000120      0.000000
     68 O2    c       0.000035      0.000323      0.000757      0.000000
     69 O2    c      -0.001143      0.000778      0.000880      0.000000
     70 O2    c      -0.000104      0.000024      0.000148      0.000000
     71 O2    c       0.000198     -0.000192      0.000357      0.000000
     72 O2    c      -0.000156      0.000044     -0.000151      0.000000
     73 O3    c      -0.002545      0.001727     -0.007232      0.000000
     74 O2    c       0.000106     -0.000009     -0.000179      0.000000
     75 O2    c      -0.000057      0.000013     -0.000375      0.000000
     76 O2    c      -0.000105      0.000093      0.000164      0.000000
     77 O2    c      -0.000079     -0.000168     -0.000604      0.000000
     78 O2    c      -0.000185      0.000378     -0.000607      0.000000
     79 O2    c      -0.000155     -0.000197     -0.000007      0.000000
     80 O2    c       0.000003     -0.000158     -0.000187      0.000000
     81 O2    c       0.000094     -0.000139     -0.000291      0.000000
     82 O2    c       0.000003      0.000013     -0.000057      0.000000
     83 O3    c       0.000261      0.000013      0.000370      0.000000
     84 O2    c       0.000003     -0.000114     -0.000209      0.000000
     85 O2    c       0.000081     -0.000037      0.000098      0.000000
     86 O2    c       0.000220     -0.000435     -0.000072      0.000000
     87 O2    c       0.001423     -0.000069      0.000665      0.000000
     88 O2    c      -0.000008     -0.000185     -0.000054      0.000000
     89 O2    c      -0.000017      0.000069      0.000152      0.000000
     90 O2    c      -0.000219      0.000020      0.000093      0.000000
     91 O2    c      -0.000073      0.000010      0.000290      0.000000
     92 O2    c       0.000077     -0.000054      0.000096      0.000000
     93 O2    c      -0.000142     -0.001060     -0.007068      0.000000
     94 O3    c       0.001530      0.000827     -0.000796      0.000000
     95 O2    c       0.000100      0.000172      0.002772      0.000000
     96 O2    c      -0.000041      0.000085     -0.000234      0.000000
     97 O3    c      -0.001342      0.001252      0.001346      0.000000
     98 O2    c      -0.000076      0.000134     -0.000103      0.000000
     99 O2    c      -0.000161     -0.000119     -0.000235      0.000000
    100 O2    c      -0.000029      0.000007      0.000140      0.000000
    101 O3    c       0.000297     -0.000399      0.000909      0.000000
    102 O2    c       0.000355     -0.000057     -0.000389      0.000000
    103 O2    c      -0.000043      0.000129      0.000009      0.000000
    104 O2    c      -0.000118      0.000043      0.000122      0.000000
    105 O2    c      -0.000055      0.000137     -0.000475      0.000000
    106 O2    c       0.000914     -0.001333      0.000522      0.000000
    107 O2    c      -0.000042      0.000022     -0.000143      0.000000
    108 O2    c      -0.000037     -0.000270     -0.000344      0.000000
    109 O2    c       0.000045     -0.000066      0.000123      0.000000
    110 O2    c      -0.000074      0.000028     -0.000234      0.000000
    111 O2    c       0.000081     -0.000155      0.000023      0.000000
    112 O2    c      -0.000012     -0.000081      0.000131      0.000000
    113 O2    c      -0.000210     -0.000140      0.002658      0.000000
    114 O2    c      -0.000039      0.000030     -0.000293      0.000000
    115 O3    c       0.000305      0.000073     -0.000151      0.000000
    116 O2    c       0.000004      0.000005     -0.000121      0.000000
    117 O2    c      -0.000002     -0.000020     -0.000057      0.000000
    118 O2    c      -0.000023      0.000031     -0.000154      0.000000
    119 O2    c       0.000060     -0.000088      0.000020      0.000000
    120 O2    c       0.000001      0.000085      0.000117      0.000000
    121 O2    c       0.000044     -0.000085      0.000001      0.000000
    122 O2    c      -0.000071     -0.000018      0.000502      0.000000
    123 O2    c      -0.000088      0.000092      0.000189      0.000000
    124 O2    c       0.000071     -0.000140     -0.000391      0.000000
    125 O2    c      -0.000050      0.000067      0.000090      0.000000
    126 O2    c       0.000103     -0.000043      0.000021      0.000000
    127 O3    c      -0.000387      0.000222     -0.000426      0.000000
    128 O2    c      -0.000027      0.000080     -0.000184      0.000000
    129 O2    c       0.000055     -0.000072     -0.000107      0.000000
    130 O2    c       0.000112      0.000003      0.000051      0.000000
    131 O2    c      -0.000165      0.000433      0.000319      0.000000
    132 O2    c      -0.000117     -0.000058      0.000069      0.000000
    133 O2    c      -0.000054     -0.000118      0.000000      0.000000
    134 O2    c       0.000000     -0.000052     -0.000233      0.000000
    135 O2    c       0.000032      0.000008     -0.000003      0.000000
    136 O2    c      -0.000142      0.000220     -0.000310      0.000000
    137 O2    c       0.000032     -0.000043      0.000011      0.000000
    138 O2    c      -0.000319     -0.000358     -0.000007      0.000000
    139 O2    c      -0.000053      0.000178     -0.000444      0.000000
    140 O2    c      -0.000014     -0.000028     -0.000109      0.000000
    141 O2    c      -0.000270      0.000264      0.000174      0.000000
    142 O2    c      -0.000013      0.000016     -0.000171      0.000000
    143 O2    c      -0.000442      0.000181     -0.000275      0.000000
    144 O2    c       0.000018     -0.000015      0.000151      0.000000
    145 O2    c       0.000056     -0.000026      0.000145      0.000000
    146 O2    c       0.000016     -0.000144     -0.000129      0.000000
    147 O2    c       0.000050     -0.000057     -0.000137      0.000000
    148 O2    c       0.000137     -0.000055      0.000012      0.000000
    149 O2    c       0.000028      0.000007      0.000055      0.000000
    150 O2    c       0.000179     -0.000097      0.000463      0.000000
    151 O2    c      -0.000071     -0.000198      0.001091      0.000000
    152 O2    c       0.000012     -0.000099     -0.000252      0.000000
    153 O2    c       0.000016      0.000058     -0.000174      0.000000
    154 O2    c      -0.000055     -0.000016     -0.000206      0.000000
    155 O2    c       0.000004      0.000130     -0.000264      0.000000
    156 O3    c       0.001043     -0.001301     -0.003238      0.000000
    157 O2    c       0.000033      0.000067      0.000110      0.000000
    158 O2    c      -0.000138      0.000222     -0.001198      0.000000
    159 O2    c       0.000035     -0.000072      0.000391      0.000000
    160 O2    c      -0.000294      0.000231      0.000360      0.000000
    161 O2    c       0.000034     -0.000042      0.000014      0.000000
    162 O2    c      -0.000089      0.000021     -0.000131      0.000000
    163 O3    c      -0.000322      0.000082      0.000604      0.000000
    164 O2    c       0.000075      0.000084     -0.000087      0.000000
    165 O2    c      -0.000114      0.000095     -0.000294      0.000000
    166 O2    c      -0.000049      0.000101     -0.000070      0.000000
    167 O2    c       0.000051      0.000087     -0.000115      0.000000
    168 O2    c       0.000183     -0.000075     -0.000022      0.000000
    169 O2    c      -0.000047      0.000060     -0.000215      0.000000
    170 O3    c       0.000606     -0.000473     -0.002786      0.000000
    171 O2    c      -0.000003     -0.000085     -0.000203      0.000000
    172 O2    c       0.000119     -0.000061     -0.000643      0.000000
    173 O2    c      -0.000007     -0.000003      0.000033      0.000000
    174 O2    c      -0.000055      0.000108      0.000047      0.000000
    175 O2    c       0.000007      0.000120      0.000185      0.000000
    176 O2    c       0.000003      0.000004     -0.000244      0.000000
    177 O3    c       0.000886     -0.000683      0.000695      0.000000
    178 O2    c       0.000020      0.000224     -0.000090      0.000000
    179 O2    c       0.000004      0.000095     -0.000508      0.000000
    180 O2    c       0.000009     -0.000034     -0.000215      0.000000
    181 F     c      -0.000080      0.000025     -0.000041      0.000000
    182 F     c       0.000009      0.000015     -0.000062      0.000000
    183 F     c      -0.000079     -0.000186      0.001011      0.000000
    184 F     c       0.000036     -0.000023     -0.000020      0.000000
    185 F     c      -0.000781      0.000243     -0.000690      0.000000
    186 F     c      -0.000003      0.000002     -0.000069      0.000000
    187 O2    s      -0.000103      0.000163     -0.001264      0.000000
    188 O2    s       0.000101     -0.000029      0.000056      0.000000
    189 O2    s      -0.000476      0.000213      0.001696      0.000000
    190 O2    s       0.000025     -0.000024      0.000105      0.000000
    191 O3    s      -0.000143     -0.000044      0.000403      0.000000
    192 O2    s       0.000088      0.000179     -0.000262      0.000000
    193 O2    s       0.000018      0.000071      0.000085      0.000000
    194 O2    s       0.000077     -0.000051      0.000056      0.000000
    195 O2    s       0.000580     -0.000619      0.000344      0.000000
    196 O2    s      -0.000247      0.000206      0.000168      0.000000
    197 O2    s      -0.000052      0.000034     -0.000024      0.000000
    198 O2    s       0.000049      0.000046      0.000113      0.000000
    199 O3    s       0.001576     -0.001091      0.006228      0.000000
    200 O2    s      -0.000010      0.000020      0.000048      0.000000
    201 O2    s       0.000039     -0.000175      0.000085      0.000000
    202 O2    s       0.000065     -0.000137     -0.000108      0.000000
    203 O2    s      -0.000002      0.000098      0.000150      0.000000
    204 O2    s       0.000181     -0.000104      0.000262      0.000000
    205 O2    s       0.000110      0.000260      0.000271      0.000000
    206 O2    s      -0.000096      0.000091      0.000331      0.000000
    207 O2    s      -0.000140      0.000237      0.000548      0.000000
    208 O2    s       0.000055     -0.000025      0.000186      0.000000
    209 O3    s      -0.001087      0.000462     -0.001071      0.000000
    210 O2    s      -0.000083      0.000195      0.000794      0.000000
    211 O2    s       0.000094     -0.000069     -0.000134      0.000000
    212 O2    s       0.000193     -0.000080     -0.000149      0.000000
    213 O2    s       0.000272     -0.000121      0.000689      0.000000
    214 O2    s       0.000362      0.000710     -0.000599      0.000000
    215 O2    s       0.000055     -0.000059     -0.000145      0.000000
    216 O2    s       0.000222     -0.000062     -0.000071      0.000000
    217 O2    s       0.000261     -0.000143      0.000816      0.000000
    218 O2    s      -0.000001      0.000037      0.000647      0.000000
    219 O2    s      -0.000481      0.000105     -0.002112      0.000000
    220 O3    s      -0.000151     -0.000313      0.000228      0.000000
    221 O2    s      -0.000019     -0.000154     -0.000632      0.000000
    222 O2    s       0.000149     -0.000106     -0.000002      0.000000
    223 O3    s      -0.000618     -0.000119     -0.001077      0.000000
    224 O2    s       0.000017     -0.000039      0.000141      0.000000
    225 O2    s      -0.000385      0.000179      0.000246      0.000000
    226 O2    s       0.000020      0.000011     -0.000041      0.000000
    227 O3    s      -0.000693     -0.000642     -0.001551      0.000000
    228 O2    s      -0.000204      0.000051      0.000108      0.000000
    229 O2    s       0.000037     -0.000038     -0.000122      0.000000
    230 O2    s      -0.000354      0.000176     -0.000476      0.000000
    231 O2    s      -0.000066     -0.000513      0.001127      0.000000
    232 O2    s       0.001245     -0.000543      0.000669      0.000000
    233 O2    s      -0.000094      0.000063     -0.000111      0.000000
    234 O2    s       0.000132     -0.000178      0.000283      0.000000
    235 O2    s      -0.000035     -0.000067      0.000387      0.000000
    236 O2    s       0.000147     -0.000059     -0.000155      0.000000
    237 O2    s      -0.000122      0.000263     -0.000547      0.000000
    238 O2    s      -0.000041      0.000163      0.000119      0.000000
    239 O2    s      -0.000240      0.000106     -0.001507      0.000000
    240 O2    s       0.000071     -0.000069      0.000157      0.000000
    241 O3    s      -0.000078     -0.000198     -0.000615      0.000000
    242 O2    s      -0.000064      0.000051      0.000233      0.000000
    243 O2    s       0.000018      0.000101     -0.000049      0.000000
    244 O2    s       0.000022     -0.000088     -0.000085      0.000000
    245 O2    s      -0.000195      0.000099      0.000078      0.000000
    246 O2    s       0.000030     -0.000054     -0.000001      0.000000
    247 O2    s       0.000047      0.000005     -0.000064      0.000000
    248 O2    s      -0.000156      0.000003     -0.000502      0.000000
    249 O2    s       0.000027     -0.000151     -0.000188      0.000000
    250 O2    s      -0.000142     -0.000135      0.001042      0.000000
    251 O2    s       0.000015     -0.000009      0.000006      0.000000
    252 O2    s      -0.000098      0.000069      0.000132      0.000000
    253 O3    s       0.000441     -0.000693     -0.000149      0.000000
    254 O2    s       0.000041     -0.000020      0.000125      0.000000
    255 O2    s      -0.000235      0.000155      0.000215      0.000000
    256 O2    s      -0.000011     -0.000052     -0.000109      0.000000
    257 O2    s      -0.000079     -0.000030     -0.000847      0.000000
    258 O2    s       0.000108      0.000001     -0.000080      0.000000
    259 O2    s       0.000134     -0.000038      0.000208      0.000000
    260 O2    s      -0.000063      0.000110      0.000338      0.000000
    261 O2    s      -0.000003     -0.000131      0.000051      0.000000
    262 O2    s       0.000037     -0.000075      0.000497      0.000000
    263 O2    s       0.000041     -0.000007     -0.000215      0.000000
    264 O2    s       0.000072      0.000133      0.000519      0.000000
    265 O2    s       0.000165      0.000343      0.001175      0.000000
    266 O2    s      -0.000014      0.000089      0.000269      0.000000
    267 O2    s       0.000179     -0.000055     -0.000090      0.000000
    268 O2    s       0.000099      0.000047      0.000206      0.000000
    269 O2    s       0.000212     -0.000060     -0.000200      0.000000
    270 O2    s      -0.000174      0.000112     -0.000204      0.000000
    271 O2    s      -0.000189      0.000009     -0.000182      0.000000
    272 O2    s      -0.000171      0.000543     -0.000016      0.000000
    273 O2    s      -0.000089      0.000114      0.000055      0.000000
    274 O2    s      -0.000110      0.000259      0.000087      0.000000
    275 O2    s      -0.000066     -0.000022     -0.000157      0.000000
    276 O2    s       0.000032     -0.000188     -0.001107      0.000000
    277 O2    s      -0.000193      0.000130     -0.000684      0.000000
    278 O2    s       0.000072      0.000085      0.000370      0.000000
    279 O2    s      -0.000120      0.000029      0.000102      0.000000
    280 O2    s       0.000017      0.000092     -0.000012      0.000000
    281 O2    s      -0.000037     -0.000207      0.000119      0.000000
    282 O3    s      -0.001417      0.001371      0.001145      0.000000
    283 O2    s       0.000030     -0.000177      0.000038      0.000000
    284 O2    s      -0.000081      0.000224     -0.000169      0.000000
    285 O2    s      -0.000428      0.000282     -0.000207      0.000000
    286 O2    s       0.000331     -0.000559      0.000165      0.000000
    287 O2    s       0.000061      0.000007      0.000120      0.000000
    288 O2    s      -0.000053      0.000099      0.000011      0.000000
    289 O3    s       0.000488     -0.000398     -0.001618      0.000000
    290 O2    s       0.000028     -0.000058      0.000029      0.000000
    291 O2    s       0.000076     -0.000079      0.000479      0.000000
    292 O2    s      -0.000066      0.000007      0.000128      0.000000
    293 O2    s       0.000151     -0.000076      0.000084      0.000000
    294 O2    s       0.000119     -0.000036     -0.000027      0.000000
    295 O2    s      -0.000068      0.000033      0.000329      0.000000
    296 O3    s      -0.000836      0.000450      0.002787      0.000000
    297 O2    s      -0.000053      0.000029      0.000349      0.000000
    298 O2    s       0.000710     -0.000296      0.000742      0.000000
    299 O2    s      -0.000005      0.000078     -0.000006      0.000000
    300 O2    s       0.000061      0.000054     -0.000221      0.000000
    301 O2    s       0.000056     -0.000090      0.000082      0.000000
    302 O2    s      -0.000004     -0.000049      0.000039      0.000000
    303 O3    s      -0.001059      0.001000     -0.000437      0.000000
    304 O2    s       0.000043     -0.000227     -0.000151      0.000000
    305 O2    s       0.000035      0.000010      0.000255      0.000000
    306 O2    s      -0.000065      0.000090     -0.000058      0.000000
    307 F     s       0.000100     -0.000045      0.000053      0.000000
    308 F     s      -0.000043      0.000017      0.000185      0.000000
    309 F     s       0.000913     -0.000596      0.000712      0.000000
    310 F     s      -0.000031      0.000076     -0.000100      0.000000
    311 F     s       0.001810     -0.001060     -0.000275      0.000000
    312 F     s       0.000044     -0.000004      0.000150      0.000000
--------------------------------------------------------------------------------
  Maximum abs         0.003083      0.002462      0.007232      0.000000
--------------------------------------------------------------------------------


  Time to end of optimisation =      33.7705 seconds


  Peak dynamic memory used =      19.13 MB 


  Timing analysis for GULP :

--------------------------------------------------------------------------------
  Task / Subroutine                                          Time (Seconds)
--------------------------------------------------------------------------------
  Calculation of reciprocal space energy and derivatives          0.9896
  Calculation of real space energy and derivatives               28.9408
  Calculation of three-body energy and derivatives                3.2832
  Calculation of matrix inversion                                 0.3840
--------------------------------------------------------------------------------
  Total CPU time                                                 33.7705
--------------------------------------------------------------------------------


  Dump file written as out.res                                                 
  CIF file written as out.cif                                                 


  Job Finished at 08:31.23 29th November   2016                               

