********************************************************************************
*                       GENERAL UTILITY LATTICE PROGRAM                        *
*                                 Julian Gale                                  *
*                      Nanochemistry Research Institute                        *
*                           Department of Chemistry                            *
*                    Curtin University, Western Australia                      *
********************************************************************************
* Version = 4.2.0 * Last modified =  20th January 2014                         *
********************************************************************************
*  optimise     - perform optimisation run                                     *
*  conp         - constant pressure calculation                                *
*  qok          - running with non charge neutral cell is OK                   *
********************************************************************************

  Job Started  at 03:03.55 29th November   2016                               

  Number of CPUs =     1


  Total number of configurations input =   1

********************************************************************************
*  Input for Configuration =   1                                               *
********************************************************************************

  Formula = Si57Ge3O120F6                                               

  Number of irreducible atoms/shells =     312


  Total number atoms/shells =     312

  Dimensionality = 3               :  Bulk   


  Charge on solid   =  -6.000000 =>neutralising background added


  Cartesian lattice vectors (Angstroms) :

       11.968810    0.000000    0.000000
       -5.890795   10.380283    0.000000
       -0.244336    0.232476   29.381517

  Cell parameters (Angstroms/Degrees):

  a =      11.9688    alpha =  89.3706
  b =      11.9353    beta  =  90.4764
  c =      29.3835    gamma = 119.5748

  Initial cell volume =        3650.349124 Angs**3

  Temperature of configuration =  0.000     K 

  Pressure of configuration =         0.000 GPa 

  Fractional coordinates of asymmetric unit :

--------------------------------------------------------------------------------
   No.  Atomic       x           y          z         Charge      Occupancy
        Label      (Frac)      (Frac)     (Frac)        (e)         (Frac)  
--------------------------------------------------------------------------------
      1 Si    c    0.699600    0.375700    0.033890     4.00000    1.000000    
      2 Si    c    0.625182 *  0.318113 *  0.367551 *   4.00000    1.000000    
      3 Si    c    0.672010 *  0.300065 *  0.698629 *   4.00000    1.000000    
      4 Si    c    0.303039 *  0.612132 *  0.533813 *   4.00000    1.000000    
      5 Si    c    0.386274 *  0.678345 *  0.866178 *   4.00000    1.000000    
      6 Si    c    0.332413 *  0.706080 *  0.198486 *   4.00000    1.000000    
      7 Si    c    0.385553 *  0.700743 *  0.299584 *   4.00000    1.000000    
      8 Si    c    0.322323 *  0.625065 *  0.968652 *   4.00000    1.000000    
      9 Si    c    0.311950 *  0.677961 *  0.636043 *   4.00000    1.000000    
     10 Si    c    0.622109 *  0.298730 *  0.799536 *   4.00000    1.000000    
     11 Si    c    0.678313 *  0.372706 *  0.468357 *   4.00000    1.000000    
     12 Si    c    0.710404 *  0.327913 *  0.135975 *   4.00000    1.000000    
     13 Ge    c    0.533305 *  0.431025 *  0.968046 *   4.00000    1.000000    
     14 Si    c    0.587482 *  0.109118 *  0.302558 *   4.00000    1.000000    
     15 Si    c    0.884645 *  0.466238 *  0.637253 *   4.00000    1.000000    
     16 Si    c    0.472838 *  0.575120 *  0.467508 *   4.00000    1.000000    
     17 Si    c    0.426810 *  0.890368 *  0.799480 *   4.00000    1.000000    
     18 Si    c    0.120187 *  0.536448 *  0.133494 *   4.00000    1.000000    
     19 Si    c    0.421368 *  0.525889 *  0.365431 *   4.00000    1.000000    
     20 Si    c    0.108310 *  0.583537 *  0.031949 *   4.00000    1.000000    
     21 Si    c    0.480994 *  0.895738 *  0.698184 *   4.00000    1.000000    
     22 Si    c    0.596989 *  0.470568 *  0.867574 *   4.00000    1.000000    
     23 Si    c    0.886798 *  0.406353 *  0.534433 *   4.00000    1.000000    
     24 Si    c    0.537166 *  0.116258 *  0.200566 *   4.00000    1.000000    
     25 Si    c    0.309820 *  0.397146 *  0.852139 *   4.00000    1.000000    
     26 Si    c    0.610219 *  0.907533 *  0.184824 *   4.00000    1.000000    
     27 Si    c    0.098796 *  0.690272 *  0.518826 *   4.00000    1.000000    
     28 Si    c    0.701998 *  0.596888 *  0.352065 *   4.00000    1.000000    
     29 Si    c    0.397628 *  0.097178 *  0.684409 *   4.00000    1.000000    
     30 Si    c    0.904385 *  0.301926 *  0.019690 *   4.00000    1.000000    
     31 Si    c    0.400629 *  0.294219 *  0.482615 *   4.00000    1.000000    
     32 Si    c    0.910250 *  0.605725 *  0.148586 *   4.00000    1.000000    
     33 Si    c    0.704759 *  0.099744 *  0.813826 *   4.00000    1.000000    
     34 Ge    c    0.606822 *  0.705619 *  0.987574 *   4.00000    1.000000    
     35 Ge    c    0.100882 *  0.408749 *  0.643612 *   4.00000    1.000000    
     36 Si    c    0.308410 *  0.901448 *  0.315668 *   4.00000    1.000000    
     37 Si    c    0.253348 *  0.338610 *  0.954787 *   4.00000    1.000000    
     38 Si    c    0.665157 *  0.908269 *  0.286058 *   4.00000    1.000000    
     39 Si    c    0.093371 *  0.746274 *  0.620537 *   4.00000    1.000000    
     40 Si    c    0.751023 *  0.653611 *  0.452990 *   4.00000    1.000000    
     41 Si    c    0.343198 *  0.088544 *  0.785436 *   4.00000    1.000000    
     42 Si    c    0.920659 *  0.258185 *  0.120802 *   4.00000    1.000000    
     43 Si    c    0.343991 *  0.246314 *  0.381422 *   4.00000    1.000000    
     44 Si    c    0.906207 *  0.659168 *  0.047388 *   4.00000    1.000000    
     45 Si    c    0.757658 *  0.098479 *  0.712712 *   4.00000    1.000000    
     46 Si    c    0.673631 *  0.751990 *  0.884228 *   4.00000    1.000000    
     47 Si    c    0.090034 *  0.325189 *  0.547882 *   4.00000    1.000000    
     48 Si    c    0.259671 *  0.914992 *  0.214759 *   4.00000    1.000000    
     49 Si    c    0.971080 *  0.124077 *  0.968028 *   4.00000    1.000000    
     50 Si    c    0.883420 *  0.845348 *  0.301747 *   4.00000    1.000000    
     51 Si    c    0.148771 *  0.026073 *  0.634410 *   4.00000    1.000000    
     52 Si    c    0.030398 *  0.869948 *  0.466990 *   4.00000    1.000000    
     53 Si    c    0.126441 *  0.151228 *  0.800496 *   4.00000    1.000000    
     54 Si    c    0.861236 *  0.979829 *  0.136350 *   4.00000    1.000000    
     55 Si    c    0.127199 *  0.967025 *  0.366345 *   4.00000    1.000000    
     56 Si    c    0.854989 *  0.889057 *  0.035708 *   4.00000    1.000000    
     57 Si    c    0.038131 *  0.159236 *  0.698299 *   4.00000    1.000000    
     58 Si    c    0.884307 *  0.031688 *  0.866192 *   4.00000    1.000000    
     59 Si    c    0.152726 *  0.112662 *  0.531719 *   4.00000    1.000000    
     60 Si    c    0.979628 *  0.851777 *  0.200874 *   4.00000    1.000000    
     61 O2    c    0.939669 *  0.005974 *  0.001502 *   0.87073    1.000000    
     62 O2    c    0.003789 *  0.925443 *  0.334752 *   0.87073    1.000000    
     63 O2    c    0.069350 *  0.065632 *  0.667603 *   0.87073    1.000000    
     64 O2    c    0.074624 *  0.989032 *  0.500338 *   0.87073    1.000000    
     65 O2    c    0.008499 *  0.075412 *  0.834914 *   0.87073    1.000000    
     66 O2    c    0.936821 *  0.936587 *  0.170957 *   0.87073    1.000000    
     67 O2    c    0.346069 *  0.575872 *  0.332256 *   0.87073    1.000000    
     68 O2    c    0.438853 *  0.774889 *  0.664406 *   0.87073    1.000000    
     69 O2    c    0.228931 *  0.659387 *  0.997457 *   0.87073    1.000000    
     70 O2    c    0.665691 *  0.424551 *  0.830575 *   0.87073    1.000000    
     71 O2    c    0.588251 *  0.244225 *  0.169142 *   0.87073    1.000000    
     72 O2    c    0.762726 *  0.333409 *  0.501654 *   0.87073    1.000000    
     73 O3    c    0.579271 *  0.337347 *  0.002758 *   1.33043    1.000000    
     74 O2    c    0.753768 *  0.424620 *  0.665838 *   0.87073    1.000000    
     75 O2    c    0.663718 *  0.232955 *  0.335523 *   0.87073    1.000000    
     76 O2    c    0.423096 *  0.650731 *  0.500134 *   0.87073    1.000000    
     77 O2    c    0.248232 *  0.586130 *  0.165019 *   0.87073    1.000000    
     78 O2    c    0.352148 *  0.763930 *  0.832101 *   0.87073    1.000000    
     79 O2    c    0.122445 *  0.218436 *  0.973021 *   0.87073    1.000000    
     80 O2    c    0.791635 *  0.908016 *  0.306311 *   0.87073    1.000000    
     81 O2    c    0.091801 *  0.871783 *  0.639641 *   0.87073    1.000000    
     82 O2    c    0.876870 *  0.780657 *  0.472438 *   0.87073    1.000000    
     83 O2    c    0.216247 *  0.085581 *  0.805901 *   0.87073    1.000000    
     84 O2    c    0.922619 *  0.133172 *  0.142272 *   0.87073    1.000000    
     85 O2    c    0.218078 *  0.121224 *  0.361204 *   0.87073    1.000000    
     86 O2    c    0.899463 *  0.782555 *  0.027098 *   0.87073    1.000000    
     87 O2    c    0.883621 *  0.101873 *  0.692179 *   0.87073    1.000000    
     88 O2    c    0.793385 *  0.877904 *  0.860625 *   0.87073    1.000000    
     89 O2    c    0.092199 *  0.205506 *  0.522465 *   0.87073    1.000000    
     90 O2    c    0.133190 *  0.915638 *  0.194896 *   0.87073    1.000000    
     91 O2    c    0.940339 *  0.858289 *  0.252098 *   0.87073    1.000000    
     92 O2    c    0.133526 *  0.061448 *  0.582970 *   0.87073    1.000000    
     93 O2    c    0.931568 *  0.070528 *  0.917438 *   0.87073    1.000000    
     94 O2    c    0.071010 *  0.139171 *  0.750347 *   0.87073    1.000000    
     95 O2    c    0.884791 *  0.943239 *  0.086642 *   0.87073    1.000000    
     96 O2    c    0.074069 *  0.925643 *  0.416959 *   0.87073    1.000000    
     97 O2    c    0.898504 *  0.202692 *  0.980978 *   0.87073    1.000000    
     98 O2    c    0.801031 *  0.693634 *  0.314006 *   0.87073    1.000000    
     99 O2    c    0.300380 *  0.097232 *  0.645722 *   0.87073    1.000000    
    100 O2    c    0.097350 *  0.784075 *  0.479177 *   0.87073    1.000000    
    101 O2    c    0.214029 *  0.302381 *  0.813315 *   0.87073    1.000000    
    102 O2    c    0.708327 *  0.909643 *  0.146426 *   0.87073    1.000000    
    103 O2    c    0.209387 *  0.897660 *  0.354144 *   0.87073    1.000000    
    104 O3    c    0.705923 *  0.826701 *  0.025775 *   1.33043    1.000000    
    105 O3    c    0.111794 *  0.305161 *  0.686009 *   1.33043    1.000000    
    106 O2    c    0.803423 *  0.102194 *  0.852442 *   0.87073    1.000000    
    107 O2    c    0.304780 *  0.193518 *  0.520728 *   0.87073    1.000000    
    108 O2    c    0.909769 *  0.702357 *  0.187011 *   0.87073    1.000000    
    109 O2    c    0.330680 *  0.645891 *  0.248894 *   0.87073    1.000000    
    110 O2    c    0.357257 *  0.668163 *  0.584126 *   0.87073    1.000000    
    111 O2    c    0.327902 *  0.673593 *  0.916105 *   0.87073    1.000000    
    112 O2    c    0.675619 *  0.355932 *  0.749033 *   0.87073    1.000000    
    113 O2    c    0.651986 *  0.326935 *  0.086098 *   0.87073    1.000000    
    114 O2    c    0.680329 *  0.316012 *  0.418362 *   0.87073    1.000000    
    115 O3    c    0.366290 *  0.319743 *  0.974200 *   1.33043    1.000000    
    116 O2    c    0.674736 *  0.039460 *  0.305483 *   0.87073    1.000000    
    117 O2    c    0.961312 *  0.623530 *  0.637635 *   0.87073    1.000000    
    118 O2    c    0.628390 *  0.662705 *  0.471505 *   0.87073    1.000000    
    119 O2    c    0.337810 *  0.957479 *  0.804178 *   0.87073    1.000000    
    120 O2    c    0.053141 *  0.380528 *  0.138476 *   0.87073    1.000000    
    121 O2    c    0.334302 *  0.369846 *  0.363108 *   0.87073    1.000000    
    122 O2    c    0.040254 *  0.672180 *  0.029273 *   0.87073    1.000000    
    123 O2    c    0.636045 *  0.964304 *  0.695766 *   0.87073    1.000000    
    124 O2    c    0.681372 *  0.628201 *  0.866124 *   0.87073    1.000000    
    125 O2    c    0.956840 *  0.320149 *  0.531665 *   0.87073    1.000000    
    126 O2    c    0.381409 *  0.048399 *  0.197147 *   0.87073    1.000000    
    127 O2    c    0.769933 *  0.299783 *  0.013736 *   0.87073    1.000000    
    128 O2    c    0.701036 *  0.461938 *  0.345396 *   0.87073    1.000000    
    129 O2    c    0.528513 *  0.232689 *  0.676926 *   0.87073    1.000000    
    130 O2    c    0.230413 *  0.686173 *  0.513427 *   0.87073    1.000000    
    131 O2    c    0.315474 *  0.534581 *  0.845322 *   0.87073    1.000000    
    132 O2    c    0.476185 *  0.774893 *  0.176846 *   0.87073    1.000000    
    133 O2    c    0.309545 *  0.767195 *  0.322621 *   0.87073    1.000000    
    134 O3    c    0.461752 *  0.705901 *  0.990686 *   1.33043    1.000000    
    135 O3    c    0.250820 *  0.541854 *  0.660577 *   1.33043    1.000000    
    136 O2    c    0.696816 *  0.229244 *  0.822185 *   0.87073    1.000000    
    137 O2    c    0.536098 *  0.297231 *  0.490948 *   0.87073    1.000000    
    138 O2    c    0.780053 *  0.470868 *  0.158271 *   0.87073    1.000000    
    139 O2    c    0.785473 *  0.532137 *  0.027564 *   0.87073    1.000000    
    140 O2    c    0.469876 *  0.246430 *  0.362319 *   0.87073    1.000000    
    141 O2    c    0.746727 *  0.218940 *  0.692658 *   0.87073    1.000000    
    142 O2    c    0.214795 *  0.457600 *  0.530480 *   0.87073    1.000000    
    143 O2    c    0.539871 *  0.741629 *  0.867417 *   0.87073    1.000000    
    144 O2    c    0.260018 *  0.790311 *  0.194514 *   0.87073    1.000000    
    145 O2    c    0.541018 *  0.780480 *  0.305204 *   0.87073    1.000000    
    146 O2    c    0.262184 *  0.470771 *  0.972954 *   0.87073    1.000000    
    147 O2    c    0.218432 *  0.742053 *  0.638409 *   0.87073    1.000000    
    148 O2    c    0.466473 *  0.216947 *  0.804556 *   0.87073    1.000000    
    149 O2    c    0.754668 *  0.528936 *  0.473171 *   0.87073    1.000000    
    150 O2    c    0.793923 *  0.254768 *  0.140851 *   0.87073    1.000000    
    151 O2    c    0.243140 *  0.330941 *  0.899647 *   0.87073    1.000000    
    152 O2    c    0.683246 *  0.908926 *  0.231649 *   0.87073    1.000000    
    153 O2    c    0.094813 *  0.756678 *  0.565682 *   0.87073    1.000000    
    154 O2    c    0.770357 *  0.671342 *  0.398627 *   0.87073    1.000000    
    155 O2    c    0.322607 *  0.089138 *  0.731000 *   0.87073    1.000000    
    156 O2    c    0.916372 *  0.235245 *  0.066512 *   0.87073    1.000000    
    157 O2    c    0.327489 *  0.225694 *  0.435877 *   0.87073    1.000000    
    158 O2    c    0.906098 *  0.676739 *  0.101941 *   0.87073    1.000000    
    159 O2    c    0.776741 *  0.101812 *  0.767308 *   0.87073    1.000000    
    160 O3    c    0.693750 *  0.775804 *  0.937324 *   1.33043    1.000000    
    161 O3    c    0.093577 *  0.299317 *  0.600591 *   1.33043    1.000000    
    162 O2    c    0.239490 *  0.910044 *  0.269244 *   0.87073    1.000000    
    163 O1    c    0.601055 *  0.567325 *  0.004047 *   1.73396    1.000000    
    164 O2    c    0.446772 *  0.025665 *  0.325716 *   0.87073    1.000000    
    165 O3    c    0.960088 *  0.406363 *  0.663474 *   1.33043    1.000000    
    166 O2    c    0.413127 *  0.433486 *  0.491114 *   0.87073    1.000000    
    167 O2    c    0.568487 *  0.970319 *  0.822232 *   0.87073    1.000000    
    168 O2    c    0.039324 *  0.596872 *  0.156868 *   0.87073    1.000000    
    169 O2    c    0.562364 *  0.581837 *  0.342884 *   0.87073    1.000000    
    170 O2    c    0.027309 *  0.441778 *  0.009351 *   0.87073    1.000000    
    171 O2    c    0.417396 *  0.975196 *  0.674976 *   0.87073    1.000000    
    172 O2    c    0.451917 *  0.417673 *  0.847548 *   0.87073    1.000000    
    173 O2    c    0.978170 *  0.548487 *  0.513381 *   0.87073    1.000000    
    174 O2    c    0.593861 *  0.032466 *  0.177058 *   0.87073    1.000000    
    175 O2    c    0.588207 *  0.165455 *  0.251947 *   0.87073    1.000000    
    176 O2    c    0.839956 *  0.411946 *  0.585405 *   0.87073    1.000000    
    177 O3    c    0.602915 *  0.415081 *  0.916207 *   1.33043    1.000000    
    178 O2    c    0.424884 *  0.837142 *  0.748584 *   0.87073    1.000000    
    179 O2    c    0.170423 *  0.587153 *  0.081956 *   0.87073    1.000000    
    180 O2    c    0.421108 *  0.578270 *  0.416431 *   0.87073    1.000000    
    181 F     c    0.459109 *  0.904567 *  0.251520 *   0.56000    1.000000    
    182 F     c    0.098023 *  0.513573 *  0.595026 *   0.56000    1.000000    
    183 F     c    0.485550 *  0.538294 *  0.930793 *   0.56000    1.000000    
    184 F     c    0.547400 *  0.095666 *  0.749686 *   0.56000    1.000000    
    185 F     c    0.914776 *  0.457358 *  0.085183 *   0.56000    1.000000    
    186 F     c    0.552541 *  0.447541 *  0.418719 *   0.56000    1.000000    
    187 O2    s    0.933891 *  0.006430 *  0.001488 *  -2.87073    1.000000    
    188 O2    s    0.004328 *  0.921228 *  0.334646 *  -2.87073    1.000000    
    189 O2    s    0.075113 *  0.070773 *  0.667011 *  -2.87073    1.000000    
    190 O2    s    0.078376 *  0.989321 *  0.500055 *  -2.87073    1.000000    
    191 O2    s    0.007755 *  0.078933 *  0.834586 *  -2.87073    1.000000    
    192 O2    s    0.933150 *  0.931801 *  0.170455 *  -2.87073    1.000000    
    193 O2    s    0.357911 *  0.583331 *  0.332384 *  -2.87073    1.000000    
    194 O2    s    0.429797 *  0.777164 *  0.664887 *  -2.87073    1.000000    
    195 O2    s    0.226529 *  0.648077 *  0.997907 *  -2.87073    1.000000    
    196 O2    s    0.654058 *  0.416056 *  0.831099 *  -2.87073    1.000000    
    197 O2    s    0.595305 *  0.239334 *  0.169060 *  -2.87073    1.000000    
    198 O2    s    0.767175 *  0.345121 *  0.501700 *  -2.87073    1.000000    
    199 O3    s    0.589142 *  0.347881 *  0.003760 *  -3.33043    1.000000    
    200 O2    s    0.758675 *  0.416255 *  0.666271 *  -2.87073    1.000000    
    201 O2    s    0.651929 *  0.229166 *  0.335501 *  -2.87073    1.000000    
    202 O2    s    0.415572 *  0.639007 *  0.500355 *  -2.87073    1.000000    
    203 O2    s    0.244052 *  0.593593 *  0.165317 *  -2.87073    1.000000    
    204 O2    s    0.363398 *  0.767620 *  0.832440 *  -2.87073    1.000000    
    205 O2    s    0.119825 *  0.221075 *  0.970476 *  -2.87073    1.000000    
    206 O2    s    0.788379 *  0.901321 *  0.303758 *  -2.87073    1.000000    
    207 O2    s    0.097878 *  0.874376 *  0.637087 *  -2.87073    1.000000    
    208 O2    s    0.880307 *  0.777134 *  0.469894 *  -2.87073    1.000000    
    209 O2    s    0.219976 *  0.092761 *  0.803249 *  -2.87073    1.000000    
    210 O2    s    0.915836 *  0.129604 *  0.139456 *  -2.87073    1.000000    
    211 O2    s    0.221483 *  0.117855 *  0.363809 *  -2.87073    1.000000    
    212 O2    s    0.895549 *  0.780633 *  0.030054 *  -2.87073    1.000000    
    213 O2    s    0.885485 *  0.107201 *  0.694971 *  -2.87073    1.000000    
    214 O2    s    0.790927 *  0.881448 *  0.863545 *  -2.87073    1.000000    
    215 O2    s    0.098369 *  0.207780 *  0.525940 *  -2.87073    1.000000    
    216 O2    s    0.130082 *  0.908816 *  0.197570 *  -2.87073    1.000000    
    217 O2    s    0.938211 *  0.856055 *  0.252029 *  -2.87073    1.000000    
    218 O2    s    0.137406 *  0.063258 *  0.582917 *  -2.87073    1.000000    
    219 O2    s    0.930662 *  0.072138 *  0.917316 *  -2.87073    1.000000    
    220 O2    s    0.073941 *  0.142606 *  0.750697 *  -2.87073    1.000000    
    221 O2    s    0.878854 *  0.941390 *  0.086635 *  -2.87073    1.000000    
    222 O2    s    0.075002 *  0.923865 *  0.417041 *  -2.87073    1.000000    
    223 O2    s    0.906848 *  0.204337 *  0.983515 *  -2.87073    1.000000    
    224 O2    s    0.799492 *  0.699648 *  0.316647 *  -2.87073    1.000000    
    225 O2    s    0.294319 *  0.089651 *  0.648528 *  -2.87073    1.000000    
    226 O2    s    0.090491 *  0.783048 *  0.482127 *  -2.87073    1.000000    
    227 O2    s    0.215027 *  0.296744 *  0.816050 *  -2.87073    1.000000    
    228 O2    s    0.714139 *  0.916668 *  0.149283 *  -2.87073    1.000000    
    229 O2    s    0.210621 *  0.905446 *  0.351567 *  -2.87073    1.000000    
    230 O3    s    0.713921 *  0.824235 *  0.023999 *  -3.33043    1.000000    
    231 O3    s    0.102725 *  0.295483 *  0.684605 *  -3.33043    1.000000    
    232 O2    s    0.801833 *  0.094425 *  0.849903 *  -2.87073    1.000000    
    233 O2    s    0.298601 *  0.195277 *  0.518004 *  -2.87073    1.000000    
    234 O2    s    0.917395 *  0.708659 *  0.184582 *  -2.87073    1.000000    
    235 O2    s    0.336472 *  0.657569 *  0.248993 *  -2.87073    1.000000    
    236 O2    s    0.347223 *  0.663239 *  0.583882 *  -2.87073    1.000000    
    237 O2    s    0.333427 *  0.669226 *  0.916123 *  -2.87073    1.000000    
    238 O2    s    0.669662 *  0.344091 *  0.748995 *  -2.87073    1.000000    
    239 O2    s    0.662951 *  0.331895 *  0.086240 *  -2.87073    1.000000    
    240 O2    s    0.674509 *  0.322047 *  0.418330 *  -2.87073    1.000000    
    241 O3    s    0.365927 *  0.329569 *  0.971674 *  -3.33043    1.000000    
    242 O2    s    0.664730 *  0.032934 *  0.303146 *  -2.87073    1.000000    
    243 O2    s    0.967674 *  0.620777 *  0.635765 *  -2.87073    1.000000    
    244 O2    s    0.625264 *  0.652780 *  0.469156 *  -2.87073    1.000000    
    245 O2    s    0.347582 *  0.964208 *  0.801732 *  -2.87073    1.000000    
    246 O2    s    0.046181 *  0.383745 *  0.136109 *  -2.87073    1.000000    
    247 O2    s    0.344265 *  0.372931 *  0.365281 *  -2.87073    1.000000    
    248 O2    s    0.033553 *  0.661683 *  0.031427 *  -2.87073    1.000000    
    249 O2    s    0.632366 *  0.971040 *  0.697804 *  -2.87073    1.000000    
    250 O2    s    0.672260 *  0.625569 *  0.868174 *  -2.87073    1.000000    
    251 O2    s    0.962923 *  0.329696 *  0.533606 *  -2.87073    1.000000    
    252 O2    s    0.384625 *  0.041407 *  0.199349 *  -2.87073    1.000000    
    253 O2    s    0.777620 *  0.307719 *  0.016482 *  -2.87073    1.000000    
    254 O2    s    0.693322 *  0.461348 *  0.348418 *  -2.87073    1.000000    
    255 O2    s    0.529545 *  0.225327 *  0.680009 *  -2.87073    1.000000    
    256 O2    s    0.223695 *  0.678985 *  0.516128 *  -2.87073    1.000000    
    257 O2    s    0.322282 *  0.535230 *  0.848225 *  -2.87073    1.000000    
    258 O2    s    0.475544 *  0.781733 *  0.179915 *  -2.87073    1.000000    
    259 O2    s    0.317212 *  0.774544 *  0.319498 *  -2.87073    1.000000    
    260 O3    s    0.458988 *  0.697721 *  0.988207 *  -3.33043    1.000000    
    261 O3    s    0.246775 *  0.546853 *  0.656785 *  -3.33043    1.000000    
    262 O2    s    0.689911 *  0.222590 *  0.818927 *  -2.87073    1.000000    
    263 O2    s    0.536540 *  0.304719 *  0.487706 *  -2.87073    1.000000    
    264 O2    s    0.786644 *  0.470424 *  0.154946 *  -2.87073    1.000000    
    265 O2    s    0.790518 *  0.530664 *  0.030342 *  -2.87073    1.000000    
    266 O2    s    0.472383 *  0.253990 *  0.364914 *  -2.87073    1.000000    
    267 O2    s    0.739911 *  0.214290 *  0.695412 *  -2.87073    1.000000    
    268 O2    s    0.211364 *  0.460613 *  0.532628 *  -2.87073    1.000000    
    269 O2    s    0.537212 *  0.735719 *  0.869058 *  -2.87073    1.000000    
    270 O2    s    0.267726 *  0.795179 *  0.197125 *  -2.87073    1.000000    
    271 O2    s    0.538253 *  0.786051 *  0.302592 *  -2.87073    1.000000    
    272 O2    s    0.267822 *  0.473460 *  0.970637 *  -2.87073    1.000000    
    273 O2    s    0.213816 *  0.736058 *  0.636228 *  -2.87073    1.000000    
    274 O2    s    0.469342 *  0.211575 *  0.802022 *  -2.87073    1.000000    
    275 O2    s    0.746383 *  0.526247 *  0.470548 *  -2.87073    1.000000    
    276 O2    s    0.798991 *  0.262863 *  0.138208 *  -2.87073    1.000000    
    277 O2    s    0.251417 *  0.338906 *  0.900154 *  -2.87073    1.000000    
    278 O2    s    0.673683 *  0.908709 *  0.232541 *  -2.87073    1.000000    
    279 O2    s    0.095090 *  0.748470 *  0.566428 *  -2.87073    1.000000    
    280 O2    s    0.761114 *  0.661638 *  0.399572 *  -2.87073    1.000000    
    281 O2    s    0.332649 *  0.089905 *  0.731867 *  -2.87073    1.000000    
    282 O2    s    0.915605 *  0.244550 *  0.067369 *  -2.87073    1.000000    
    283 O2    s    0.336918 *  0.235074 *  0.435004 *  -2.87073    1.000000    
    284 O2    s    0.906555 *  0.667413 *  0.101146 *  -2.87073    1.000000    
    285 O2    s    0.767083 *  0.101246 *  0.766476 *  -2.87073    1.000000    
    286 O3    s    0.685256 *  0.768076 *  0.935475 *  -3.33043    1.000000    
    287 O3    s    0.093661 *  0.309302 *  0.597892 *  -3.33043    1.000000    
    288 O2    s    0.248915 *  0.909676 *  0.268407 *  -2.87073    1.000000    
    289 O1    s    0.596849 *  0.569912 *  0.000334 *  -3.73396    1.000000    
    290 O2    s    0.446532 *  0.020833 *  0.322240 *  -2.87073    1.000000    
    291 O3    s    0.962692 *  0.412869 *  0.659370 *  -3.33043    1.000000    
    292 O2    s    0.418138 *  0.433316 *  0.487761 *  -2.87073    1.000000    
    293 O2    s    0.568084 *  0.975746 *  0.818960 *  -2.87073    1.000000    
    294 O2    s    0.033807 *  0.591386 *  0.153550 *  -2.87073    1.000000    
    295 O2    s    0.562721 *  0.577426 *  0.346250 *  -2.87073    1.000000    
    296 O2    s    0.022545 *  0.441627 *  0.012796 *  -2.87073    1.000000    
    297 O2    s    0.422034 *  0.980177 *  0.678421 *  -2.87073    1.000000    
    298 O2    s    0.450645 *  0.420813 *  0.850087 *  -2.87073    1.000000    
    299 O2    s    0.982015 *  0.549195 *  0.516215 *  -2.87073    1.000000    
    300 O2    s    0.589529 *  0.027513 *  0.180362 *  -2.87073    1.000000    
    301 O2    s    0.582837 *  0.154459 *  0.251931 *  -2.87073    1.000000    
    302 O2    s    0.849406 *  0.416706 *  0.585104 *  -2.87073    1.000000    
    303 O3    s    0.597638 *  0.422055 *  0.914604 *  -3.33043    1.000000    
    304 O2    s    0.430766 *  0.848605 *  0.748720 *  -2.87073    1.000000    
    305 O2    s    0.158979 *  0.581576 *  0.082154 *  -2.87073    1.000000    
    306 O2    s    0.426514 *  0.572592 *  0.416521 *  -2.87073    1.000000    
    307 F     s    0.458922 *  0.904179 *  0.251662 *  -1.56000    1.000000    
    308 F     s    0.098244 *  0.506793 *  0.598076 *  -1.56000    1.000000    
    309 F     s    0.489362 *  0.534231 *  0.933193 *  -1.56000    1.000000    
    310 F     s    0.547115 *  0.095662 *  0.749733 *  -1.56000    1.000000    
    311 F     s    0.915321 *  0.457517 *  0.085314 *  -1.56000    1.000000    
    312 F     s    0.552895 *  0.447468 *  0.418884 *  -1.56000    1.000000    
--------------------------------------------------------------------------------



********************************************************************************
*  General input information                                                   *
********************************************************************************

  Species output for all configurations : 

--------------------------------------------------------------------------------
  Species    Type    Atomic    Atomic    Charge       Radii (Angs)     Library
                     Number     Mass       (e)     Cova   Ionic  VDW   Symbol
--------------------------------------------------------------------------------
    Si       Core       14      28.09   4.000000   1.200  0.000  2.100          
    O1       Core        8      16.00   1.733957   0.730  0.000  1.360          
    O1       Shell       8       0.00  -3.733957   0.730  0.000  1.360          
    O2       Core        8      16.00   0.870733   0.730  0.000  1.360          
    O2       Shell       8       0.00  -2.870733   0.730  0.000  1.360          
    O3       Core        8      16.00   1.330431   0.730  0.000  1.360          
    O3       Shell       8       0.00  -3.330431   0.730  0.000  1.360          
    F        Core        9      19.00   0.560000   0.710  0.000  1.300          
    F        Shell       9       0.00  -1.560000   0.710  0.000  1.300          
    Ge       Core       32      72.61   4.000000   1.170  0.000  1.750          
--------------------------------------------------------------------------------


  Lattice summation method               =    Ewald          (3-D)
                                         =    Parry          (2-D)
                                         =    Saunders et al (1-D)
  Accuracy factor for lattice sums       =   12.000


  Time limit = Infinity

  Maximum range for interatomic potentials =        16.000000 Angstroms

  Taper potentials to zero over   1.0000 Angstroms using polynomial

  General interatomic potentials :

--------------------------------------------------------------------------------
Atom  Types   Potential         A         B         C         D     Cutoffs(Ang)
  1     2                                                            Min    Max 
--------------------------------------------------------------------------------
Si   c O1   s Buckingham    0.132E+04 0.318      10.1      0.00     0.000 16.000
Si   c O2   s Buckingham    0.132E+04 0.318      10.1      0.00     0.000 16.000
Si   c O3   s Buckingham    0.132E+04 0.318      10.1      0.00     0.000 16.000
Ge   c O1   s Buckingham    0.150E+04 0.326      16.8      0.00     0.000 16.000
Ge   c O2   s Buckingham    0.150E+04 0.326      16.8      0.00     0.000 16.000
Ge   c O3   s Buckingham    0.150E+04 0.326      16.8      0.00     0.000 16.000
O1   s O1   s Buckingham    0.228E+05 0.149      10.9      0.00     0.000 16.000
O1   s O2   s Buckingham    0.228E+05 0.149      10.9      0.00     0.000 16.000
O1   s O3   s Buckingham    0.228E+05 0.149      10.9      0.00     0.000 16.000
O2   s O2   s Buckingham    0.228E+05 0.149      10.9      0.00     0.000 16.000
O2   s O3   s Buckingham    0.228E+05 0.149      10.9      0.00     0.000 16.000
O3   s O3   s Buckingham    0.228E+05 0.149      10.9      0.00     0.000 16.000
Si   c F    s Buckingham     977.     0.282      0.00      0.00     0.000 16.000
Ge   c F    s Buckingham     681.     0.320      0.00      0.00     0.000 16.000
F    s F    s Buckingham     540.     0.262      0.00      0.00     0.000 16.000
O1   s F    s Buckingham    0.168E+04 0.268      0.00      0.00     0.000 16.000
O2   s F    s Buckingham    0.168E+04 0.268      0.00      0.00     0.000 16.000
O3   s F    s Buckingham    0.168E+04 0.268      0.00      0.00     0.000 16.000
O2   c O2   s Spring (c-s)   76.0      0.00      0.00      0.00     0.000  0.800
O3   c O3   s Spring (c-s)   128.      0.00      0.00      0.00     0.000  0.800
O1   c O1   s Spring (c-s)   180.      0.00      0.00      0.00     0.000  0.800
F    c F    s Spring (c-s)   33.5      0.00      0.00      0.00     0.000  0.800
--------------------------------------------------------------------------------

  General Three-body potentials :

  Harmonic form:

--------------------------------------------------------------------------------
Atom    Atom    Atom           Force Constants            Theta     Cutoffs  
  1       2       3     (eVrad**-2/eVrad**-3/eVrad**-4)   (deg)  1-2  1-3  2-3
--------------------------------------------------------------------------------
Si    c O1    s O1    s  1.261        0.0000    0.0000   109.470 0.00 0.00 0.00
                                                                 1.90 1.90 3.50
Si    c O1    s O2    s  1.261        0.0000    0.0000   109.470 0.00 0.00 0.00
                                                                 1.90 1.90 3.50
Si    c O2    s O2    s  1.261        0.0000    0.0000   109.470 0.00 0.00 0.00
                                                                 1.90 1.90 3.50
--------------------------------------------------------------------------------

********************************************************************************
*  Output for configuration   1                                                *
********************************************************************************


  Components of energy : 

--------------------------------------------------------------------------------
  Interatomic potentials     =        2064.79416085 eV
  Three-body potentials      =           0.48580393 eV
  Monopole - monopole (real) =       -6611.89936142 eV
  Monopole - monopole (recip)=       -3173.54810971 eV
  Monopole - monopole (total)=       -9785.44747113 eV
  Neutralising energy        =          -6.46383821 eV
--------------------------------------------------------------------------------
  Total lattice energy       =       -7726.63134455 eV
--------------------------------------------------------------------------------
  Total lattice energy       =         -745501.8124 kJ/(mole unit cells)
--------------------------------------------------------------------------------


  Number of variables =      939

  Maximum number of calculations  =          1000
  Maximum Hessian update interval =            10
  Maximum step size               =   1.000000000
  Maximum parameter tolerance     =   0.000010000
  Maximum function  tolerance     =   0.000010000
  Maximum gradient  tolerance     =   0.001000000
  Maximum gradient  component     =   0.010000000

  Symmetry not applied to optimisation

  Cell parameters to be optimised using strains

  Newton-Raphson optimiser to be used

  BFGS hessian update to be used

  Dumpfile to be written after every cycle

  Start of bulk optimisation :

  Cycle:      0 Energy:     -7726.631345  Gnorm:      0.000494  CPU:    1.065
  ** Hessian calculated **
  Cycle:      1 Energy:     -7726.647223  Gnorm:      0.001777  CPU:    3.001
  Cycle:      2 Energy:     -7726.647314  Gnorm:      0.000145  CPU:    4.406


  **** Optimisation achieved ****


  Final energy =   -7726.64731740 eV
  Final Gnorm  =       0.00002505

  Components of energy : 

--------------------------------------------------------------------------------
  Interatomic potentials     =        2065.06535409 eV
  Three-body potentials      =           0.48854767 eV
  Monopole - monopole (real) =       -6611.07811418 eV
  Monopole - monopole (recip)=       -3174.65700777 eV
  Monopole - monopole (total)=       -9785.73512194 eV
  Neutralising energy        =          -6.46609722 eV
--------------------------------------------------------------------------------
  Total lattice energy       =       -7726.64731740 eV
--------------------------------------------------------------------------------
  Total lattice energy       =         -745503.3535 kJ/(mole unit cells)
--------------------------------------------------------------------------------

  Final fractional coordinates of atoms :

--------------------------------------------------------------------------------
   No.  Atomic        x           y          z          Radius
        Label       (Frac)      (Frac)     (Frac)       (Angs) 
--------------------------------------------------------------------------------
     1  Si    c     0.699600    0.375700    0.033890    0.000000
     2  Si    c     0.634436    0.317583    0.367570    0.000000
     3  Si    c     0.682278    0.303748    0.698605    0.000000
     4  Si    c     0.312029    0.612823    0.532730    0.000000
     5  Si    c     0.392890    0.678516    0.864865    0.000000
     6  Si    c     0.340254    0.707920    0.197046    0.000000
     7  Si    c     0.393044    0.699563    0.298148    0.000000
     8  Si    c     0.326081    0.627070    0.967202    0.000000
     9  Si    c     0.323621    0.680130    0.634900    0.000000
    10  Si    c     0.630283    0.299595    0.799433    0.000000
    11  Si    c     0.686921    0.372966    0.468365    0.000000
    12  Si    c     0.717450    0.330559    0.135919    0.000000
    13  Ge    c     0.534913    0.431925    0.967918    0.000000
    14  Si    c     0.595820    0.108289    0.302733    0.000000
    15  Si    c     0.896002    0.468955    0.637546    0.000000
    16  Si    c     0.480734    0.574954    0.466125    0.000000
    17  Si    c     0.435630    0.891035    0.797892    0.000000
    18  Si    c     0.127513    0.539561    0.131621    0.000000
    19  Si    c     0.429906    0.524983    0.363978    0.000000
    20  Si    c     0.110826    0.584305    0.030052    0.000000
    21  Si    c     0.491910    0.899098    0.696600    0.000000
    22  Si    c     0.602598    0.469397    0.867910    0.000000
    23  Si    c     0.895696    0.407569    0.534691    0.000000
    24  Si    c     0.546060    0.118579    0.200812    0.000000
    25  Si    c     0.315555    0.396536    0.851768    0.000000
    26  Si    c     0.618551    0.909697    0.184376    0.000000
    27  Si    c     0.107636    0.691350    0.518458    0.000000
    28  Si    c     0.710996    0.595999    0.351274    0.000000
    29  Si    c     0.408436    0.100921    0.683492    0.000000
    30  Si    c     0.905515    0.302709    0.018628    0.000000
    31  Si    c     0.408734    0.294207    0.481840    0.000000
    32  Si    c     0.917685    0.608657    0.147411    0.000000
    33  Si    c     0.713310    0.100533    0.812749    0.000000
    34  Ge    c     0.610218    0.707236    0.987575    0.000000
    35  Ge    c     0.112469    0.411225    0.643297    0.000000
    36  Si    c     0.316480    0.900380    0.315171    0.000000
    37  Si    c     0.255766    0.339684    0.954336    0.000000
    38  Si    c     0.673012    0.907331    0.285508    0.000000
    39  Si    c     0.104825    0.748708    0.620167    0.000000
    40  Si    c     0.759221    0.653579    0.452206    0.000000
    41  Si    c     0.351709    0.089454    0.784483    0.000000
    42  Si    c     0.927391    0.260893    0.119618    0.000000
    43  Si    c     0.352899    0.245528    0.380624    0.000000
    44  Si    c     0.908530    0.659322    0.046281    0.000000
    45  Si    c     0.768272    0.102072    0.711730    0.000000
    46  Si    c     0.679591    0.751475    0.884156    0.000000
    47  Si    c     0.099141    0.326205    0.547591    0.000000
    48  Si    c     0.268228    0.917097    0.214360    0.000000
    49  Si    c     0.973472    0.125290    0.967511    0.000000
    50  Si    c     0.891716    0.844794    0.301127    0.000000
    51  Si    c     0.159173    0.028331    0.633829    0.000000
    52  Si    c     0.038343    0.870303    0.466382    0.000000
    53  Si    c     0.133541    0.150186    0.800025    0.000000
    54  Si    c     0.869650    0.982906    0.135719    0.000000
    55  Si    c     0.135615    0.966244    0.365699    0.000000
    56  Si    c     0.858740    0.890230    0.035187    0.000000
    57  Si    c     0.048328    0.161274    0.697688    0.000000
    58  Si    c     0.891271    0.030860    0.865620    0.000000
    59  Si    c     0.160728    0.113018    0.531072    0.000000
    60  Si    c     0.988479    0.854926    0.200083    0.000000
    61  O2    c     0.942687    0.007400    0.001017    0.000000
    62  O2    c     0.012206    0.924958    0.334095    0.000000
    63  O2    c     0.079400    0.067422    0.667057    0.000000
    64  O2    c     0.082049    0.989513    0.499659    0.000000
    65  O2    c     0.015892    0.073221    0.834579    0.000000
    66  O2    c     0.946464    0.941066    0.170420    0.000000
    67  O2    c     0.354213    0.574021    0.330484    0.000000
    68  O2    c     0.451100    0.778683    0.662704    0.000000
    69  O2    c     0.230823    0.660530    0.995245    0.000000
    70  O2    c     0.672461    0.423913    0.831183    0.000000
    71  O2    c     0.597080    0.247396    0.169853    0.000000
    72  O2    c     0.771006    0.334313    0.502148    0.000000
    73  O3    c     0.578518    0.337187    0.003405    0.000000
    74  O2    c     0.765647    0.429067    0.666268    0.000000
    75  O2    c     0.672725    0.231405    0.335960    0.000000
    76  O2    c     0.430946    0.650951    0.498545    0.000000
    77  O2    c     0.256433    0.589680    0.162818    0.000000
    78  O2    c     0.360168    0.763828    0.830101    0.000000
    79  O2    c     0.124351    0.221317    0.972947    0.000000
    80  O2    c     0.798940    0.906301    0.305975    0.000000
    81  O2    c     0.104000    0.874401    0.639486    0.000000
    82  O2    c     0.884766    0.780906    0.471681    0.000000
    83  O2    c     0.224196    0.085277    0.804999    0.000000
    84  O2    c     0.930984    0.136472    0.140978    0.000000
    85  O2    c     0.227239    0.120310    0.360329    0.000000
    86  O2    c     0.900999    0.782337    0.025870    0.000000
    87  O2    c     0.894261    0.105925    0.690998    0.000000
    88  O2    c     0.800159    0.876887    0.860607    0.000000
    89  O2    c     0.100259    0.206079    0.522083    0.000000
    90  O2    c     0.142205    0.918850    0.194506    0.000000
    91  O2    c     0.948309    0.859459    0.251348    0.000000
    92  O2    c     0.141905    0.061561    0.582304    0.000000
    93  O2    c     0.937204    0.071170    0.916886    0.000000
    94  O2    c     0.078021    0.138646    0.749889    0.000000
    95  O2    c     0.891520    0.944193    0.086103    0.000000
    96  O2    c     0.082398    0.925847    0.416351    0.000000
    97  O2    c     0.898803    0.202432    0.979994    0.000000
    98  O2    c     0.810329    0.692766    0.313223    0.000000
    99  O2    c     0.311180    0.101320    0.644797    0.000000
   100  O2    c     0.105475    0.784651    0.478739    0.000000
   101  O2    c     0.220390    0.301314    0.812919    0.000000
   102  O2    c     0.716915    0.912685    0.145947    0.000000
   103  O2    c     0.217131    0.895888    0.353699    0.000000
   104  O3    c     0.709247    0.828606    0.025684    0.000000
   105  O3    c     0.123658    0.307476    0.685681    0.000000
   106  O2    c     0.811364    0.101924    0.851361    0.000000
   107  O2    c     0.312710    0.193695    0.519961    0.000000
   108  O2    c     0.918486    0.705953    0.185786    0.000000
   109  O2    c     0.338209    0.646135    0.247261    0.000000
   110  O2    c     0.367747    0.669505    0.582880    0.000000
   111  O2    c     0.332811    0.674501    0.914420    0.000000
   112  O2    c     0.684816    0.358624    0.749143    0.000000
   113  O2    c     0.655894    0.328311    0.086479    0.000000
   114  O2    c     0.689465    0.315897    0.418477    0.000000
   115  O3    c     0.367990    0.319992    0.974007    0.000000
   116  O2    c     0.682741    0.038194    0.305335    0.000000
   117  O2    c     0.973033    0.626273    0.637563    0.000000
   118  O2    c     0.636235    0.662651    0.470330    0.000000
   119  O2    c     0.346616    0.958094    0.802724    0.000000
   120  O2    c     0.060483    0.383627    0.136745    0.000000
   121  O2    c     0.343210    0.368841    0.361952    0.000000
   122  O2    c     0.042075    0.672385    0.027521    0.000000
   123  O2    c     0.646989    0.968169    0.694439    0.000000
   124  O2    c     0.686762    0.627117    0.866344    0.000000
   125  O2    c     0.965689    0.321302    0.531752    0.000000
   126  O2    c     0.390323    0.050802    0.197190    0.000000
   127  O2    c     0.770612    0.300163    0.013510    0.000000
   128  O2    c     0.710466    0.461046    0.345042    0.000000
   129  O2    c     0.539177    0.236990    0.676473    0.000000
   130  O2    c     0.238922    0.686770    0.512635    0.000000
   131  O2    c     0.322680    0.534497    0.844216    0.000000
   132  O2    c     0.484476    0.777494    0.175753    0.000000
   133  O2    c     0.316918    0.765508    0.321531    0.000000
   134  O3    c     0.465310    0.708469    0.989429    0.000000
   135  O3    c     0.263271    0.544385    0.659737    0.000000
   136  O2    c     0.705122    0.229722    0.821747    0.000000
   137  O2    c     0.544262    0.297527    0.490631    0.000000
   138  O2    c     0.788004    0.473916    0.157887    0.000000
   139  O2    c     0.786350    0.532161    0.027208    0.000000
   140  O2    c     0.479146    0.245562    0.361939    0.000000
   141  O2    c     0.757515    0.223170    0.692206    0.000000
   142  O2    c     0.223630    0.458236    0.529756    0.000000
   143  O2    c     0.546427    0.741787    0.866869    0.000000
   144  O2    c     0.268305    0.792685    0.193672    0.000000
   145  O2    c     0.548447    0.778919    0.304057    0.000000
   146  O2    c     0.266235    0.472961    0.972037    0.000000
   147  O2    c     0.230150    0.744267    0.637627    0.000000
   148  O2    c     0.474566    0.217418    0.804057    0.000000
   149  O2    c     0.762943    0.529279    0.472819    0.000000
   150  O2    c     0.801324    0.257598    0.140306    0.000000
   151  O2    c     0.246668    0.331375    0.899145    0.000000
   152  O2    c     0.691522    0.909494    0.231067    0.000000
   153  O2    c     0.105154    0.758726    0.565285    0.000000
   154  O2    c     0.779007    0.670840    0.397835    0.000000
   155  O2    c     0.332420    0.091574    0.730001    0.000000
   156  O2    c     0.920265    0.237051    0.065330    0.000000
   157  O2    c     0.335937    0.225211    0.435098    0.000000
   158  O2    c     0.911158    0.678683    0.100821    0.000000
   159  O2    c     0.786550    0.104061    0.766364    0.000000
   160  O3    c     0.698258    0.775231    0.937295    0.000000
   161  O3    c     0.104078    0.301045    0.600313    0.000000
   162  O2    c     0.247917    0.910731    0.268871    0.000000
   163  O1    c     0.601733    0.567911    0.004235    0.000000
   164  O2    c     0.454908    0.024054    0.325713    0.000000
   165  O3    c     0.972289    0.409605    0.663594    0.000000
   166  O2    c     0.420797    0.433492    0.489940    0.000000
   167  O2    c     0.577137    0.970627    0.820795    0.000000
   168  O2    c     0.047497    0.600647    0.155210    0.000000
   169  O2    c     0.571284    0.580668    0.341746    0.000000
   170  O2    c     0.028491    0.442297    0.007705    0.000000
   171  O2    c     0.428760    0.979369    0.673638    0.000000
   172  O2    c     0.457281    0.415531    0.847808    0.000000
   173  O2    c     0.986591    0.549609    0.513445    0.000000
   174  O2    c     0.603022    0.035324    0.177031    0.000000
   175  O2    c     0.596700    0.166126    0.252349    0.000000
   176  O2    c     0.850163    0.413690    0.585821    0.000000
   177  O3    c     0.607277    0.414731    0.916840    0.000000
   178  O2    c     0.434896    0.839498    0.746829    0.000000
   179  O2    c     0.175315    0.589042    0.079770    0.000000
   180  O2    c     0.429392    0.577753    0.414917    0.000000
   181  F     c     0.467414    0.904981    0.250979    0.000000
   182  F     c     0.108791    0.515442    0.594688    0.000000
   183  F     c     0.488968    0.537709    0.930174    0.000000
   184  F     c     0.557807    0.098898    0.748724    0.000000
   185  F     c     0.919635    0.459689    0.084242    0.000000
   186  F     c     0.561239    0.446959    0.417941    0.000000
   187  O2    s     0.936885    0.007777    0.001002    0.000000
   188  O2    s     0.012721    0.920695    0.333993    0.000000
   189  O2    s     0.085213    0.072647    0.666456    0.000000
   190  O2    s     0.085926    0.989778    0.499389    0.000000
   191  O2    s     0.015081    0.076998    0.834209    0.000000
   192  O2    s     0.942584    0.936003    0.169880    0.000000
   193  O2    s     0.365992    0.581623    0.330679    0.000000
   194  O2    s     0.441841    0.780728    0.663256    0.000000
   195  O2    s     0.228750    0.649318    0.995792    0.000000
   196  O2    s     0.660851    0.415525    0.831608    0.000000
   197  O2    s     0.603961    0.242342    0.169647    0.000000
   198  O2    s     0.775532    0.345985    0.502113    0.000000
   199  O3    s     0.588893    0.347798    0.004368    0.000000
   200  O2    s     0.770319    0.420446    0.666644    0.000000
   201  O2    s     0.660891    0.227790    0.335864    0.000000
   202  O2    s     0.423529    0.639225    0.498841    0.000000
   203  O2    s     0.252150    0.596903    0.163232    0.000000
   204  O2    s     0.371368    0.767642    0.830551    0.000000
   205  O2    s     0.121892    0.223633    0.970297    0.000000
   206  O2    s     0.795834    0.899803    0.303366    0.000000
   207  O2    s     0.109817    0.876938    0.636862    0.000000
   208  O2    s     0.888247    0.777372    0.469149    0.000000
   209  O2    s     0.227893    0.092502    0.802385    0.000000
   210  O2    s     0.924030    0.132785    0.138247    0.000000
   211  O2    s     0.230546    0.116973    0.362967    0.000000
   212  O2    s     0.897379    0.780638    0.028902    0.000000
   213  O2    s     0.896070    0.111007    0.693869    0.000000
   214  O2    s     0.797656    0.880519    0.863462    0.000000
   215  O2    s     0.106534    0.208366    0.525542    0.000000
   216  O2    s     0.139022    0.911902    0.197137    0.000000
   217  O2    s     0.946314    0.857251    0.251294    0.000000
   218  O2    s     0.145977    0.063647    0.582268    0.000000
   219  O2    s     0.936081    0.072683    0.916762    0.000000
   220  O2    s     0.081299    0.142298    0.750218    0.000000
   221  O2    s     0.885438    0.942594    0.086068    0.000000
   222  O2    s     0.083299    0.923978    0.416429    0.000000
   223  O2    s     0.907386    0.204263    0.982530    0.000000
   224  O2    s     0.808661    0.698793    0.315871    0.000000
   225  O2    s     0.305111    0.093540    0.647634    0.000000
   226  O2    s     0.098657    0.783650    0.481685    0.000000
   227  O2    s     0.221392    0.295705    0.815653    0.000000
   228  O2    s     0.722713    0.919653    0.148802    0.000000
   229  O2    s     0.218462    0.903829    0.351102    0.000000
   230  O3    s     0.717153    0.825984    0.023861    0.000000
   231  O3    s     0.114419    0.297803    0.684258    0.000000
   232  O2    s     0.809718    0.094157    0.848858    0.000000
   233  O2    s     0.306546    0.195459    0.517245    0.000000
   234  O2    s     0.926032    0.712185    0.183400    0.000000
   235  O2    s     0.343994    0.657764    0.247405    0.000000
   236  O2    s     0.357672    0.664597    0.582674    0.000000
   237  O2    s     0.338394    0.670172    0.914506    0.000000
   238  O2    s     0.678877    0.346732    0.749067    0.000000
   239  O2    s     0.666783    0.333272    0.086507    0.000000
   240  O2    s     0.683613    0.321932    0.418425    0.000000
   241  O3    s     0.367668    0.329947    0.971450    0.000000
   242  O2    s     0.672732    0.031733    0.302983    0.000000
   243  O2    s     0.979356    0.623502    0.635693    0.000000
   244  O2    s     0.633156    0.652706    0.467996    0.000000
   245  O2    s     0.356377    0.964874    0.800311    0.000000
   246  O2    s     0.053474    0.386822    0.134423    0.000000
   247  O2    s     0.353139    0.371971    0.364132    0.000000
   248  O2    s     0.035504    0.661929    0.029726    0.000000
   249  O2    s     0.643241    0.974825    0.696490    0.000000
   250  O2    s     0.677737    0.624578    0.868377    0.000000
   251  O2    s     0.971806    0.330852    0.533675    0.000000
   252  O2    s     0.393481    0.043737    0.199370    0.000000
   253  O2    s     0.778380    0.307983    0.016153    0.000000
   254  O2    s     0.702702    0.460512    0.348052    0.000000
   255  O2    s     0.540172    0.229515    0.679547    0.000000
   256  O2    s     0.232284    0.679633    0.515356    0.000000
   257  O2    s     0.329277    0.535131    0.847177    0.000000
   258  O2    s     0.483766    0.784188    0.178854    0.000000
   259  O2    s     0.324658    0.772955    0.318437    0.000000
   260  O3    s     0.462546    0.700190    0.987036    0.000000
   261  O3    s     0.259119    0.549357    0.655960    0.000000
   262  O2    s     0.698220    0.223164    0.818454    0.000000
   263  O2    s     0.544761    0.304987    0.487374    0.000000
   264  O2    s     0.794422    0.473379    0.154507    0.000000
   265  O2    s     0.791492    0.530776    0.029928    0.000000
   266  O2    s     0.481583    0.253160    0.364529    0.000000
   267  O2    s     0.750641    0.218373    0.694945    0.000000
   268  O2    s     0.220249    0.461312    0.531912    0.000000
   269  O2    s     0.543681    0.735797    0.868478    0.000000
   270  O2    s     0.276008    0.797441    0.196273    0.000000
   271  O2    s     0.545729    0.784599    0.301476    0.000000
   272  O2    s     0.271696    0.475543    0.969709    0.000000
   273  O2    s     0.225487    0.738287    0.635455    0.000000
   274  O2    s     0.477491    0.212125    0.801508    0.000000
   275  O2    s     0.754672    0.526522    0.470184    0.000000
   276  O2    s     0.806287    0.265659    0.137643    0.000000
   277  O2    s     0.255051    0.339279    0.899667    0.000000
   278  O2    s     0.681924    0.909282    0.231983    0.000000
   279  O2    s     0.105385    0.750457    0.566031    0.000000
   280  O2    s     0.769756    0.661151    0.398781    0.000000
   281  O2    s     0.342403    0.092310    0.730894    0.000000
   282  O2    s     0.919511    0.246322    0.066219    0.000000
   283  O2    s     0.345381    0.234613    0.434227    0.000000
   284  O2    s     0.911576    0.669262    0.100025    0.000000
   285  O2    s     0.776839    0.103483    0.765510    0.000000
   286  O3    s     0.689855    0.767690    0.935433    0.000000
   287  O3    s     0.104083    0.310975    0.597604    0.000000
   288  O2    s     0.257303    0.910326    0.268008    0.000000
   289  O1    s     0.597851    0.570716    0.000498    0.000000
   290  O2    s     0.454682    0.019361    0.322203    0.000000
   291  O3    s     0.974732    0.416002    0.659482    0.000000
   292  O2    s     0.425876    0.433297    0.486608    0.000000
   293  O2    s     0.576701    0.976117    0.817540    0.000000
   294  O2    s     0.041842    0.594994    0.151920    0.000000
   295  O2    s     0.571586    0.576313    0.345115    0.000000
   296  O2    s     0.023913    0.442257    0.011179    0.000000
   297  O2    s     0.433297    0.984185    0.677102    0.000000
   298  O2    s     0.456043    0.418928    0.850279    0.000000
   299  O2    s     0.990527    0.550318    0.516252    0.000000
   300  O2    s     0.598566    0.030238    0.180318    0.000000
   301  O2    s     0.591338    0.155134    0.252279    0.000000
   302  O2    s     0.859572    0.418467    0.585471    0.000000
   303  O3    s     0.602007    0.421702    0.915112    0.000000
   304  O2    s     0.440738    0.850897    0.747013    0.000000
   305  O2    s     0.163920    0.583478    0.080057    0.000000
   306  O2    s     0.434779    0.572085    0.415030    0.000000
   307  F     s     0.467236    0.904579    0.251123    0.000000
   308  F     s     0.109093    0.508668    0.597758    0.000000
   309  F     s     0.492736    0.533229    0.932684    0.000000
   310  F     s     0.557602    0.098999    0.748766    0.000000
   311  F     s     0.920213    0.459914    0.084388    0.000000
   312  F     s     0.561607    0.446872    0.418102    0.000000
--------------------------------------------------------------------------------

  Final Cartesian lattice vectors (Angstroms) :

       11.963266    0.001763   -0.002175
       -5.886537   10.376409    0.002108
       -0.249527    0.235310   29.372912


  Final cell parameters and derivatives :

--------------------------------------------------------------------------------
       a           11.963267 Angstrom     dE/de1(xx)    -0.003461 eV/strain
       b           11.929845 Angstrom     dE/de2(yy)    -0.003115 eV/strain
       c           29.374914 Angstrom     dE/de3(zz)    -0.005628 eV/strain
       alpha       89.350501 Degrees      dE/de4(yz)     0.000144 eV/strain
       beta        90.497055 Degrees      dE/de5(xz)    -0.000226 eV/strain
       gamma      119.557803 Degrees      dE/de6(xy)    -0.000119 eV/strain
--------------------------------------------------------------------------------

  Primitive cell volume =          3646.524582 Angs**3

  Density of cell =      1.754573 g/cm**3

  Non-primitive cell volume =          3646.524582 Angs**3


  Final internal derivatives :

--------------------------------------------------------------------------------
   No.  Atomic          a             b             c           Radius
        Label          (eV)          (eV)          (eV)        (eV/Angs)
--------------------------------------------------------------------------------
      1 Si    c       0.000000      0.000000      0.000000      0.000000
      2 Si    c      -0.000095      0.000110     -0.000599      0.000000
      3 Si    c       0.000206      0.000163     -0.000657      0.000000
      4 Si    c       0.000176     -0.000067     -0.000108      0.000000
      5 Si    c      -0.001071      0.000535     -0.000744      0.000000
      6 Si    c      -0.000086     -0.000234     -0.001203      0.000000
      7 Si    c      -0.000006     -0.000120      0.000127      0.000000
      8 Si    c      -0.000921      0.000440     -0.000369      0.000000
      9 Si    c       0.000264      0.000098      0.000736      0.000000
     10 Si    c       0.000119      0.000991      0.000718      0.000000
     11 Si    c       0.000029      0.000021      0.000439      0.000000
     12 Si    c      -0.001615      0.000696     -0.005688      0.000000
     13 Ge    c      -0.000595      0.001548     -0.001674      0.000000
     14 Si    c      -0.000080      0.000337     -0.000238      0.000000
     15 Si    c      -0.000482      0.000110      0.000915      0.000000
     16 Si    c      -0.000011      0.000008      0.000296      0.000000
     17 Si    c       0.000006     -0.000633     -0.000444      0.000000
     18 Si    c       0.000291      0.000082     -0.001887      0.000000
     19 Si    c      -0.000009     -0.000080     -0.000702      0.000000
     20 Si    c       0.000780     -0.000209      0.000330      0.000000
     21 Si    c      -0.000089     -0.000210     -0.000571      0.000000
     22 Si    c       0.001021     -0.000759      0.000790      0.000000
     23 Si    c      -0.000099      0.000053      0.000264      0.000000
     24 Si    c       0.000038      0.000395      0.000227      0.000000
     25 Si    c      -0.000669      0.000188     -0.000940      0.000000
     26 Si    c       0.000063     -0.000225      0.000760      0.000000
     27 Si    c      -0.000093      0.000052      0.000148      0.000000
     28 Si    c       0.000006     -0.000233     -0.000062      0.000000
     29 Si    c      -0.000053      0.000078      0.000107      0.000000
     30 Si    c       0.000182     -0.000595      0.003844      0.000000
     31 Si    c       0.000101      0.000016      0.000161      0.000000
     32 Si    c      -0.000931      0.000217     -0.002261      0.000000
     33 Si    c       0.000480      0.000125     -0.000234      0.000000
     34 Ge    c       0.001502     -0.001007      0.000609      0.000000
     35 Ge    c       0.000070      0.000033      0.000027      0.000000
     36 Si    c       0.000010      0.000011     -0.000831      0.000000
     37 Si    c       0.000203      0.000369     -0.002603      0.000000
     38 Si    c      -0.000061     -0.000069     -0.000626      0.000000
     39 Si    c      -0.000060     -0.000053      0.000076      0.000000
     40 Si    c      -0.000017     -0.000111      0.000202      0.000000
     41 Si    c      -0.000394      0.000013     -0.000894      0.000000
     42 Si    c      -0.000405     -0.000052     -0.002802      0.000000
     43 Si    c       0.000092      0.000089     -0.000380      0.000000
     44 Si    c      -0.000649     -0.000544      0.003078      0.000000
     45 Si    c      -0.000037      0.000130      0.000342      0.000000
     46 Si    c       0.000181     -0.000134      0.001759      0.000000
     47 Si    c       0.000042     -0.000020      0.000164      0.000000
     48 Si    c       0.000057      0.000114      0.000895      0.000000
     49 Si    c      -0.000349     -0.000234     -0.002800      0.000000
     50 Si    c       0.000109     -0.000002     -0.002233      0.000000
     51 Si    c       0.000399     -0.000269     -0.000724      0.000000
     52 Si    c       0.000035     -0.000057      0.000311      0.000000
     53 Si    c       0.000299     -0.000165      0.000554      0.000000
     54 Si    c       0.000381     -0.000375     -0.001595      0.000000
     55 Si    c       0.000112     -0.000014      0.000047      0.000000
     56 Si    c       0.000198     -0.000067      0.002201      0.000000
     57 Si    c      -0.000143      0.000363      0.002170      0.000000
     58 Si    c       0.000206      0.000373      0.001494      0.000000
     59 Si    c      -0.000065     -0.000001     -0.000171      0.000000
     60 Si    c       0.000021      0.000186      0.001095      0.000000
     61 O2    c       0.000066     -0.000029     -0.000107      0.000000
     62 O2    c       0.000065     -0.000002      0.000177      0.000000
     63 O2    c       0.000089     -0.000100     -0.000264      0.000000
     64 O2    c       0.000021      0.000005      0.000056      0.000000
     65 O2    c      -0.000639      0.000454      0.000160      0.000000
     66 O2    c      -0.000451      0.000111     -0.000623      0.000000
     67 O2    c       0.000176      0.000119      0.000207      0.000000
     68 O2    c      -0.000316      0.000165      0.000308      0.000000
     69 O2    c       0.000899     -0.000836     -0.000746      0.000000
     70 O2    c      -0.000344     -0.000137     -0.000476      0.000000
     71 O2    c       0.000546     -0.000108     -0.001169      0.000000
     72 O2    c      -0.000003      0.000087     -0.000193      0.000000
     73 O3    c      -0.001292      0.001631     -0.003971      0.000000
     74 O2    c       0.000473     -0.000521     -0.000255      0.000000
     75 O2    c      -0.000139     -0.000143     -0.000358      0.000000
     76 O2    c      -0.000099     -0.000023      0.000308      0.000000
     77 O2    c       0.000169      0.000640      0.002404      0.000000
     78 O2    c       0.000337     -0.000150      0.000939      0.000000
     79 O2    c       0.000081     -0.000022      0.000169      0.000000
     80 O2    c       0.000322     -0.000273     -0.000192      0.000000
     81 O2    c      -0.000113      0.000549     -0.000228      0.000000
     82 O2    c      -0.000010     -0.000015      0.000045      0.000000
     83 O2    c      -0.000335      0.000344     -0.000369      0.000000
     84 O2    c      -0.000157      0.000086     -0.000074      0.000000
     85 O2    c      -0.000044     -0.000145     -0.000008      0.000000
     86 O2    c      -0.000306      0.000495      0.000230      0.000000
     87 O2    c       0.000532     -0.000191      0.000283      0.000000
     88 O2    c      -0.000091     -0.000241      0.000131      0.000000
     89 O2    c      -0.000029      0.000070      0.000095      0.000000
     90 O2    c      -0.000145      0.000013      0.000232      0.000000
     91 O2    c      -0.000377      0.000038      0.002249      0.000000
     92 O2    c       0.000170     -0.000176      0.001929      0.000000
     93 O2    c      -0.000725      0.000641      0.001467      0.000000
     94 O2    c      -0.000418      0.000599     -0.004656      0.000000
     95 O2    c      -0.000618      0.000187     -0.000650      0.000000
     96 O2    c       0.000037      0.000012     -0.000573      0.000000
     97 O2    c       0.000781     -0.000623     -0.000667      0.000000
     98 O2    c      -0.000021      0.000275      0.000008      0.000000
     99 O2    c      -0.000542     -0.000112     -0.000070      0.000000
    100 O2    c       0.000000     -0.000012      0.000043      0.000000
    101 O2    c      -0.000033     -0.000191      0.000115      0.000000
    102 O2    c       0.000149     -0.000093     -0.000109      0.000000
    103 O2    c      -0.000134      0.000188      0.000083      0.000000
    104 O3    c      -0.000017     -0.000107     -0.000153      0.000000
    105 O3    c      -0.000118     -0.000931      0.000242      0.000000
    106 O2    c       0.000392     -0.000318      0.000256      0.000000
    107 O2    c       0.000005     -0.000022      0.000021      0.000000
    108 O2    c       0.000019     -0.000089     -0.000259      0.000000
    109 O2    c       0.000070      0.000164      0.000488      0.000000
    110 O2    c      -0.000065     -0.000045     -0.000298      0.000000
    111 O2    c       0.000145     -0.000193      0.000573      0.000000
    112 O2    c       0.000035     -0.000250      0.000508      0.000000
    113 O2    c       0.001989      0.000066     -0.002959      0.000000
    114 O2    c       0.000022     -0.000039      0.000074      0.000000
    115 O3    c      -0.000476     -0.000018      0.000329      0.000000
    116 O2    c       0.000068     -0.000123     -0.000014      0.000000
    117 O2    c       0.000067     -0.000085      0.000039      0.000000
    118 O2    c       0.000069     -0.000052     -0.000102      0.000000
    119 O2    c      -0.000186      0.000222     -0.000324      0.000000
    120 O2    c      -0.000118     -0.000217     -0.000014      0.000000
    121 O2    c       0.000093     -0.000002      0.000078      0.000000
    122 O2    c      -0.000306      0.000079      0.000254      0.000000
    123 O2    c      -0.000034      0.000032     -0.000063      0.000000
    124 O2    c      -0.000049      0.000416      0.000246      0.000000
    125 O2    c       0.000103     -0.000055      0.000074      0.000000
    126 O2    c      -0.000140     -0.000050      0.000281      0.000000
    127 O2    c       0.000634     -0.000497      0.000352      0.000000
    128 O2    c      -0.000111      0.000032      0.000264      0.000000
    129 O2    c       0.000226     -0.000009      0.000166      0.000000
    130 O2    c      -0.000016      0.000013      0.000011      0.000000
    131 O2    c      -0.000408      0.000785      0.000117      0.000000
    132 O2    c       0.000141      0.000143      0.000362      0.000000
    133 O2    c       0.000081      0.000055     -0.000010      0.000000
    134 O3    c      -0.002964      0.001335      0.000649      0.000000
    135 O3    c      -0.000142      0.000159     -0.000270      0.000000
    136 O2    c       0.000254     -0.000250     -0.000303      0.000000
    137 O2    c      -0.000105      0.000035     -0.000157      0.000000
    138 O2    c       0.000345      0.000303     -0.001027      0.000000
    139 O2    c       0.000599      0.000632      0.001357      0.000000
    140 O2    c      -0.000010      0.000106      0.000287      0.000000
    141 O2    c      -0.000046     -0.000146      0.000469      0.000000
    142 O2    c      -0.000017      0.000013      0.000064      0.000000
    143 O2    c       0.001479     -0.000322      0.000284      0.000000
    144 O2    c       0.000247     -0.000068      0.000264      0.000000
    145 O2    c       0.000160      0.000183     -0.000303      0.000000
    146 O2    c       0.000206     -0.000653     -0.000409      0.000000
    147 O2    c      -0.000079      0.000015     -0.000089      0.000000
    148 O2    c      -0.000143     -0.000027     -0.000037      0.000000
    149 O2    c      -0.000070      0.000067     -0.000171      0.000000
    150 O2    c       0.000158      0.000036     -0.000541      0.000000
    151 O2    c      -0.000179     -0.000203      0.006307      0.000000
    152 O2    c      -0.000265      0.000173      0.000169      0.000000
    153 O2    c       0.000035     -0.000110     -0.000145      0.000000
    154 O2    c       0.000004     -0.000002      0.000090      0.000000
    155 O2    c       0.000160     -0.000045      0.000858      0.000000
    156 O2    c      -0.000692      0.000937      0.000703      0.000000
    157 O2    c       0.000013     -0.000020      0.000022      0.000000
    158 O2    c       0.000265     -0.000698     -0.001427      0.000000
    159 O2    c      -0.000117      0.000045     -0.000029      0.000000
    160 O3    c       0.000738     -0.000201     -0.007007      0.000000
    161 O3    c      -0.000047      0.000152     -0.000320      0.000000
    162 O2    c       0.000359     -0.000209     -0.000301      0.000000
    163 O1    c       0.000613     -0.000326      0.001585      0.000000
    164 O2    c      -0.000095     -0.000049     -0.000113      0.000000
    165 O3    c       0.000095      0.000087     -0.000702      0.000000
    166 O2    c       0.000055     -0.000069     -0.000075      0.000000
    167 O2    c      -0.000062     -0.000099      0.000208      0.000000
    168 O2    c      -0.000185      0.000058      0.000152      0.000000
    169 O2    c      -0.000064     -0.000058      0.000344      0.000000
    170 O2    c      -0.000049      0.000200      0.000794      0.000000
    171 O2    c       0.000182     -0.000149      0.000335      0.000000
    172 O2    c       0.000542     -0.000188     -0.000545      0.000000
    173 O2    c       0.000072      0.000056      0.000004      0.000000
    174 O2    c      -0.000062      0.000007      0.000048      0.000000
    175 O2    c       0.000018     -0.000260     -0.000033      0.000000
    176 O2    c       0.000126     -0.000021     -0.000325      0.000000
    177 O3    c       0.000721     -0.000032     -0.004930      0.000000
    178 O2    c      -0.000088      0.000201      0.001016      0.000000
    179 O2    c      -0.000564     -0.000062      0.001431      0.000000
    180 O2    c      -0.000008      0.000028      0.000112      0.000000
    181 F     c      -0.000016      0.000031      0.000106      0.000000
    182 F     c       0.000009      0.000001      0.000003      0.000000
    183 F     c       0.000520     -0.000209      0.003564      0.000000
    184 F     c       0.000027      0.000072     -0.000431      0.000000
    185 F     c       0.000094     -0.000134      0.000469      0.000000
    186 F     c       0.000010     -0.000009      0.000049      0.000000
    187 O2    s      -0.000180      0.000317      0.000004      0.000000
    188 O2    s      -0.000111     -0.000038     -0.000460      0.000000
    189 O2    s       0.000014      0.000105      0.000391      0.000000
    190 O2    s       0.000033     -0.000036      0.000028      0.000000
    191 O2    s      -0.000081      0.000221      0.000335      0.000000
    192 O2    s      -0.000085     -0.000203     -0.000384      0.000000
    193 O2    s      -0.000152      0.000025      0.000013      0.000000
    194 O2    s       0.000249     -0.000231     -0.000009      0.000000
    195 O2    s      -0.000276      0.000619      0.000973      0.000000
    196 O2    s      -0.000175     -0.000162      0.000241      0.000000
    197 O2    s       0.000270     -0.000050     -0.000496      0.000000
    198 O2    s       0.000027      0.000017      0.000052      0.000000
    199 O3    s       0.000781     -0.000883      0.001593      0.000000
    200 O2    s      -0.000326      0.000402     -0.000052      0.000000
    201 O2    s       0.000087      0.000025     -0.000067      0.000000
    202 O2    s      -0.000009     -0.000038      0.000107      0.000000
    203 O2    s      -0.000344      0.000028     -0.000455      0.000000
    204 O2    s      -0.000139     -0.000057     -0.000490      0.000000
    205 O2    s      -0.000133     -0.000325     -0.001299      0.000000
    206 O2    s       0.000159     -0.000227     -0.000197      0.000000
    207 O2    s       0.000049      0.000256     -0.000349      0.000000
    208 O2    s      -0.000027     -0.000012      0.000010      0.000000
    209 O2    s       0.000250     -0.000079      0.000466      0.000000
    210 O2    s      -0.000202      0.000118     -0.000605      0.000000
    211 O2    s       0.000030     -0.000075      0.000199      0.000000
    212 O2    s       0.000356     -0.000354      0.000490      0.000000
    213 O2    s       0.000390      0.000054      0.000367      0.000000
    214 O2    s      -0.000173      0.000125      0.000115      0.000000
    215 O2    s       0.000022      0.000030      0.000056      0.000000
    216 O2    s       0.000165     -0.000241     -0.000125      0.000000
    217 O2    s       0.000062     -0.000047     -0.000167      0.000000
    218 O2    s       0.000188     -0.000165      0.000094      0.000000
    219 O2    s       0.000378     -0.000184     -0.000032      0.000000
    220 O2    s       0.000152     -0.000146      0.000761      0.000000
    221 O2    s       0.000319     -0.000006      0.000231      0.000000
    222 O2    s       0.000031      0.000007     -0.000053      0.000000
    223 O2    s       0.000223      0.000143      0.000966      0.000000
    224 O2    s      -0.000092      0.000233     -0.000504      0.000000
    225 O2    s      -0.000166     -0.000106     -0.000381      0.000000
    226 O2    s       0.000033     -0.000014      0.000263      0.000000
    227 O2    s       0.000008     -0.000282     -0.000675      0.000000
    228 O2    s       0.000055      0.000299      0.000482      0.000000
    229 O2    s       0.000019     -0.000021     -0.000379      0.000000
    230 O3    s       0.000100      0.000245      0.000628      0.000000
    231 O3    s      -0.000236      0.000045      0.000576      0.000000
    232 O2    s       0.000211     -0.000221     -0.000249      0.000000
    233 O2    s      -0.000000     -0.000008     -0.000105      0.000000
    234 O2    s       0.000204     -0.000009     -0.000553      0.000000
    235 O2    s      -0.000109      0.000225     -0.000695      0.000000
    236 O2    s      -0.000021      0.000013     -0.000052      0.000000
    237 O2    s      -0.000254      0.000322      0.000651      0.000000
    238 O2    s      -0.000220      0.000192      0.000331      0.000000
    239 O2    s      -0.001307     -0.000133      0.003387      0.000000
    240 O2    s      -0.000025      0.000060      0.000137      0.000000
    241 O3    s       0.000476     -0.000215     -0.001217      0.000000
    242 O2    s      -0.000125      0.000007     -0.000375      0.000000
    243 O2    s       0.000040     -0.000042     -0.000236      0.000000
    244 O2    s       0.000035     -0.000093     -0.000007      0.000000
    245 O2    s       0.000176      0.000186      0.000495      0.000000
    246 O2    s      -0.000345      0.000338     -0.000404      0.000000
    247 O2    s      -0.000059      0.000026      0.000137      0.000000
    248 O2    s      -0.000053     -0.000241      0.001140      0.000000
    249 O2    s       0.000059      0.000015      0.000278      0.000000
    250 O2    s      -0.000498      0.000110      0.000181      0.000000
    251 O2    s       0.000031      0.000047     -0.000024      0.000000
    252 O2    s       0.000150     -0.000217     -0.000245      0.000000
    253 O2    s       0.000698     -0.000070     -0.002311      0.000000
    254 O2    s       0.000081     -0.000013     -0.000129      0.000000
    255 O2    s      -0.000109      0.000091     -0.000092      0.000000
    256 O2    s       0.000023     -0.000049      0.000249      0.000000
    257 O2    s      -0.000492      0.000469     -0.001445      0.000000
    258 O2    s      -0.000310      0.000008      0.000212      0.000000
    259 O2    s       0.000029      0.000018     -0.000400      0.000000
    260 O3    s       0.001078     -0.000089     -0.000246      0.000000
    261 O3    s       0.000052     -0.000002     -0.000037      0.000000
    262 O2    s      -0.000468      0.000262      0.000364      0.000000
    263 O2    s       0.000014      0.000037     -0.000036      0.000000
    264 O2    s       0.000004     -0.000284      0.000659      0.000000
    265 O2    s       0.000592     -0.000199     -0.001212      0.000000
    266 O2    s      -0.000014     -0.000166     -0.000309      0.000000
    267 O2    s       0.000432     -0.000219     -0.000598      0.000000
    268 O2    s      -0.000001      0.000056      0.000153      0.000000
    269 O2    s       0.000122     -0.000108      0.000455      0.000000
    270 O2    s       0.000033     -0.000304     -0.000144      0.000000
    271 O2    s      -0.000061      0.000135     -0.000131      0.000000
    272 O2    s      -0.000333     -0.000097      0.000542      0.000000
    273 O2    s      -0.000073      0.000116      0.000039      0.000000
    274 O2    s       0.000300     -0.000202     -0.000230      0.000000
    275 O2    s       0.000001     -0.000069     -0.000038      0.000000
    276 O2    s       0.000067     -0.000016      0.000357      0.000000
    277 O2    s      -0.000028     -0.000528     -0.000307      0.000000
    278 O2    s       0.000002      0.000016      0.000070      0.000000
    279 O2    s       0.000033     -0.000011     -0.000100      0.000000
    280 O2    s      -0.000004     -0.000007      0.000083      0.000000
    281 O2    s      -0.000133      0.000086      0.000303      0.000000
    282 O2    s       0.000586     -0.000384      0.000207      0.000000
    283 O2    s      -0.000014      0.000039      0.000105      0.000000
    284 O2    s       0.000172      0.000076      0.000146      0.000000
    285 O2    s      -0.000047     -0.000081     -0.000088      0.000000
    286 O3    s      -0.000541      0.000766      0.001584      0.000000
    287 O3    s       0.000024     -0.000148     -0.000061      0.000000
    288 O2    s      -0.000197      0.000061      0.000027      0.000000
    289 O1    s       0.000552     -0.000893      0.002648      0.000000
    290 O2    s       0.000046     -0.000068     -0.000247      0.000000
    291 O3    s      -0.000009     -0.000177      0.000599      0.000000
    292 O2    s       0.000036     -0.000041     -0.000168      0.000000
    293 O2    s      -0.000074      0.000247     -0.000370      0.000000
    294 O2    s       0.000065     -0.000278     -0.001152      0.000000
    295 O2    s       0.000006      0.000129     -0.000367      0.000000
    296 O2    s      -0.000314     -0.000145      0.000362      0.000000
    297 O2    s      -0.000160      0.000065     -0.000535      0.000000
    298 O2    s       0.000826     -0.000431     -0.000009      0.000000
    299 O2    s       0.000043     -0.000021      0.000112      0.000000
    300 O2    s       0.000052     -0.000051      0.000208      0.000000
    301 O2    s       0.000044      0.000076     -0.000134      0.000000
    302 O2    s      -0.000033      0.000035      0.000067      0.000000
    303 O3    s      -0.001423      0.000546      0.002485      0.000000
    304 O2    s       0.000156     -0.000289     -0.000041      0.000000
    305 O2    s      -0.000133      0.000038     -0.000459      0.000000
    306 O2    s       0.000030     -0.000083      0.000082      0.000000
    307 F     s       0.000091     -0.000087     -0.000198      0.000000
    308 F     s       0.000034     -0.000004     -0.000001      0.000000
    309 F     s       0.000243     -0.001865     -0.004070      0.000000
    310 F     s      -0.000020     -0.000062      0.001091      0.000000
    311 F     s       0.000154      0.000237     -0.000920      0.000000
    312 F     s       0.000002     -0.000033      0.000050      0.000000
--------------------------------------------------------------------------------
  Maximum abs         0.002964      0.001865      0.007007      0.000000
--------------------------------------------------------------------------------


  Time to end of optimisation =       5.8127 seconds


  Peak dynamic memory used =      19.13 MB 


  Timing analysis for GULP :

--------------------------------------------------------------------------------
  Task / Subroutine                                          Time (Seconds)
--------------------------------------------------------------------------------
  Calculation of reciprocal space energy and derivatives          0.2549
  Calculation of real space energy and derivatives                4.7911
  Calculation of three-body energy and derivatives                0.5395
  Calculation of matrix inversion                                 0.1920
--------------------------------------------------------------------------------
  Total CPU time                                                  5.8127
--------------------------------------------------------------------------------


  Dump file written as out.res                                                 
  CIF file written as out.cif                                                 


  Job Finished at 03:04.01 29th November   2016                               

