********************************************************************************
*                       GENERAL UTILITY LATTICE PROGRAM                        *
*                                 Julian Gale                                  *
*                      Nanochemistry Research Institute                        *
*                           Department of Chemistry                            *
*                    Curtin University, Western Australia                      *
********************************************************************************
* Version = 4.2.0 * Last modified =  20th January 2014                         *
********************************************************************************
*  optimise     - perform optimisation run                                     *
*  conp         - constant pressure calculation                                *
*  qok          - running with non charge neutral cell is OK                   *
********************************************************************************

  Job Started  at 11:01.29 27th November   2016                               

  Number of CPUs =     1


  Total number of configurations input =   1

********************************************************************************
*  Input for Configuration =   1                                               *
********************************************************************************

  Formula = Si57Ge3O120F6                                               

  Number of irreducible atoms/shells =     312


  Total number atoms/shells =     312

  Dimensionality = 3               :  Bulk   


  Charge on solid   =  -6.000000 =>neutralising background added


  Cartesian lattice vectors (Angstroms) :

       11.968256    0.000000    0.000000
       -5.945802   10.386893    0.000000
       -0.055529    0.077826   29.477465

  Cell parameters (Angstroms/Degrees):

  a =      11.9683    alpha =  89.8151
  b =      11.9683    beta  =  90.1079
  c =      29.4776    gamma = 119.7883

  Initial cell volume =        3664.431994 Angs**3

  Temperature of configuration =  0.000     K 

  Pressure of configuration =         0.000 GPa 

  Fractional coordinates of asymmetric unit :

--------------------------------------------------------------------------------
   No.  Atomic       x           y          z         Charge      Occupancy
        Label      (Frac)      (Frac)     (Frac)        (e)         (Frac)  
--------------------------------------------------------------------------------
      1 Si    c    0.699600    0.375700    0.033890     4.00000    1.000000    
      2 Si    c    0.622652 *  0.321971 *  0.368754 *   4.00000    1.000000    
      3 Si    c    0.678073 *  0.290384 *  0.698551 *   4.00000    1.000000    
      4 Si    c    0.299614 *  0.617346 *  0.535421 *   4.00000    1.000000    
      5 Si    c    0.388954 *  0.675842 *  0.868671 *   4.00000    1.000000    
      6 Si    c    0.326908 *  0.706930 *  0.203132 *   4.00000    1.000000    
      7 Si    c    0.386293 *  0.706693 *  0.303217 *   4.00000    1.000000    
      8 Si    c    0.328724 *  0.621264 *  0.970258 *   4.00000    1.000000    
      9 Si    c    0.297687 *  0.670650 *  0.635976 *   4.00000    1.000000    
     10 Si    c    0.626543 *  0.295460 *  0.799284 *   4.00000    1.000000    
     11 Si    c    0.677260 *  0.375780 *  0.469395 *   4.00000    1.000000    
     12 Si    c    0.703321 *  0.333110 *  0.136518 *   4.00000    1.000000    
     13 Ge    c    0.536935 *  0.432429 *  0.966542 *   4.00000    1.000000    
     14 Si    c    0.588398 *  0.114937 *  0.303048 *   4.00000    1.000000    
     15 Si    c    0.888932 *  0.465349 *  0.634856 *   4.00000    1.000000    
     16 Si    c    0.472433 *  0.579995 *  0.470856 *   4.00000    1.000000    
     17 Si    c    0.424313 *  0.884437 *  0.801877 *   4.00000    1.000000    
     18 Si    c    0.117394 *  0.541090 *  0.137000 *   4.00000    1.000000    
     19 Si    c    0.419474 *  0.531037 *  0.369125 *   4.00000    1.000000    
     20 Si    c    0.115845 *  0.579089 *  0.035103 *   4.00000    1.000000    
     21 Si    c    0.472484 *  0.880046 *  0.700384 *   4.00000    1.000000    
     22 Si    c    0.601677 *  0.468242 *  0.867321 *   4.00000    1.000000    
     23 Si    c    0.889162 *  0.413767 *  0.533357 *   4.00000    1.000000    
     24 Si    c    0.534604 *  0.121171 *  0.201586 *   4.00000    1.000000    
     25 Si    c    0.314582 *  0.394596 *  0.853621 *   4.00000    1.000000    
     26 Si    c    0.601855 *  0.908941 *  0.186108 *   4.00000    1.000000    
     27 Si    c    0.098249 *  0.694167 *  0.520220 *   4.00000    1.000000    
     28 Si    c    0.699402 *  0.600616 *  0.355614 *   4.00000    1.000000    
     29 Si    c    0.400195 *  0.088715 *  0.685678 *   4.00000    1.000000    
     30 Si    c    0.904314 *  0.298860 *  0.023868 *   4.00000    1.000000    
     31 Si    c    0.400084 *  0.299342 *  0.484680 *   4.00000    1.000000    
     32 Si    c    0.906305 *  0.611835 *  0.147979 *   4.00000    1.000000    
     33 Si    c    0.702929 *  0.093354 *  0.814622 *   4.00000    1.000000    
     34 Si    c    0.610794 *  0.703634 *  0.990200 *   4.00000    1.000000    
     35 Si    c    0.096876 *  0.392960 *  0.650094 *   4.00000    1.000000    
     36 Si    c    0.308826 *  0.908241 *  0.318845 *   4.00000    1.000000    
     37 Si    c    0.257962 *  0.335464 *  0.955602 *   4.00000    1.000000    
     38 Si    c    0.666545 *  0.914474 *  0.286124 *   4.00000    1.000000    
     39 Si    c    0.089260 *  0.743628 *  0.620812 *   4.00000    1.000000    
     40 Si    c    0.751088 *  0.657548 *  0.456090 *   4.00000    1.000000    
     41 Si    c    0.345633 *  0.085028 *  0.786455 *   4.00000    1.000000    
     42 Si    c    0.914682 *  0.263630 *  0.125223 *   4.00000    1.000000    
     43 Si    c    0.342045 *  0.251895 *  0.383927 *   4.00000    1.000000    
     44 Si    c    0.913275 *  0.655548 *  0.046214 *   4.00000    1.000000    
     45 Si    c    0.751045 *  0.081702 *  0.714193 *   4.00000    1.000000    
     46 Si    c    0.674720 *  0.747785 *  0.887353 *   4.00000    1.000000    
     47 Si    c    0.090719 *  0.336512 *  0.549459 *   4.00000    1.000000    
     48 Si    c    0.258239 *  0.917737 *  0.218363 *   4.00000    1.000000    
     49 Si    c    0.973679 *  0.126135 *  0.968900 *   4.00000    1.000000    
     50 Si    c    0.882415 *  0.847742 *  0.304744 *   4.00000    1.000000    
     51 Si    c    0.151890 *  0.023438 *  0.636062 *   4.00000    1.000000    
     52 Si    c    0.031120 *  0.875746 *  0.470299 *   4.00000    1.000000    
     53 Si    c    0.128672 *  0.148570 *  0.802691 *   4.00000    1.000000    
     54 Ge    c    0.858695 *  0.983996 *  0.140387 *   4.00000    1.000000    
     55 Si    c    0.125367 *  0.972310 *  0.369631 *   4.00000    1.000000    
     56 Ge    c    0.862619 *  0.884916 *  0.036176 *   4.00000    1.000000    
     57 Si    c    0.032035 *  0.146296 *  0.701580 *   4.00000    1.000000    
     58 Si    c    0.885109 *  0.030952 *  0.867822 *   4.00000    1.000000    
     59 Si    c    0.152581 *  0.118527 *  0.535216 *   4.00000    1.000000    
     60 Si    c    0.978859 *  0.854396 *  0.204360 *   4.00000    1.000000    
     61 O3    c    0.947077 *  0.004449 *  0.997524 *   1.33043    1.000000    
     62 O2    c    0.000946 *  0.929282 *  0.338455 *   0.87073    1.000000    
     63 O2    c    0.076053 *  0.066108 *  0.670246 *   0.87073    1.000000    
     64 O2    c    0.072302 *  0.995862 *  0.503435 *   0.87073    1.000000    
     65 O2    c    0.008515 *  0.070026 *  0.836083 *   0.87073    1.000000    
     66 O3    c    0.940847 *  0.948104 *  0.180091 *   1.33043    1.000000    
     67 O2    c    0.346755 *  0.584045 *  0.336458 *   0.87073    1.000000    
     68 O2    c    0.421106 *  0.753606 *  0.668656 *   0.87073    1.000000    
     69 O2    c    0.239842 *  0.655176 *  0.001741 *   0.87073    1.000000    
     70 O2    c    0.670254 *  0.423505 *  0.829394 *   0.87073    1.000000    
     71 O2    c    0.581218 *  0.248004 *  0.169891 *   0.87073    1.000000    
     72 O2    c    0.763696 *  0.336922 *  0.501248 *   0.87073    1.000000    
     73 O3    c    0.582172 *  0.340479 *  0.001835 *   1.33043    1.000000    
     74 O2    c    0.761350 *  0.413924 *  0.666223 *   0.87073    1.000000    
     75 O2    c    0.663141 *  0.239432 *  0.335949 *   0.87073    1.000000    
     76 O2    c    0.423427 *  0.656372 *  0.503311 *   0.87073    1.000000    
     77 O2    c    0.240747 *  0.586453 *  0.170157 *   0.87073    1.000000    
     78 O2    c    0.352240 *  0.759508 *  0.835148 *   0.87073    1.000000    
     79 O2    c    0.125008 *  0.220680 *  0.974303 *   0.87073    1.000000    
     80 O2    c    0.793632 *  0.914384 *  0.305492 *   0.87073    1.000000    
     81 O2    c    0.087475 *  0.869109 *  0.640772 *   0.87073    1.000000    
     82 O2    c    0.877241 *  0.784076 *  0.475789 *   0.87073    1.000000    
     83 O2    c    0.218709 *  0.083611 *  0.806697 *   0.87073    1.000000    
     84 O3    c    0.918614 *  0.145675 *  0.148935 *   1.33043    1.000000    
     85 O2    c    0.215131 *  0.126482 *  0.364079 *   0.87073    1.000000    
     86 O3    c    0.916130 *  0.778799 *  0.024052 *   1.33043    1.000000    
     87 O2    c    0.877969 *  0.081164 *  0.695106 *   0.87073    1.000000    
     88 O2    c    0.796470 *  0.875849 *  0.866339 *   0.87073    1.000000    
     89 O2    c    0.090251 *  0.210337 *  0.529268 *   0.87073    1.000000    
     90 O2    c    0.132040 *  0.915534 *  0.197816 *   0.87073    1.000000    
     91 O2    c    0.941961 *  0.848872 *  0.256636 *   0.87073    1.000000    
     92 O2    c    0.138183 *  0.066896 *  0.586132 *   0.87073    1.000000    
     93 O2    c    0.934655 *  0.083470 *  0.917338 *   0.87073    1.000000    
     94 O2    c    0.072209 *  0.137716 *  0.752735 *   0.87073    1.000000    
     95 O1    c    0.897696 *  0.947588 *  0.089115 *   1.73396    1.000000    
     96 O2    c    0.073225 *  0.931714 *  0.420266 *   0.87073    1.000000    
     97 O2    c    0.897100 *  0.197040 *  0.986031 *   0.87073    1.000000    
     98 O2    c    0.797217 *  0.697820 *  0.317800 *   0.87073    1.000000    
     99 O2    c    0.303433 *  0.089893 *  0.647344 *   0.87073    1.000000    
    100 O2    c    0.100643 *  0.793127 *  0.481939 *   0.87073    1.000000    
    101 O2    c    0.216146 *  0.299729 *  0.815056 *   0.87073    1.000000    
    102 O3    c    0.693589 *  0.905984 *  0.146794 *   1.33043    1.000000    
    103 O2    c    0.209885 *  0.905248 *  0.357276 *   0.87073    1.000000    
    104 O3    c    0.698683 *  0.811938 *  0.026567 *   1.33043    1.000000    
    105 O2    c    0.099260 *  0.296887 *  0.688699 *   0.87073    1.000000    
    106 O2    c    0.802242 *  0.096749 *  0.852535 *   0.87073    1.000000    
    107 O2    c    0.303799 *  0.199872 *  0.522937 *   0.87073    1.000000    
    108 O2    c    0.902471 *  0.709468 *  0.185054 *   0.87073    1.000000    
    109 O2    c    0.327393 *  0.648728 *  0.253262 *   0.87073    1.000000    
    110 O2    c    0.355720 *  0.672453 *  0.585862 *   0.87073    1.000000    
    111 O2    c    0.331418 *  0.672485 *  0.918715 *   0.87073    1.000000    
    112 O2    c    0.680891 *  0.348115 *  0.748634 *   0.87073    1.000000    
    113 O2    c    0.648151 *  0.329803 *  0.086028 *   0.87073    1.000000    
    114 O2    c    0.678128 *  0.319842 *  0.419151 *   0.87073    1.000000    
    115 O3    c    0.369832 *  0.316874 *  0.975460 *   1.33043    1.000000    
    116 O2    c    0.676295 *  0.046122 *  0.305453 *   0.87073    1.000000    
    117 O2    c    0.956867 *  0.621153 *  0.638899 *   0.87073    1.000000    
    118 O2    c    0.628374 *  0.667265 *  0.474375 *   0.87073    1.000000    
    119 O2    c    0.337133 *  0.953561 *  0.805827 *   0.87073    1.000000    
    120 O2    c    0.047200 *  0.386416 *  0.142291 *   0.87073    1.000000    
    121 O2    c    0.332084 *  0.374985 *  0.365881 *   0.87073    1.000000    
    122 O2    c    0.047992 *  0.666278 *  0.030256 *   0.87073    1.000000    
    123 O2    c    0.628594 *  0.947957 *  0.697053 *   0.87073    1.000000    
    124 O2    c    0.684862 *  0.626781 *  0.867774 *   0.87073    1.000000    
    125 O2    c    0.958769 *  0.326839 *  0.530791 *   0.87073    1.000000    
    126 O2    c    0.378373 *  0.050789 *  0.199669 *   0.87073    1.000000    
    127 O2    c    0.771140 *  0.298402 *  0.015916 *   0.87073    1.000000    
    128 O2    c    0.697819 *  0.466184 *  0.347327 *   0.87073    1.000000    
    129 O2    c    0.533719 *  0.221760 *  0.677404 *   0.87073    1.000000    
    130 O2    c    0.231856 *  0.693251 *  0.513120 *   0.87073    1.000000    
    131 O2    c    0.318740 *  0.531416 *  0.848256 *   0.87073    1.000000    
    132 O2    c    0.468583 *  0.774559 *  0.180045 *   0.87073    1.000000    
    133 O2    c    0.312140 *  0.775614 *  0.325868 *   0.87073    1.000000    
    134 O2    c    0.472402 *  0.698651 *  0.990878 *   0.87073    1.000000    
    135 O2    c    0.229497 *  0.527225 *  0.658189 *   0.87073    1.000000    
    136 O2    c    0.699803 *  0.225607 *  0.822176 *   0.87073    1.000000    
    137 O2    c    0.534612 *  0.299881 *  0.492117 *   0.87073    1.000000    
    138 O2    c    0.773854 *  0.477921 *  0.157351 *   0.87073    1.000000    
    139 O2    c    0.789695 *  0.530456 *  0.026617 *   0.87073    1.000000    
    140 O2    c    0.466795 *  0.250220 *  0.364106 *   0.87073    1.000000    
    141 O2    c    0.749673 *  0.205909 *  0.693512 *   0.87073    1.000000    
    142 O2    c    0.217230 *  0.461762 *  0.530389 *   0.87073    1.000000    
    143 O2    c    0.543262 *  0.739657 *  0.869475 *   0.87073    1.000000    
    144 O2    c    0.254747 *  0.790455 *  0.199160 *   0.87073    1.000000    
    145 O2    c    0.542584 *  0.787255 *  0.306058 *   0.87073    1.000000    
    146 O2    c    0.265862 *  0.467908 *  0.972796 *   0.87073    1.000000    
    147 O2    c    0.215664 *  0.744986 *  0.640812 *   0.87073    1.000000    
    148 O2    c    0.470471 *  0.213578 *  0.804818 *   0.87073    1.000000    
    149 O2    c    0.751775 *  0.531486 *  0.475324 *   0.87073    1.000000    
    150 O2    c    0.786303 *  0.261001 *  0.143146 *   0.87073    1.000000    
    151 O2    c    0.248340 *  0.324225 *  0.900458 *   0.87073    1.000000    
    152 O2    c    0.683230 *  0.915487 *  0.231543 *   0.87073    1.000000    
    153 O2    c    0.092137 *  0.763444 *  0.566538 *   0.87073    1.000000    
    154 O2    c    0.769926 *  0.674588 *  0.401893 *   0.87073    1.000000    
    155 O2    c    0.326236 *  0.084400 *  0.732214 *   0.87073    1.000000    
    156 O2    c    0.909671 *  0.231606 *  0.071231 *   0.87073    1.000000    
    157 O2    c    0.325219 *  0.231237 *  0.438221 *   0.87073    1.000000    
    158 O2    c    0.905599 *  0.679500 *  0.100340 *   0.87073    1.000000    
    159 O2    c    0.772329 *  0.087970 *  0.768364 *   0.87073    1.000000    
    160 O2    c    0.687717 *  0.762381 *  0.941717 *   0.87073    1.000000    
    161 O2    c    0.092612 *  0.318638 *  0.603802 *   0.87073    1.000000    
    162 O2    c    0.239842 *  0.915744 *  0.272689 *   0.87073    1.000000    
    163 O3    c    0.604196 *  0.572274 *  0.002819 *   1.33043    1.000000    
    164 O2    c    0.448647 *  0.032338 *  0.327189 *   0.87073    1.000000    
    165 O2    c    0.971038 *  0.406492 *  0.658740 *   0.87073    1.000000    
    166 O2    c    0.414272 *  0.438600 *  0.494027 *   0.87073    1.000000    
    167 O2    c    0.565962 *  0.965839 *  0.824477 *   0.87073    1.000000    
    168 O2    c    0.035415 *  0.604283 *  0.157441 *   0.87073    1.000000    
    169 O2    c    0.560775 *  0.587933 *  0.346657 *   0.87073    1.000000    
    170 O2    c    0.033308 *  0.435306 *  0.013961 *   0.87073    1.000000    
    171 O2    c    0.414940 *  0.963736 *  0.677096 *   0.87073    1.000000    
    172 O2    c    0.456750 *  0.415968 *  0.846684 *   0.87073    1.000000    
    173 O2    c    0.973924 *  0.555255 *  0.510686 *   0.87073    1.000000    
    174 O2    c    0.588536 *  0.035331 *  0.177711 *   0.87073    1.000000    
    175 O2    c    0.588306 *  0.170688 *  0.252633 *   0.87073    1.000000    
    176 O2    c    0.836253 *  0.413789 *  0.584085 *   0.87073    1.000000    
    177 O3    c    0.608552 *  0.411993 *  0.915214 *   1.33043    1.000000    
    178 O2    c    0.420366 *  0.827934 *  0.751485 *   0.87073    1.000000    
    179 O2    c    0.173609 *  0.587535 *  0.085839 *   0.87073    1.000000    
    180 O2    c    0.419008 *  0.581918 *  0.420211 *   0.87073    1.000000    
    181 F     c    0.459969 *  0.909486 *  0.252633 *   0.56000    1.000000    
    182 F     c    0.096613 *  0.543694 *  0.585695 *   0.56000    1.000000    
    183 F     c    0.483595 *  0.525237 *  0.929163 *   0.56000    1.000000    
    184 F     c    0.549494 *  0.087129 *  0.750977 *   0.56000    1.000000    
    185 F     c    0.913660 *  0.458469 *  0.086299 *   0.56000    1.000000    
    186 F     c    0.549678 *  0.450712 *  0.420511 *   0.56000    1.000000    
    187 O3    s    0.942689 *  0.007589 *  0.997712 *  -3.33043    1.000000    
    188 O2    s    0.001791 *  0.925122 *  0.338226 *  -2.87073    1.000000    
    189 O2    s    0.079572 *  0.070337 *  0.669950 *  -2.87073    1.000000    
    190 O2    s    0.076717 *  0.996239 *  0.503307 *  -2.87073    1.000000    
    191 O2    s    0.008343 *  0.074420 *  0.835847 *  -2.87073    1.000000    
    192 O3    s    0.937952 *  0.940894 *  0.179332 *  -3.33043    1.000000    
    193 O2    s    0.358315 *  0.591070 *  0.336435 *  -2.87073    1.000000    
    194 O2    s    0.413827 *  0.758245 *  0.668600 *  -2.87073    1.000000    
    195 O2    s    0.236932 *  0.643884 *  0.001700 *  -2.87073    1.000000    
    196 O2    s    0.658831 *  0.414742 *  0.830068 *  -2.87073    1.000000    
    197 O2    s    0.588675 *  0.243600 *  0.169782 *  -2.87073    1.000000    
    198 O2    s    0.767878 *  0.348863 *  0.501316 *  -2.87073    1.000000    
    199 O3    s    0.591902 *  0.350604 *  0.002911 *  -3.33043    1.000000    
    200 O2    s    0.765778 *  0.406314 *  0.666380 *  -2.87073    1.000000    
    201 O2    s    0.651348 *  0.235256 *  0.335993 *  -2.87073    1.000000    
    202 O2    s    0.415611 *  0.644485 *  0.503321 *  -2.87073    1.000000    
    203 O2    s    0.237098 *  0.594437 *  0.170209 *  -2.87073    1.000000    
    204 O2    s    0.363413 *  0.763221 *  0.835363 *  -2.87073    1.000000    
    205 O2    s    0.122950 *  0.223026 *  0.971601 *  -2.87073    1.000000    
    206 O2    s    0.789963 *  0.907320 *  0.303437 *  -2.87073    1.000000    
    207 O2    s    0.094483 *  0.872559 *  0.638246 *  -2.87073    1.000000    
    208 O2    s    0.880503 *  0.780737 *  0.473213 *  -2.87073    1.000000    
    209 O2    s    0.222218 *  0.090635 *  0.804222 *  -2.87073    1.000000    
    210 O3    s    0.913207 *  0.144110 *  0.145840 *  -3.33043    1.000000    
    211 O2    s    0.218733 *  0.123140 *  0.366679 *  -2.87073    1.000000    
    212 O3    s    0.911435 *  0.775089 *  0.027261 *  -3.33043    1.000000    
    213 O2    s    0.881087 *  0.088065 *  0.697732 *  -2.87073    1.000000    
    214 O2    s    0.793218 *  0.878933 *  0.868648 *  -2.87073    1.000000    
    215 O2    s    0.096924 *  0.213664 *  0.531968 *  -2.87073    1.000000    
    216 O2    s    0.129129 *  0.909259 *  0.200663 *  -2.87073    1.000000    
    217 O2    s    0.939186 *  0.849376 *  0.256350 *  -2.87073    1.000000    
    218 O2    s    0.141344 *  0.067747 *  0.586083 *  -2.87073    1.000000    
    219 O2    s    0.933215 *  0.082068 *  0.917309 *  -2.87073    1.000000    
    220 O2    s    0.074072 *  0.139872 *  0.752646 *  -2.87073    1.000000    
    221 O1    s    0.891644 *  0.945328 *  0.088853 *  -3.73396    1.000000    
    222 O2    s    0.074291 *  0.929908 *  0.420268 *  -2.87073    1.000000    
    223 O2    s    0.906042 *  0.199765 *  0.988057 *  -2.87073    1.000000    
    224 O2    s    0.796069 *  0.703748 *  0.320395 *  -2.87073    1.000000    
    225 O2    s    0.297273 *  0.082674 *  0.650108 *  -2.87073    1.000000    
    226 O2    s    0.093001 *  0.791723 *  0.484641 *  -2.87073    1.000000    
    227 O2    s    0.217088 *  0.293681 *  0.817699 *  -2.87073    1.000000    
    228 O3    s    0.698081 *  0.912475 *  0.149987 *  -3.33043    1.000000    
    229 O2    s    0.211014 *  0.912627 *  0.354684 *  -2.87073    1.000000    
    230 O3    s    0.703224 *  0.807420 *  0.023886 *  -3.33043    1.000000    
    231 O2    s    0.091819 *  0.290585 *  0.686134 *  -2.87073    1.000000    
    232 O2    s    0.800780 *  0.089212 *  0.850183 *  -2.87073    1.000000    
    233 O2    s    0.297503 *  0.201310 *  0.520367 *  -2.87073    1.000000    
    234 O2    s    0.911008 *  0.714830 *  0.183251 *  -2.87073    1.000000    
    235 O2    s    0.333333 *  0.660511 *  0.253256 *  -2.87073    1.000000    
    236 O2    s    0.344017 *  0.666633 *  0.585856 *  -2.87073    1.000000    
    237 O2    s    0.337113 *  0.667695 *  0.918707 *  -2.87073    1.000000    
    238 O2    s    0.674929 *  0.336597 *  0.748701 *  -2.87073    1.000000    
    239 O2    s    0.658940 *  0.334610 *  0.086286 *  -2.87073    1.000000    
    240 O2    s    0.672365 *  0.325794 *  0.419166 *  -2.87073    1.000000    
    241 O3    s    0.368918 *  0.326603 *  0.972691 *  -3.33043    1.000000    
    242 O2    s    0.666287 *  0.039579 *  0.303201 *  -2.87073    1.000000    
    243 O2    s    0.963699 *  0.617923 *  0.636593 *  -2.87073    1.000000    
    244 O2    s    0.625179 *  0.657301 *  0.472100 *  -2.87073    1.000000    
    245 O2    s    0.346984 *  0.959960 *  0.803421 *  -2.87073    1.000000    
    246 O2    s    0.040581 *  0.389891 *  0.139884 *  -2.87073    1.000000    
    247 O2    s    0.342043 *  0.378155 *  0.368096 *  -2.87073    1.000000    
    248 O2    s    0.041214 *  0.655864 *  0.032453 *  -2.87073    1.000000    
    249 O2    s    0.625383 *  0.954913 *  0.699185 *  -2.87073    1.000000    
    250 O2    s    0.675838 *  0.624217 *  0.869785 *  -2.87073    1.000000    
    251 O2    s    0.965466 *  0.336809 *  0.533027 *  -2.87073    1.000000    
    252 O2    s    0.381899 *  0.044134 *  0.201832 *  -2.87073    1.000000    
    253 O2    s    0.778436 *  0.306228 *  0.018638 *  -2.87073    1.000000    
    254 O2    s    0.690216 *  0.465471 *  0.350449 *  -2.87073    1.000000    
    255 O2    s    0.534561 *  0.214809 *  0.680499 *  -2.87073    1.000000    
    256 O2    s    0.224720 *  0.685517 *  0.516205 *  -2.87073    1.000000    
    257 O2    s    0.325656 *  0.532299 *  0.850956 *  -2.87073    1.000000    
    258 O2    s    0.467967 *  0.781765 *  0.183133 *  -2.87073    1.000000    
    259 O2    s    0.319406 *  0.782518 *  0.322779 *  -2.87073    1.000000    
    260 O2    s    0.471200 *  0.690917 *  0.988577 *  -2.87073    1.000000    
    261 O2    s    0.222567 *  0.527869 *  0.655023 *  -2.87073    1.000000    
    262 O2    s    0.692574 *  0.218748 *  0.818993 *  -2.87073    1.000000    
    263 O2    s    0.535141 *  0.307607 *  0.488978 *  -2.87073    1.000000    
    264 O2    s    0.780380 *  0.476983 *  0.154212 *  -2.87073    1.000000    
    265 O2    s    0.794445 *  0.528606 *  0.029498 *  -2.87073    1.000000    
    266 O2    s    0.469509 *  0.257958 *  0.366705 *  -2.87073    1.000000    
    267 O2    s    0.742269 *  0.201131 *  0.696241 *  -2.87073    1.000000    
    268 O2    s    0.211986 *  0.464397 *  0.532961 *  -2.87073    1.000000    
    269 O2    s    0.540588 *  0.733555 *  0.871290 *  -2.87073    1.000000    
    270 O2    s    0.262964 *  0.795648 *  0.201685 *  -2.87073    1.000000    
    271 O2    s    0.539552 *  0.792544 *  0.303651 *  -2.87073    1.000000    
    272 O2    s    0.272207 *  0.471206 *  0.970728 *  -2.87073    1.000000    
    273 O2    s    0.210489 *  0.737029 *  0.638190 *  -2.87073    1.000000    
    274 O2    s    0.473064 *  0.208091 *  0.802312 *  -2.87073    1.000000    
    275 O2    s    0.743917 *  0.529018 *  0.472674 *  -2.87073    1.000000    
    276 O2    s    0.791500 *  0.269012 *  0.140525 *  -2.87073    1.000000    
    277 O2    s    0.256563 *  0.333011 *  0.900895 *  -2.87073    1.000000    
    278 O2    s    0.673481 *  0.914808 *  0.232665 *  -2.87073    1.000000    
    279 O2    s    0.092463 *  0.754096 *  0.567478 *  -2.87073    1.000000    
    280 O2    s    0.760483 *  0.664977 *  0.402850 *  -2.87073    1.000000    
    281 O2    s    0.336017 *  0.084904 *  0.733130 *  -2.87073    1.000000    
    282 O2    s    0.909577 *  0.241503 *  0.071797 *  -2.87073    1.000000    
    283 O2    s    0.334865 *  0.240585 *  0.437358 *  -2.87073    1.000000    
    284 O2    s    0.906359 *  0.670152 *  0.099880 *  -2.87073    1.000000    
    285 O2    s    0.762678 *  0.087866 *  0.767457 *  -2.87073    1.000000    
    286 O2    s    0.679237 *  0.755321 *  0.940424 *  -2.87073    1.000000    
    287 O2    s    0.092859 *  0.328337 *  0.602935 *  -2.87073    1.000000    
    288 O2    s    0.249137 *  0.915200 *  0.271823 *  -2.87073    1.000000    
    289 O3    s    0.600290 *  0.577048 *  0.999108 *  -3.33043    1.000000    
    290 O2    s    0.448049 *  0.027339 *  0.323787 *  -2.87073    1.000000    
    291 O2    s    0.976203 *  0.411309 *  0.655339 *  -2.87073    1.000000    
    292 O2    s    0.418961 *  0.438323 *  0.490615 *  -2.87073    1.000000    
    293 O2    s    0.565629 *  0.970942 *  0.821052 *  -2.87073    1.000000    
    294 O2    s    0.030007 *  0.598391 *  0.154289 *  -2.87073    1.000000    
    295 O2    s    0.560858 *  0.583116 *  0.350017 *  -2.87073    1.000000    
    296 O2    s    0.028254 *  0.435914 *  0.017195 *  -2.87073    1.000000    
    297 O2    s    0.419566 *  0.968640 *  0.680475 *  -2.87073    1.000000    
    298 O2    s    0.455295 *  0.418883 *  0.849499 *  -2.87073    1.000000    
    299 O2    s    0.978628 *  0.555422 *  0.514087 *  -2.87073    1.000000    
    300 O2    s    0.584170 *  0.030692 *  0.181098 *  -2.87073    1.000000    
    301 O2    s    0.582795 *  0.159828 *  0.252586 *  -2.87073    1.000000    
    302 O2    s    0.847309 *  0.419210 *  0.584122 *  -2.87073    1.000000    
    303 O3    s    0.603235 *  0.419284 *  0.913462 *  -3.33043    1.000000    
    304 O2    s    0.426111 *  0.839161 *  0.751507 *  -2.87073    1.000000    
    305 O2    s    0.161984 *  0.581950 *  0.085828 *  -2.87073    1.000000    
    306 O2    s    0.424565 *  0.576446 *  0.420157 *  -2.87073    1.000000    
    307 F     s    0.460002 *  0.909146 *  0.252624 *  -1.56000    1.000000    
    308 F     s    0.096926 *  0.543895 *  0.585768 *  -1.56000    1.000000    
    309 F     s    0.487442 *  0.519149 *  0.931634 *  -1.56000    1.000000    
    310 F     s    0.549460 *  0.087105 *  0.751064 *  -1.56000    1.000000    
    311 F     s    0.914162 *  0.458596 *  0.086364 *  -1.56000    1.000000    
    312 F     s    0.549891 *  0.450555 *  0.420591 *  -1.56000    1.000000    
--------------------------------------------------------------------------------



********************************************************************************
*  General input information                                                   *
********************************************************************************

  Species output for all configurations : 

--------------------------------------------------------------------------------
  Species    Type    Atomic    Atomic    Charge       Radii (Angs)     Library
                     Number     Mass       (e)     Cova   Ionic  VDW   Symbol
--------------------------------------------------------------------------------
    Si       Core       14      28.09   4.000000   1.200  0.000  2.100          
    O1       Core        8      16.00   1.733957   0.730  0.000  1.360          
    O1       Shell       8       0.00  -3.733957   0.730  0.000  1.360          
    O2       Core        8      16.00   0.870733   0.730  0.000  1.360          
    O2       Shell       8       0.00  -2.870733   0.730  0.000  1.360          
    O3       Core        8      16.00   1.330431   0.730  0.000  1.360          
    O3       Shell       8       0.00  -3.330431   0.730  0.000  1.360          
    F        Core        9      19.00   0.560000   0.710  0.000  1.300          
    F        Shell       9       0.00  -1.560000   0.710  0.000  1.300          
    Ge       Core       32      72.61   4.000000   1.170  0.000  1.750          
--------------------------------------------------------------------------------


  Lattice summation method               =    Ewald          (3-D)
                                         =    Parry          (2-D)
                                         =    Saunders et al (1-D)
  Accuracy factor for lattice sums       =   12.000


  Time limit = Infinity

  Maximum range for interatomic potentials =        16.000000 Angstroms

  Taper potentials to zero over   1.0000 Angstroms using polynomial

  General interatomic potentials :

--------------------------------------------------------------------------------
Atom  Types   Potential         A         B         C         D     Cutoffs(Ang)
  1     2                                                            Min    Max 
--------------------------------------------------------------------------------
Si   c O1   s Buckingham    0.132E+04 0.318      10.1      0.00     0.000 16.000
Si   c O2   s Buckingham    0.132E+04 0.318      10.1      0.00     0.000 16.000
Si   c O3   s Buckingham    0.132E+04 0.318      10.1      0.00     0.000 16.000
Ge   c O1   s Buckingham    0.150E+04 0.326      16.8      0.00     0.000 16.000
Ge   c O2   s Buckingham    0.150E+04 0.326      16.8      0.00     0.000 16.000
Ge   c O3   s Buckingham    0.150E+04 0.326      16.8      0.00     0.000 16.000
O1   s O1   s Buckingham    0.228E+05 0.149      10.9      0.00     0.000 16.000
O1   s O2   s Buckingham    0.228E+05 0.149      10.9      0.00     0.000 16.000
O1   s O3   s Buckingham    0.228E+05 0.149      10.9      0.00     0.000 16.000
O2   s O2   s Buckingham    0.228E+05 0.149      10.9      0.00     0.000 16.000
O2   s O3   s Buckingham    0.228E+05 0.149      10.9      0.00     0.000 16.000
O3   s O3   s Buckingham    0.228E+05 0.149      10.9      0.00     0.000 16.000
Si   c F    s Buckingham     977.     0.282      0.00      0.00     0.000 16.000
Ge   c F    s Buckingham     681.     0.320      0.00      0.00     0.000 16.000
F    s F    s Buckingham     540.     0.262      0.00      0.00     0.000 16.000
O1   s F    s Buckingham    0.168E+04 0.268      0.00      0.00     0.000 16.000
O2   s F    s Buckingham    0.168E+04 0.268      0.00      0.00     0.000 16.000
O3   s F    s Buckingham    0.168E+04 0.268      0.00      0.00     0.000 16.000
O2   c O2   s Spring (c-s)   76.0      0.00      0.00      0.00     0.000  0.800
O3   c O3   s Spring (c-s)   128.      0.00      0.00      0.00     0.000  0.800
O1   c O1   s Spring (c-s)   180.      0.00      0.00      0.00     0.000  0.800
F    c F    s Spring (c-s)   33.5      0.00      0.00      0.00     0.000  0.800
--------------------------------------------------------------------------------

  General Three-body potentials :

  Harmonic form:

--------------------------------------------------------------------------------
Atom    Atom    Atom           Force Constants            Theta     Cutoffs  
  1       2       3     (eVrad**-2/eVrad**-3/eVrad**-4)   (deg)  1-2  1-3  2-3
--------------------------------------------------------------------------------
Si    c O1    s O1    s  1.261        0.0000    0.0000   109.470 0.00 0.00 0.00
                                                                 1.90 1.90 3.50
Si    c O1    s O2    s  1.261        0.0000    0.0000   109.470 0.00 0.00 0.00
                                                                 1.90 1.90 3.50
Si    c O2    s O2    s  1.261        0.0000    0.0000   109.470 0.00 0.00 0.00
                                                                 1.90 1.90 3.50
--------------------------------------------------------------------------------

********************************************************************************
*  Output for configuration   1                                                *
********************************************************************************


  Components of energy : 

--------------------------------------------------------------------------------
  Interatomic potentials     =        2061.63768287 eV
  Three-body potentials      =           0.45620905 eV
  Monopole - monopole (real) =       -6612.06284703 eV
  Monopole - monopole (recip)=       -3169.48786577 eV
  Monopole - monopole (total)=       -9781.55071279 eV
  Neutralising energy        =          -6.45554713 eV
--------------------------------------------------------------------------------
  Total lattice energy       =       -7725.91236800 eV
--------------------------------------------------------------------------------
  Total lattice energy       =         -745432.4421 kJ/(mole unit cells)
--------------------------------------------------------------------------------


  Number of variables =      939

  Maximum number of calculations  =          1000
  Maximum Hessian update interval =            10
  Maximum step size               =   1.000000000
  Maximum parameter tolerance     =   0.000010000
  Maximum function  tolerance     =   0.000010000
  Maximum gradient  tolerance     =   0.001000000
  Maximum gradient  component     =   0.010000000

  Symmetry not applied to optimisation

  Cell parameters to be optimised using strains

  Newton-Raphson optimiser to be used

  BFGS hessian update to be used

  Dumpfile to be written after every cycle

  Start of bulk optimisation :

  Cycle:      0 Energy:     -7725.912368  Gnorm:      0.000339  CPU:    1.117
  ** Hessian calculated **
  Cycle:      1 Energy:     -7725.920017  Gnorm:      0.001220  CPU:    3.036
  Cycle:      2 Energy:     -7725.920052  Gnorm:      0.000045  CPU:    4.418


  **** Optimisation achieved ****


  Final energy =   -7725.92005370 eV
  Final Gnorm  =       0.00002835

  Components of energy : 

--------------------------------------------------------------------------------
  Interatomic potentials     =        2061.77976887 eV
  Three-body potentials      =           0.45385404 eV
  Monopole - monopole (real) =       -6611.82630959 eV
  Monopole - monopole (recip)=       -3169.87103978 eV
  Monopole - monopole (total)=       -9781.69734938 eV
  Neutralising energy        =          -6.45632723 eV
--------------------------------------------------------------------------------
  Total lattice energy       =       -7725.92005370 eV
--------------------------------------------------------------------------------
  Total lattice energy       =         -745433.1837 kJ/(mole unit cells)
--------------------------------------------------------------------------------

  Final fractional coordinates of atoms :

--------------------------------------------------------------------------------
   No.  Atomic        x           y          z          Radius
        Label       (Frac)      (Frac)     (Frac)       (Angs) 
--------------------------------------------------------------------------------
     1  Si    c     0.699600    0.375700    0.033890    0.000000
     2  Si    c     0.629460    0.324999    0.368730    0.000000
     3  Si    c     0.684605    0.293660    0.698619    0.000000
     4  Si    c     0.305113    0.619702    0.534692    0.000000
     5  Si    c     0.393486    0.676912    0.867678    0.000000
     6  Si    c     0.333105    0.711478    0.202057    0.000000
     7  Si    c     0.392477    0.709465    0.302167    0.000000
     8  Si    c     0.331485    0.623648    0.969213    0.000000
     9  Si    c     0.304349    0.673265    0.635263    0.000000
    10  Si    c     0.631738    0.296641    0.799348    0.000000
    11  Si    c     0.683227    0.379233    0.469403    0.000000
    12  Si    c     0.709358    0.337184    0.136561    0.000000
    13  Ge    c     0.538671    0.434069    0.966617    0.000000
    14  Si    c     0.595125    0.117771    0.303200    0.000000
    15  Si    c     0.895759    0.468630    0.635048    0.000000
    16  Si    c     0.478044    0.583067    0.469923    0.000000
    17  Si    c     0.429825    0.885808    0.800905    0.000000
    18  Si    c     0.123238    0.545977    0.135594    0.000000
    19  Si    c     0.425855    0.533826    0.368130    0.000000
    20  Si    c     0.117793    0.581313    0.033605    0.000000
    21  Si    c     0.479160    0.883085    0.699436    0.000000
    22  Si    c     0.605586    0.468487    0.867597    0.000000
    23  Si    c     0.894772    0.416639    0.533514    0.000000
    24  Si    c     0.541470    0.125893    0.201853    0.000000
    25  Si    c     0.318701    0.395331    0.853297    0.000000
    26  Si    c     0.608423    0.913853    0.185724    0.000000
    27  Si    c     0.103709    0.696868    0.519933    0.000000
    28  Si    c     0.706021    0.603381    0.355144    0.000000
    29  Si    c     0.406969    0.092032    0.685180    0.000000
    30  Si    c     0.905935    0.300812    0.023063    0.000000
    31  Si    c     0.405741    0.302600    0.484196    0.000000
    32  Si    c     0.912021    0.616466    0.146943    0.000000
    33  Si    c     0.708320    0.094455    0.814101    0.000000
    34  Si    c     0.613193    0.705748    0.989919    0.000000
    35  Si    c     0.103737    0.395901    0.649942    0.000000
    36  Si    c     0.315393    0.911067    0.318525    0.000000
    37  Si    c     0.260041    0.337418    0.955238    0.000000
    38  Si    c     0.673061    0.917421    0.285654    0.000000
    39  Si    c     0.096080    0.746722    0.620585    0.000000
    40  Si    c     0.756866    0.660770    0.455639    0.000000
    41  Si    c     0.350942    0.086452    0.785933    0.000000
    42  Si    c     0.920697    0.268030    0.124406    0.000000
    43  Si    c     0.348592    0.254791    0.383375    0.000000
    44  Si    c     0.914211    0.656168    0.045075    0.000000
    45  Si    c     0.757499    0.084684    0.713669    0.000000
    46  Si    c     0.678768    0.748434    0.887096    0.000000
    47  Si    c     0.096296    0.339150    0.549252    0.000000
    48  Si    c     0.264914    0.922468    0.218108    0.000000
    49  Si    c     0.975792    0.127860    0.968701    0.000000
    50  Si    c     0.888925    0.850388    0.304258    0.000000
    51  Si    c     0.158676    0.026623    0.635649    0.000000
    52  Si    c     0.036911    0.878694    0.469842    0.000000
    53  Si    c     0.133305    0.149032    0.802405    0.000000
    54  Ge    c     0.865214    0.988438    0.140002    0.000000
    55  Si    c     0.131900    0.975011    0.369194    0.000000
    56  Ge    c     0.864923    0.886321    0.035934    0.000000
    57  Si    c     0.038316    0.148917    0.701208    0.000000
    58  Si    c     0.889652    0.031117    0.867539    0.000000
    59  Si    c     0.158355    0.121431    0.534820    0.000000
    60  Si    c     0.985575    0.859207    0.203788    0.000000
    61  O3    c     0.950365    0.007848    0.998095    0.000000
    62  O2    c     0.007639    0.932147    0.337909    0.000000
    63  O2    c     0.082756    0.069182    0.669832    0.000000
    64  O2    c     0.078356    0.998935    0.502938    0.000000
    65  O2    c     0.013649    0.070382    0.836035    0.000000
    66  O3    c     0.947684    0.953806    0.180080    0.000000
    67  O2    c     0.353162    0.586365    0.335184    0.000000
    68  O2    c     0.428422    0.756911    0.667618    0.000000
    69  O2    c     0.241398    0.657481    0.000063    0.000000
    70  O2    c     0.674824    0.423775    0.829933    0.000000
    71  O2    c     0.588507    0.253323    0.170509    0.000000
    72  O2    c     0.768962    0.340066    0.501519    0.000000
    73  O3    c     0.581471    0.340600    0.002346    0.000000
    74  O2    c     0.768563    0.417755    0.666596    0.000000
    75  O2    c     0.670071    0.241869    0.336277    0.000000
    76  O2    c     0.428392    0.659067    0.502283    0.000000
    77  O2    c     0.247323    0.592197    0.168532    0.000000
    78  O2    c     0.357244    0.760297    0.833846    0.000000
    79  O2    c     0.126895    0.223457    0.974008    0.000000
    80  O2    c     0.799892    0.916781    0.305032    0.000000
    81  O2    c     0.094754    0.872405    0.640565    0.000000
    82  O2    c     0.882950    0.787531    0.475293    0.000000
    83  O2    c     0.223610    0.084273    0.806147    0.000000
    84  O3    c     0.926399    0.150592    0.147837    0.000000
    85  O2    c     0.221869    0.129129    0.363536    0.000000
    86  O3    c     0.915833    0.778743    0.022762    0.000000
    87  O2    c     0.884422    0.084492    0.694403    0.000000
    88  O2    c     0.800997    0.875995    0.866010    0.000000
    89  O2    c     0.095399    0.212747    0.529059    0.000000
    90  O2    c     0.138913    0.920727    0.197534    0.000000
    91  O2    c     0.948046    0.851255    0.256096    0.000000
    92  O2    c     0.144382    0.069422    0.585671    0.000000
    93  O2    c     0.937600    0.082785    0.917270    0.000000
    94  O2    c     0.076564    0.138469    0.752486    0.000000
    95  O1    c     0.901643    0.947675    0.089065    0.000000
    96  O2    c     0.079502    0.934596    0.419818    0.000000
    97  O2    c     0.898403    0.198694    0.985187    0.000000
    98  O2    c     0.804128    0.700485    0.317382    0.000000
    99  O2    c     0.310386    0.093661    0.646820    0.000000
   100  O2    c     0.105863    0.795601    0.481615    0.000000
   101  O2    c     0.220728    0.300180    0.814694    0.000000
   102  O3    c     0.700165    0.911545    0.146332    0.000000
   103  O2    c     0.216307    0.907648    0.356998    0.000000
   104  O3    c     0.700967    0.814541    0.026187    0.000000
   105  O2    c     0.106271    0.299788    0.688554    0.000000
   106  O2    c     0.807296    0.097246    0.852033    0.000000
   107  O2    c     0.309472    0.203350    0.522475    0.000000
   108  O2    c     0.909266    0.715101    0.183800    0.000000
   109  O2    c     0.333564    0.652438    0.252076    0.000000
   110  O2    c     0.361855    0.674714    0.585094    0.000000
   111  O2    c     0.335147    0.674147    0.917507    0.000000
   112  O2    c     0.686663    0.350479    0.748831    0.000000
   113  O2    c     0.651366    0.331743    0.086365    0.000000
   114  O2    c     0.684653    0.323263    0.419220    0.000000
   115  O3    c     0.371545    0.318656    0.975367    0.000000
   116  O2    c     0.682927    0.048791    0.305360    0.000000
   117  O2    c     0.963937    0.624479    0.638935    0.000000
   118  O2    c     0.633955    0.670575    0.473662    0.000000
   119  O2    c     0.342518    0.954761    0.804977    0.000000
   120  O2    c     0.053388    0.391366    0.141136    0.000000
   121  O2    c     0.338664    0.377707    0.365066    0.000000
   122  O2    c     0.049023    0.667657    0.028739    0.000000
   123  O2    c     0.635287    0.951221    0.696234    0.000000
   124  O2    c     0.688768    0.627010    0.867899    0.000000
   125  O2    c     0.964085    0.329441    0.530815    0.000000
   126  O2    c     0.385257    0.055768    0.199733    0.000000
   127  O2    c     0.771728    0.298879    0.015796    0.000000
   128  O2    c     0.704704    0.468965    0.347102    0.000000
   129  O2    c     0.540476    0.225340    0.677225    0.000000
   130  O2    c     0.237067    0.695626    0.512625    0.000000
   131  O2    c     0.323572    0.532340    0.847397    0.000000
   132  O2    c     0.475099    0.779708    0.179248    0.000000
   133  O2    c     0.318304    0.778068    0.325072    0.000000
   134  O2    c     0.474913    0.701214    0.990111    0.000000
   135  O2    c     0.236616    0.530167    0.657760    0.000000
   136  O2    c     0.705069    0.226543    0.822016    0.000000
   137  O2    c     0.540328    0.303426    0.491895    0.000000
   138  O2    c     0.780298    0.482443    0.157002    0.000000
   139  O2    c     0.790077    0.530455    0.026103    0.000000
   140  O2    c     0.473623    0.253163    0.363830    0.000000
   141  O2    c     0.756369    0.209389    0.693374    0.000000
   142  O2    c     0.222517    0.464077    0.529847    0.000000
   143  O2    c     0.547764    0.740581    0.868791    0.000000
   144  O2    c     0.261290    0.795387    0.198610    0.000000
   145  O2    c     0.548762    0.789794    0.305167    0.000000
   146  O2    c     0.268546    0.470361    0.972122    0.000000
   147  O2    c     0.222695    0.747962    0.640326    0.000000
   148  O2    c     0.475609    0.214616    0.804631    0.000000
   149  O2    c     0.757582    0.534983    0.475191    0.000000
   150  O2    c     0.792747    0.265315    0.142916    0.000000
   151  O2    c     0.251168    0.325703    0.900080    0.000000
   152  O2    c     0.689931    0.919513    0.231056    0.000000
   153  O2    c     0.098187    0.766275    0.566302    0.000000
   154  O2    c     0.776205    0.677575    0.401450    0.000000
   155  O2    c     0.332405    0.086915    0.731663    0.000000
   156  O2    c     0.913728    0.234939    0.070440    0.000000
   157  O2    c     0.331349    0.234368    0.437673    0.000000
   158  O2    c     0.908804    0.682188    0.099177    0.000000
   159  O2    c     0.778302    0.089882    0.767870    0.000000
   160  O2    c     0.690802    0.763556    0.941475    0.000000
   161  O2    c     0.098971    0.321481    0.603599    0.000000
   162  O2    c     0.246639    0.919772    0.272456    0.000000
   163  O3    c     0.605508    0.574024    0.002850    0.000000
   164  O2    c     0.455303    0.034723    0.327252    0.000000
   165  O2    c     0.978157    0.409813    0.658776    0.000000
   166  O2    c     0.419688    0.441861    0.493248    0.000000
   167  O2    c     0.571297    0.966784    0.823708    0.000000
   168  O2    c     0.041840    0.609798    0.156042    0.000000
   169  O2    c     0.567415    0.590599    0.345898    0.000000
   170  O2    c     0.034478    0.437302    0.012683    0.000000
   171  O2    c     0.421887    0.967251    0.676304    0.000000
   172  O2    c     0.460670    0.415736    0.846806    0.000000
   173  O2    c     0.979204    0.557908    0.510673    0.000000
   174  O2    c     0.595547    0.040593    0.177660    0.000000
   175  O2    c     0.595079    0.174544    0.252969    0.000000
   176  O2    c     0.842466    0.416856    0.584324    0.000000
   177  O3    c     0.611581    0.412898    0.915733    0.000000
   178  O2    c     0.426538    0.830250    0.750418    0.000000
   179  O2    c     0.177434    0.591061    0.084157    0.000000
   180  O2    c     0.425050    0.584967    0.419171    0.000000
   181  F     c     0.466853    0.913645    0.252250    0.000000
   182  F     c     0.102888    0.546405    0.585494    0.000000
   183  F     c     0.486425    0.526573    0.928797    0.000000
   184  F     c     0.555743    0.089576    0.750488    0.000000
   185  F     c     0.917401    0.461549    0.085555    0.000000
   186  F     c     0.556039    0.454062    0.420017    0.000000
   187  O3    s     0.945749    0.010628    0.998125    0.000000
   188  O2    s     0.008441    0.927942    0.337699    0.000000
   189  O2    s     0.086236    0.073382    0.669542    0.000000
   190  O2    s     0.082717    0.999280    0.502826    0.000000
   191  O2    s     0.013359    0.074751    0.835748    0.000000
   192  O3    s     0.944780    0.946403    0.179240    0.000000
   193  O2    s     0.364673    0.593465    0.335213    0.000000
   194  O2    s     0.421009    0.761463    0.667607    0.000000
   195  O2    s     0.238681    0.646210    0.000103    0.000000
   196  O2    s     0.663389    0.415107    0.830535    0.000000
   197  O2    s     0.595806    0.248706    0.170309    0.000000
   198  O2    s     0.773254    0.352022    0.501548    0.000000
   199  O3    s     0.591607    0.350786    0.003396    0.000000
   200  O2    s     0.772875    0.410038    0.666702    0.000000
   201  O2    s     0.658243    0.237795    0.336267    0.000000
   202  O2    s     0.420690    0.647174    0.502335    0.000000
   203  O2    s     0.243575    0.599960    0.168669    0.000000
   204  O2    s     0.368439    0.764109    0.834127    0.000000
   205  O2    s     0.124909    0.225628    0.971296    0.000000
   206  O2    s     0.796266    0.909796    0.302972    0.000000
   207  O2    s     0.101665    0.875816    0.638012    0.000000
   208  O2    s     0.886236    0.784123    0.472727    0.000000
   209  O2    s     0.227131    0.091352    0.803703    0.000000
   210  O3    s     0.920705    0.148905    0.144833    0.000000
   211  O2    s     0.225437    0.125827    0.366147    0.000000
   212  O3    s     0.911477    0.775256    0.026061    0.000000
   213  O2    s     0.887529    0.091292    0.697083    0.000000
   214  O2    s     0.797714    0.879145    0.868328    0.000000
   215  O2    s     0.102186    0.216142    0.531739    0.000000
   216  O2    s     0.135962    0.914361    0.200353    0.000000
   217  O2    s     0.945389    0.852069    0.255818    0.000000
   218  O2    s     0.147563    0.070393    0.585636    0.000000
   219  O2    s     0.936261    0.081764    0.917197    0.000000
   220  O2    s     0.078678    0.140805    0.752381    0.000000
   221  O1    s     0.895671    0.945892    0.088769    0.000000
   222  O2    s     0.080540    0.932779    0.419820    0.000000
   223  O2    s     0.907418    0.201425    0.987268    0.000000
   224  O2    s     0.802904    0.706419    0.319964    0.000000
   225  O2    s     0.304194    0.086343    0.649594    0.000000
   226  O2    s     0.098298    0.794264    0.484310    0.000000
   227  O2    s     0.221627    0.294145    0.817355    0.000000
   228  O3    s     0.704638    0.917897    0.149554    0.000000
   229  O2    s     0.217458    0.915086    0.354389    0.000000
   230  O3    s     0.705473    0.809869    0.023527    0.000000
   231  O2    s     0.098764    0.293481    0.685975    0.000000
   232  O2    s     0.805813    0.089723    0.849696    0.000000
   233  O2    s     0.303183    0.204712    0.519906    0.000000
   234  O2    s     0.917699    0.720281    0.182087    0.000000
   235  O2    s     0.339487    0.664163    0.252099    0.000000
   236  O2    s     0.350129    0.668933    0.585100    0.000000
   237  O2    s     0.340839    0.669361    0.917542    0.000000
   238  O2    s     0.680729    0.338953    0.748868    0.000000
   239  O2    s     0.662146    0.336602    0.086516    0.000000
   240  O2    s     0.678855    0.329186    0.419217    0.000000
   241  O3    s     0.370680    0.328415    0.972574    0.000000
   242  O2    s     0.672915    0.042295    0.303095    0.000000
   243  O2    s     0.970714    0.621214    0.636617    0.000000
   244  O2    s     0.630787    0.660582    0.471393    0.000000
   245  O2    s     0.352385    0.961218    0.802588    0.000000
   246  O2    s     0.046725    0.394780    0.138743    0.000000
   247  O2    s     0.348590    0.380901    0.367288    0.000000
   248  O2    s     0.042363    0.657246    0.030974    0.000000
   249  O2    s     0.632048    0.958140    0.698387    0.000000
   250  O2    s     0.679752    0.624498    0.869888    0.000000
   251  O2    s     0.970839    0.339445    0.533041    0.000000
   252  O2    s     0.388741    0.049039    0.201886    0.000000
   253  O2    s     0.779084    0.306759    0.018441    0.000000
   254  O2    s     0.697066    0.468276    0.350217    0.000000
   255  O2    s     0.541293    0.218334    0.680311    0.000000
   256  O2    s     0.229974    0.687917    0.515711    0.000000
   257  O2    s     0.330386    0.533217    0.850141    0.000000
   258  O2    s     0.474420    0.786800    0.182354    0.000000
   259  O2    s     0.325606    0.785036    0.322009    0.000000
   260  O2    s     0.473712    0.693429    0.987834    0.000000
   261  O2    s     0.229607    0.530762    0.654599    0.000000
   262  O2    s     0.697840    0.219740    0.818816    0.000000
   263  O2    s     0.540879    0.311122    0.488749    0.000000
   264  O2    s     0.786698    0.481452    0.153830    0.000000
   265  O2    s     0.794922    0.528813    0.028955    0.000000
   266  O2    s     0.476288    0.260899    0.366425    0.000000
   267  O2    s     0.748918    0.204536    0.696084    0.000000
   268  O2    s     0.217334    0.466764    0.532436    0.000000
   269  O2    s     0.545034    0.734462    0.870618    0.000000
   270  O2    s     0.269496    0.800489    0.201117    0.000000
   271  O2    s     0.545762    0.795148    0.302786    0.000000
   272  O2    s     0.274842    0.473597    0.970045    0.000000
   273  O2    s     0.217442    0.739986    0.637708    0.000000
   274  O2    s     0.478230    0.209184    0.802113    0.000000
   275  O2    s     0.749735    0.532467    0.472523    0.000000
   276  O2    s     0.797855    0.273292    0.140264    0.000000
   277  O2    s     0.259450    0.334453    0.900524    0.000000
   278  O2    s     0.680160    0.918808    0.232199    0.000000
   279  O2    s     0.098534    0.756937    0.567231    0.000000
   280  O2    s     0.766739    0.667961    0.402403    0.000000
   281  O2    s     0.342146    0.087385    0.732593    0.000000
   282  O2    s     0.913578    0.244795    0.071003    0.000000
   283  O2    s     0.340995    0.243710    0.436821    0.000000
   284  O2    s     0.909596    0.672818    0.098752    0.000000
   285  O2    s     0.768646    0.089809    0.766956    0.000000
   286  O2    s     0.682371    0.756541    0.940172    0.000000
   287  O2    s     0.099189    0.331163    0.602740    0.000000
   288  O2    s     0.255885    0.919173    0.271570    0.000000
   289  O3    s     0.601744    0.578799    0.999112    0.000000
   290  O2    s     0.454699    0.029815    0.323820    0.000000
   291  O2    s     0.983257    0.414585    0.655371    0.000000
   292  O2    s     0.424421    0.441546    0.489850    0.000000
   293  O2    s     0.570986    0.971948    0.820289    0.000000
   294  O2    s     0.036324    0.603744    0.152930    0.000000
   295  O2    s     0.567452    0.585801    0.349265    0.000000
   296  O2    s     0.029569    0.437948    0.015941    0.000000
   297  O2    s     0.426466    0.972081    0.679698    0.000000
   298  O2    s     0.459232    0.418804    0.849586    0.000000
   299  O2    s     0.983971    0.558114    0.514063    0.000000
   300  O2    s     0.591111    0.035842    0.181048    0.000000
   301  O2    s     0.589557    0.163646    0.252890    0.000000
   302  O2    s     0.853521    0.422272    0.584343    0.000000
   303  O3    s     0.606294    0.420167    0.913920    0.000000
   304  O2    s     0.432271    0.841476    0.750469    0.000000
   305  O2    s     0.165837    0.585474    0.084220    0.000000
   306  O2    s     0.430593    0.579481    0.419136    0.000000
   307  F     s     0.466923    0.913347    0.252242    0.000000
   308  F     s     0.103216    0.546601    0.585571    0.000000
   309  F     s     0.490229    0.520426    0.931323    0.000000
   310  F     s     0.555733    0.089572    0.750576    0.000000
   311  F     s     0.917910    0.461692    0.085628    0.000000
   312  F     s     0.556267    0.453930    0.420096    0.000000
--------------------------------------------------------------------------------

  Final Cartesian lattice vectors (Angstroms) :

       11.965869    0.000397   -0.002395
       -5.944271   10.386741   -0.000348
       -0.061415    0.073461   29.472535


  Final cell parameters and derivatives :

--------------------------------------------------------------------------------
       a           11.965869 Angstrom     dE/de1(xx)    -0.003273 eV/strain
       b           11.967403 Angstrom     dE/de2(yy)    -0.001578 eV/strain
       c           29.472690 Angstrom     dE/de3(zz)    -0.004005 eV/strain
       alpha       89.818412 Degrees      dE/de4(yz)    -0.000082 eV/strain
       beta        90.130857 Degrees      dE/de5(xz)    -0.000140 eV/strain
       gamma      119.780354 Degrees      dE/de6(xy)    -0.000739 eV/strain
--------------------------------------------------------------------------------

  Primitive cell volume =          3663.103864 Angs**3

  Density of cell =      1.746631 g/cm**3

  Non-primitive cell volume =          3663.103864 Angs**3


  Final internal derivatives :

--------------------------------------------------------------------------------
   No.  Atomic          a             b             c           Radius
        Label          (eV)          (eV)          (eV)        (eV/Angs)
--------------------------------------------------------------------------------
      1 Si    c       0.000000      0.000000      0.000000      0.000000
      2 Si    c      -0.000014      0.000002     -0.000558      0.000000
      3 Si    c       0.000004      0.000058      0.000363      0.000000
      4 Si    c       0.000153     -0.000051     -0.000497      0.000000
      5 Si    c      -0.000166      0.000190      0.000978      0.000000
      6 Si    c      -0.000115      0.000274     -0.001288      0.000000
      7 Si    c      -0.000112      0.000026      0.000204      0.000000
      8 Si    c      -0.000302      0.000510     -0.000376      0.000000
      9 Si    c      -0.000069     -0.000083      0.000496      0.000000
     10 Si    c       0.000154      0.000338      0.000302      0.000000
     11 Si    c       0.000090     -0.000086      0.000452      0.000000
     12 Si    c      -0.001327      0.000750     -0.009498      0.000000
     13 Ge    c       0.001023     -0.000730     -0.001342      0.000000
     14 Si    c      -0.000014      0.000094     -0.000022      0.000000
     15 Si    c      -0.000026      0.000070      0.000150      0.000000
     16 Si    c      -0.000014      0.000042      0.000189      0.000000
     17 Si    c      -0.000029     -0.000223     -0.000917      0.000000
     18 Si    c       0.000474      0.000059     -0.003847      0.000000
     19 Si    c      -0.000030     -0.000008     -0.000266      0.000000
     20 Si    c       0.000767      0.000011      0.003302      0.000000
     21 Si    c      -0.000121     -0.000014      0.000499      0.000000
     22 Si    c       0.000327     -0.000501      0.002189      0.000000
     23 Si    c      -0.000045      0.000035     -0.000238      0.000000
     24 Si    c       0.000080     -0.000233     -0.000475      0.000000
     25 Si    c      -0.000133      0.000224      0.001566      0.000000
     26 Si    c      -0.000316      0.000033     -0.000095      0.000000
     27 Si    c      -0.000017     -0.000112      0.000087      0.000000
     28 Si    c      -0.000054     -0.000125      0.000069      0.000000
     29 Si    c       0.000071     -0.000009      0.000609      0.000000
     30 Si    c      -0.000541     -0.000407      0.004283      0.000000
     31 Si    c       0.000066      0.000101     -0.000228      0.000000
     32 Si    c      -0.000357      0.000040     -0.004403      0.000000
     33 Si    c       0.000081      0.000271     -0.000330      0.000000
     34 Si    c      -0.000235     -0.000008     -0.000552      0.000000
     35 Si    c       0.000012      0.000174     -0.000109      0.000000
     36 Si    c       0.000177     -0.000170     -0.000356      0.000000
     37 Si    c      -0.000399     -0.000124     -0.001270      0.000000
     38 Si    c      -0.000265     -0.000010     -0.000044      0.000000
     39 Si    c       0.000021     -0.000144      0.000015      0.000000
     40 Si    c      -0.000069     -0.000125     -0.000052      0.000000
     41 Si    c       0.000031     -0.000103     -0.000781      0.000000
     42 Si    c      -0.000383      0.000108     -0.003006      0.000000
     43 Si    c       0.000091      0.000097     -0.000091      0.000000
     44 Si    c      -0.000145      0.000050      0.006315      0.000000
     45 Si    c      -0.000184      0.000227      0.000573      0.000000
     46 Si    c      -0.000370      0.000068      0.000582      0.000000
     47 Si    c      -0.000002      0.000130     -0.000029      0.000000
     48 Si    c       0.000125     -0.000012      0.000029      0.000000
     49 Si    c      -0.000828      0.004291     -0.004755      0.000000
     50 Si    c       0.000063     -0.000072     -0.000351      0.000000
     51 Si    c       0.000019     -0.000063     -0.000110      0.000000
     52 Si    c       0.000032     -0.000092      0.000185      0.000000
     53 Si    c       0.000093     -0.000292     -0.000931      0.000000
     54 Ge    c      -0.001696      0.000219      0.002987      0.000000
     55 Si    c       0.000019     -0.000036     -0.000092      0.000000
     56 Ge    c      -0.001266     -0.001939      0.003735      0.000000
     57 Si    c       0.000138     -0.000195      0.001908      0.000000
     58 Si    c      -0.000252      0.000135      0.000374      0.000000
     59 Si    c       0.000008      0.000016      0.000050      0.000000
     60 Si    c       0.002091     -0.001366      0.000035      0.000000
     61 O3    c       0.004199     -0.004677      0.000657      0.000000
     62 O2    c       0.000115     -0.000016      0.000176      0.000000
     63 O2    c      -0.000022      0.000037     -0.000058      0.000000
     64 O2    c       0.000038      0.000002     -0.000016      0.000000
     65 O2    c       0.000003      0.000005     -0.000198      0.000000
     66 O3    c      -0.001792      0.003016     -0.000553      0.000000
     67 O2    c       0.000153      0.000025      0.000134      0.000000
     68 O2    c      -0.000125      0.000073     -0.000155      0.000000
     69 O2    c       0.000924     -0.000720     -0.001329      0.000000
     70 O2    c       0.000045     -0.000528     -0.000911      0.000000
     71 O2    c       0.000527      0.000022     -0.000558      0.000000
     72 O2    c      -0.000169      0.000209     -0.000213      0.000000
     73 O3    c      -0.000868      0.001310     -0.002607      0.000000
     74 O2    c       0.000039     -0.000231      0.000142      0.000000
     75 O2    c      -0.000234      0.000209      0.000408      0.000000
     76 O2    c      -0.000156     -0.000082      0.000188      0.000000
     77 O2    c      -0.000047      0.000682      0.001651      0.000000
     78 O2    c       0.000323     -0.000346      0.000634      0.000000
     79 O2    c       0.000240     -0.000152     -0.000254      0.000000
     80 O2    c       0.000125     -0.000108      0.000071      0.000000
     81 O2    c       0.000006      0.000069     -0.000009      0.000000
     82 O2    c       0.000107      0.000029     -0.000009      0.000000
     83 O2    c      -0.000070      0.000072     -0.000044      0.000000
     84 O3    c      -0.000583      0.002183      0.001059      0.000000
     85 O2    c       0.000005     -0.000027     -0.000014      0.000000
     86 O3    c       0.000307      0.000166     -0.001323      0.000000
     87 O2    c       0.000266     -0.000055      0.000052      0.000000
     88 O2    c       0.000001     -0.000101     -0.000146      0.000000
     89 O2    c       0.000104     -0.000139      0.000034      0.000000
     90 O2    c      -0.000570      0.000193      0.000326      0.000000
     91 O2    c      -0.000553      0.000164      0.004226      0.000000
     92 O2    c      -0.000012      0.000030     -0.000264      0.000000
     93 O2    c      -0.000459     -0.000221     -0.004511      0.000000
     94 O2    c      -0.000327      0.000303     -0.002666      0.000000
     95 O1    c       0.003025     -0.000822     -0.006475      0.000000
     96 O2    c       0.000036      0.000028     -0.000320      0.000000
     97 O2    c      -0.000713      0.000455     -0.000045      0.000000
     98 O2    c      -0.000026      0.000127      0.000028      0.000000
     99 O2    c       0.000009     -0.000045      0.000043      0.000000
    100 O2    c      -0.000107      0.000115     -0.000073      0.000000
    101 O2    c       0.000005      0.000073     -0.000048      0.000000
    102 O3    c      -0.000192     -0.000030     -0.001170      0.000000
    103 O2    c      -0.000122      0.000151      0.000078      0.000000
    104 O3    c      -0.000477      0.000342      0.000477      0.000000
    105 O2    c       0.000017     -0.000129     -0.000041      0.000000
    106 O2    c       0.000089     -0.000157      0.000086      0.000000
    107 O2    c      -0.000123     -0.000009      0.000082      0.000000
    108 O2    c       0.000023     -0.000806     -0.000568      0.000000
    109 O2    c       0.000030      0.000082      0.000446      0.000000
    110 O2    c      -0.000027     -0.000028     -0.000220      0.000000
    111 O2    c       0.000437     -0.000405      0.000137      0.000000
    112 O2    c       0.000017     -0.000263      0.000037      0.000000
    113 O2    c       0.002821      0.000098     -0.001825      0.000000
    114 O2    c      -0.000039      0.000049      0.000126      0.000000
    115 O3    c      -0.000406      0.000046     -0.000280      0.000000
    116 O2    c       0.000073     -0.000165     -0.000100      0.000000
    117 O2    c       0.000105     -0.000011     -0.000148      0.000000
    118 O2    c       0.000004     -0.000070     -0.000095      0.000000
    119 O2    c      -0.000129      0.000202     -0.000175      0.000000
    120 O2    c      -0.000183     -0.000158     -0.000104      0.000000
    121 O2    c       0.000099     -0.000081      0.000091      0.000000
    122 O2    c      -0.000324      0.000058      0.000562      0.000000
    123 O2    c       0.000051      0.000036      0.000011      0.000000
    124 O2    c       0.000011      0.000101      0.000090      0.000000
    125 O2    c       0.000029      0.000009      0.000048      0.000000
    126 O2    c      -0.000007     -0.000084      0.000272      0.000000
    127 O2    c       0.000859     -0.000537      0.000472      0.000000
    128 O2    c      -0.000105      0.000074      0.000171      0.000000
    129 O2    c      -0.000004     -0.000127      0.000100      0.000000
    130 O2    c       0.000012     -0.000045      0.000047      0.000000
    131 O2    c       0.000306     -0.000585      0.000141      0.000000
    132 O2    c      -0.000023      0.000233      0.000516      0.000000
    133 O2    c      -0.000026      0.000210     -0.000223      0.000000
    134 O2    c       0.000580     -0.000348     -0.000001      0.000000
    135 O2    c      -0.000097      0.000102     -0.000309      0.000000
    136 O2    c       0.000163     -0.000357     -0.000328      0.000000
    137 O2    c      -0.000070      0.000083     -0.000118      0.000000
    138 O2    c       0.000274      0.000060     -0.000733      0.000000
    139 O2    c       0.000296      0.000839      0.001490      0.000000
    140 O2    c      -0.000040      0.000119      0.000229      0.000000
    141 O2    c       0.000073     -0.000266      0.000360      0.000000
    142 O2    c      -0.000142     -0.000051      0.000333      0.000000
    143 O2    c       0.000255     -0.000224      0.000535      0.000000
    144 O2    c       0.000448     -0.000177      0.000629      0.000000
    145 O2    c       0.000205      0.000208     -0.000451      0.000000
    146 O2    c       0.000232     -0.000358     -0.000552      0.000000
    147 O2    c      -0.000004     -0.000083     -0.000197      0.000000
    148 O2    c       0.000002     -0.000163     -0.000156      0.000000
    149 O2    c      -0.000128      0.000194     -0.000306      0.000000
    150 O2    c       0.000509     -0.000313     -0.000480      0.000000
    151 O2    c       0.000318      0.000109     -0.000311      0.000000
    152 O2    c      -0.000149      0.000035      0.000073      0.000000
    153 O2    c       0.000057     -0.000079      0.000083      0.000000
    154 O2    c      -0.000052     -0.000021      0.000191      0.000000
    155 O2    c       0.000247     -0.000111      0.000540      0.000000
    156 O2    c      -0.000875      0.001554     -0.000316      0.000000
    157 O2    c       0.000073      0.000031      0.000082      0.000000
    158 O2    c       0.000816     -0.001726     -0.003016      0.000000
    159 O2    c      -0.000213      0.000057     -0.000242      0.000000
    160 O2    c      -0.000294     -0.000144      0.000309      0.000000
    161 O2    c      -0.000027      0.000039     -0.000159      0.000000
    162 O2    c       0.000166     -0.000077     -0.000266      0.000000
    163 O3    c      -0.000100      0.000678     -0.000087      0.000000
    164 O2    c      -0.000115     -0.000055     -0.000141      0.000000
    165 O2    c       0.000036      0.000007     -0.000150      0.000000
    166 O2    c       0.000097     -0.000159     -0.000277      0.000000
    167 O2    c       0.000020     -0.000020      0.000079      0.000000
    168 O2    c      -0.000477      0.000270      0.000133      0.000000
    169 O2    c       0.000072     -0.000071      0.000194      0.000000
    170 O2    c      -0.000081     -0.000053      0.000509      0.000000
    171 O2    c      -0.000013      0.000055      0.000136      0.000000
    172 O2    c      -0.000327      0.000164      0.000074      0.000000
    173 O2    c       0.000085      0.000030      0.000259      0.000000
    174 O2    c      -0.000172      0.000102      0.000475      0.000000
    175 O2    c       0.000030     -0.000088      0.000428      0.000000
    176 O2    c       0.000028     -0.000003     -0.000036      0.000000
    177 O3    c      -0.001046      0.001107     -0.000305      0.000000
    178 O2    c      -0.000000      0.000249      0.000249      0.000000
    179 O2    c      -0.001176     -0.000061      0.000996      0.000000
    180 O2    c       0.000068     -0.000058      0.000106      0.000000
    181 F     c      -0.000014      0.000055      0.000021      0.000000
    182 F     c      -0.000025      0.000005      0.000049      0.000000
    183 F     c       0.000239     -0.000183     -0.000088      0.000000
    184 F     c       0.000005      0.000019     -0.000148      0.000000
    185 F     c       0.000113     -0.000118      0.000872      0.000000
    186 F     c       0.000002     -0.000002     -0.000074      0.000000
    187 O3    s      -0.001102      0.001139     -0.000704      0.000000
    188 O2    s      -0.000116     -0.000004     -0.000138      0.000000
    189 O2    s      -0.000069      0.000101      0.000599      0.000000
    190 O2    s       0.000005      0.000018      0.000067      0.000000
    191 O2    s      -0.000187      0.000428     -0.000022      0.000000
    192 O3    s       0.000694     -0.001151      0.001509      0.000000
    193 O2    s      -0.000037      0.000067     -0.000072      0.000000
    194 O2    s       0.000044     -0.000055     -0.000040      0.000000
    195 O2    s      -0.000201     -0.000190      0.000550      0.000000
    196 O2    s      -0.000209      0.000023     -0.000036      0.000000
    197 O2    s       0.000168      0.000174     -0.000450      0.000000
    198 O2    s       0.000023     -0.000036      0.000009      0.000000
    199 O3    s       0.000572     -0.000771      0.001139      0.000000
    200 O2    s      -0.000002     -0.000034      0.000163      0.000000
    201 O2    s       0.000065     -0.000061     -0.000083      0.000000
    202 O2    s       0.000050      0.000025     -0.000006      0.000000
    203 O2    s      -0.000354      0.000038     -0.000645      0.000000
    204 O2    s       0.000209     -0.000111      0.000254      0.000000
    205 O2    s       0.000447      0.001017      0.000503      0.000000
    206 O2    s      -0.000011      0.000016     -0.000179      0.000000
    207 O2    s       0.000040     -0.000029     -0.000124      0.000000
    208 O2    s      -0.000024     -0.000041     -0.000092      0.000000
    209 O2    s       0.000150      0.000049     -0.000324      0.000000
    210 O3    s      -0.000246      0.000421     -0.001312      0.000000
    211 O2    s       0.000040     -0.000033      0.000204      0.000000
    212 O3    s       0.000555     -0.002103      0.002247      0.000000
    213 O2    s       0.000074      0.000155      0.000450      0.000000
    214 O2    s      -0.000286     -0.000015      0.000570      0.000000
    215 O2    s       0.000034      0.000021      0.000093      0.000000
    216 O2    s       0.000828     -0.000512     -0.000309      0.000000
    217 O2    s       0.000106     -0.000045      0.001029      0.000000
    218 O2    s       0.000026      0.000006      0.000022      0.000000
    219 O2    s       0.000200     -0.000236     -0.002948      0.000000
    220 O2    s       0.000098     -0.000123      0.000363      0.000000
    221 O1    s      -0.000724     -0.000118      0.005321      0.000000
    222 O2    s      -0.000010     -0.000024     -0.000014      0.000000
    223 O2    s      -0.000451      0.001859      0.002745      0.000000
    224 O2    s      -0.000015      0.000076     -0.000155      0.000000
    225 O2    s       0.000008      0.000014      0.000292      0.000000
    226 O2    s      -0.000019     -0.000013      0.000102      0.000000
    227 O2    s       0.000133     -0.000014      0.000882      0.000000
    228 O3    s      -0.000504      0.000041      0.002646      0.000000
    229 O2    s       0.000040     -0.000054     -0.000321      0.000000
    230 O3    s      -0.000517     -0.000535     -0.001815      0.000000
    231 O2    s      -0.000127     -0.000145      0.000339      0.000000
    232 O2    s       0.000119     -0.000180     -0.001134      0.000000
    233 O2    s      -0.000031      0.000034     -0.000042      0.000000
    234 O2    s       0.000284     -0.000665     -0.002653      0.000000
    235 O2    s       0.000002      0.000087     -0.000314      0.000000
    236 O2    s      -0.000027     -0.000009     -0.000017      0.000000
    237 O2    s      -0.000069      0.000003      0.000165      0.000000
    238 O2    s      -0.000092     -0.000003      0.000338      0.000000
    239 O2    s      -0.001777     -0.000060      0.002645      0.000000
    240 O2    s      -0.000045      0.000070     -0.000097      0.000000
    241 O3    s       0.000348      0.000307     -0.000006      0.000000
    242 O2    s      -0.000117     -0.000028     -0.000395      0.000000
    243 O2    s      -0.000010     -0.000003     -0.000055      0.000000
    244 O2    s       0.000023     -0.000022     -0.000082      0.000000
    245 O2    s       0.000146      0.000021     -0.000020      0.000000
    246 O2    s      -0.000341      0.000355     -0.000724      0.000000
    247 O2    s      -0.000011      0.000055      0.000178      0.000000
    248 O2    s      -0.000310     -0.000521      0.000816      0.000000
    249 O2    s      -0.000047      0.000110      0.000218      0.000000
    250 O2    s      -0.000337      0.000168      0.000009      0.000000
    251 O2    s       0.000046      0.000018      0.000134      0.000000
    252 O2    s       0.000020     -0.000029     -0.000093      0.000000
    253 O2    s       0.000610      0.000330     -0.001398      0.000000
    254 O2    s       0.000049     -0.000042      0.000204      0.000000
    255 O2    s       0.000029      0.000014      0.000307      0.000000
    256 O2    s       0.000039     -0.000038      0.000229      0.000000
    257 O2    s       0.000071      0.000023      0.000706      0.000000
    258 O2    s      -0.000169     -0.000150      0.000074      0.000000
    259 O2    s       0.000083      0.000014     -0.000367      0.000000
    260 O2    s      -0.000269     -0.000019     -0.000620      0.000000
    261 O2    s       0.000064     -0.000051      0.000033      0.000000
    262 O2    s      -0.000236      0.000234     -0.000144      0.000000
    263 O2    s       0.000023      0.000016     -0.000172      0.000000
    264 O2    s       0.000060     -0.000005      0.000549      0.000000
    265 O2    s       0.000935     -0.000291     -0.001186      0.000000
    266 O2    s       0.000096     -0.000122     -0.000074      0.000000
    267 O2    s      -0.000014      0.000062      0.000039      0.000000
    268 O2    s       0.000035      0.000014     -0.000111      0.000000
    269 O2    s      -0.000102      0.000046     -0.000101      0.000000
    270 O2    s      -0.000185     -0.000320     -0.000677      0.000000
    271 O2    s      -0.000169      0.000158     -0.000153      0.000000
    272 O2    s      -0.000079      0.000161      0.000276      0.000000
    273 O2    s       0.000015      0.000083      0.000095      0.000000
    274 O2    s       0.000100      0.000104     -0.000285      0.000000
    275 O2    s       0.000020     -0.000053      0.000087      0.000000
    276 O2    s       0.000128      0.000262     -0.000213      0.000000
    277 O2    s      -0.000048      0.000283     -0.000630      0.000000
    278 O2    s       0.000070      0.000108      0.000523      0.000000
    279 O2    s      -0.000049      0.000072      0.000098      0.000000
    280 O2    s       0.000036      0.000002     -0.000151      0.000000
    281 O2    s      -0.000102      0.000110     -0.000018      0.000000
    282 O2    s       0.000789     -0.001067     -0.000180      0.000000
    283 O2    s      -0.000039     -0.000013     -0.000040      0.000000
    284 O2    s      -0.000433      0.001104      0.001683      0.000000
    285 O2    s       0.000043      0.000029      0.000082      0.000000
    286 O2    s       0.000112      0.000175     -0.000480      0.000000
    287 O2    s       0.000007     -0.000004     -0.000037      0.000000
    288 O2    s       0.000002     -0.000081      0.000422      0.000000
    289 O3    s      -0.000443     -0.000113     -0.001403      0.000000
    290 O2    s       0.000089     -0.000146     -0.000327      0.000000
    291 O2    s      -0.000004     -0.000033      0.000090      0.000000
    292 O2    s      -0.000008      0.000011      0.000083      0.000000
    293 O2    s      -0.000066      0.000116     -0.000361      0.000000
    294 O2    s      -0.000059     -0.000291     -0.001211      0.000000
    295 O2    s      -0.000013      0.000059      0.000027      0.000000
    296 O2    s      -0.000533      0.000085      0.000976      0.000000
    297 O2    s      -0.000015      0.000085      0.000114      0.000000
    298 O2    s      -0.000273      0.000185      0.000497      0.000000
    299 O2    s      -0.000037     -0.000008     -0.000143      0.000000
    300 O2    s       0.000148     -0.000001      0.000037      0.000000
    301 O2    s       0.000036     -0.000031     -0.000070      0.000000
    302 O2    s       0.000042      0.000005      0.000009      0.000000
    303 O3    s       0.000201     -0.000408      0.000208      0.000000
    304 O2    s       0.000001     -0.000058      0.000077      0.000000
    305 O2    s       0.000073      0.000021     -0.000484      0.000000
    306 O2    s       0.000041     -0.000050     -0.000063      0.000000
    307 F     s       0.000098     -0.000118      0.000206      0.000000
    308 F     s       0.000076     -0.000034     -0.000108      0.000000
    309 F     s      -0.000114      0.000010      0.000613      0.000000
    310 F     s       0.000004     -0.000020      0.000335      0.000000
    311 F     s       0.000016      0.000283     -0.001896      0.000000
    312 F     s       0.000018      0.000004      0.000151      0.000000
--------------------------------------------------------------------------------
  Maximum abs         0.004199      0.004677      0.009498      0.000000
--------------------------------------------------------------------------------


  Time to end of optimisation =       5.8056 seconds


  Peak dynamic memory used =      19.13 MB 


  Timing analysis for GULP :

--------------------------------------------------------------------------------
  Task / Subroutine                                          Time (Seconds)
--------------------------------------------------------------------------------
  Calculation of reciprocal space energy and derivatives          0.2552
  Calculation of real space energy and derivatives                4.7827
  Calculation of three-body energy and derivatives                0.5289
  Calculation of matrix inversion                                 0.2037
--------------------------------------------------------------------------------
  Total CPU time                                                  5.8056
--------------------------------------------------------------------------------


  Dump file written as out.res                                                 
  CIF file written as out.cif                                                 


  Job Finished at 11:01.35 27th November   2016                               

