********************************************************************************
*                       GENERAL UTILITY LATTICE PROGRAM                        *
*                                 Julian Gale                                  *
*                      Nanochemistry Research Institute                        *
*                           Department of Chemistry                            *
*                    Curtin University, Western Australia                      *
********************************************************************************
* Version = 4.2.0 * Last modified =  20th January 2014                         *
********************************************************************************
*  optimise     - perform optimisation run                                     *
*  conp         - constant pressure calculation                                *
*  qok          - running with non charge neutral cell is OK                   *
********************************************************************************

  Job Started  at 03:45.51 27th November   2016                               

  Number of CPUs =     1


  Total number of configurations input =   1

********************************************************************************
*  Input for Configuration =   1                                               *
********************************************************************************

  Formula = Si57Ge3O120F6                                               

  Number of irreducible atoms/shells =     312


  Total number atoms/shells =     312

  Dimensionality = 3               :  Bulk   


  Charge on solid   =  -6.000000 =>neutralising background added


  Cartesian lattice vectors (Angstroms) :

       11.989707    0.000000    0.000000
       -6.018825   10.381043    0.000000
        0.070217   -0.328191   29.387571

  Cell parameters (Angstroms/Degrees):

  a =      11.9897    alpha =  90.6222
  b =      11.9997    beta  =  89.8631
  c =      29.3895    gamma = 120.1047

  Initial cell volume =        3657.743381 Angs**3

  Temperature of configuration =  0.000     K 

  Pressure of configuration =         0.000 GPa 

  Fractional coordinates of asymmetric unit :

--------------------------------------------------------------------------------
   No.  Atomic       x           y          z         Charge      Occupancy
        Label      (Frac)      (Frac)     (Frac)        (e)         (Frac)  
--------------------------------------------------------------------------------
      1 Si    c    0.699600    0.375700    0.033890     4.00000    1.000000    
      2 Si    c    0.621079 *  0.323147 *  0.366438 *   4.00000    1.000000    
      3 Si    c    0.678859 *  0.296296 *  0.698292 *   4.00000    1.000000    
      4 Si    c    0.297531 *  0.620639 *  0.533892 *   4.00000    1.000000    
      5 Si    c    0.374834 *  0.681854 *  0.864541 *   4.00000    1.000000    
      6 Si    c    0.328930 *  0.696686 *  0.202690 *   4.00000    1.000000    
      7 Si    c    0.384398 *  0.701888 *  0.303291 *   4.00000    1.000000    
      8 Si    c    0.319593 *  0.617589 *  0.966828 *   4.00000    1.000000    
      9 Si    c    0.295326 *  0.675544 *  0.634781 *   4.00000    1.000000    
     10 Si    c    0.628958 *  0.299775 *  0.799393 *   4.00000    1.000000    
     11 Si    c    0.676610 *  0.377996 *  0.467507 *   4.00000    1.000000    
     12 Si    c    0.690443 *  0.319162 *  0.136687 *   4.00000    1.000000    
     13 Si    c    0.530349 *  0.412152 *  0.966057 *   4.00000    1.000000    
     14 Si    c    0.584694 *  0.111728 *  0.301346 *   4.00000    1.000000    
     15 Si    c    0.887818 *  0.469727 *  0.633639 *   4.00000    1.000000    
     16 Si    c    0.471262 *  0.581775 *  0.469805 *   4.00000    1.000000    
     17 Si    c    0.418592 *  0.895499 *  0.801296 *   4.00000    1.000000    
     18 Si    c    0.120427 *  0.535132 *  0.138148 *   4.00000    1.000000    
     19 Si    c    0.418761 *  0.528466 *  0.367975 *   4.00000    1.000000    
     20 Si    c    0.116128 *  0.586162 *  0.035027 *   4.00000    1.000000    
     21 Si    c    0.468544 *  0.887245 *  0.699869 *   4.00000    1.000000    
     22 Si    c    0.589494 *  0.469691 *  0.862808 *   4.00000    1.000000    
     23 Si    c    0.888340 *  0.416541 *  0.531744 *   4.00000    1.000000    
     24 Si    c    0.525503 *  0.103481 *  0.200058 *   4.00000    1.000000    
     25 Ge    c    0.316113 *  0.411301 *  0.856330 *   4.00000    1.000000    
     26 Si    c    0.602508 *  0.899838 *  0.185848 *   4.00000    1.000000    
     27 Si    c    0.097048 *  0.697036 *  0.518313 *   4.00000    1.000000    
     28 Si    c    0.698796 *  0.601309 *  0.352730 *   4.00000    1.000000    
     29 Si    c    0.398688 *  0.096420 *  0.684988 *   4.00000    1.000000    
     30 Si    c    0.903931 *  0.298843 *  0.020568 *   4.00000    1.000000    
     31 Si    c    0.399026 *  0.301461 *  0.483056 *   4.00000    1.000000    
     32 Ge    c    0.903156 *  0.589824 *  0.143025 *   4.00000    1.000000    
     33 Si    c    0.701082 *  0.097329 *  0.814472 *   4.00000    1.000000    
     34 Si    c    0.601282 *  0.696368 *  0.981728 *   4.00000    1.000000    
     35 Si    c    0.095039 *  0.397032 *  0.648891 *   4.00000    1.000000    
     36 Si    c    0.304827 *  0.902118 *  0.317279 *   4.00000    1.000000    
     37 Si    c    0.246776 *  0.331120 *  0.952398 *   4.00000    1.000000    
     38 Si    c    0.664865 *  0.912408 *  0.286317 *   4.00000    1.000000    
     39 Si    c    0.087969 *  0.748394 *  0.619339 *   4.00000    1.000000    
     40 Si    c    0.749428 *  0.658863 *  0.453913 *   4.00000    1.000000    
     41 Si    c    0.343691 *  0.097282 *  0.786121 *   4.00000    1.000000    
     42 Si    c    0.909942 *  0.252830 *  0.122973 *   4.00000    1.000000    
     43 Si    c    0.340364 *  0.250337 *  0.381990 *   4.00000    1.000000    
     44 Si    c    0.911679 *  0.664873 *  0.046589 *   4.00000    1.000000    
     45 Si    c    0.748930 *  0.086628 *  0.713582 *   4.00000    1.000000    
     46 Si    c    0.660666 *  0.750406 *  0.879721 *   4.00000    1.000000    
     47 Si    c    0.089029 *  0.339564 *  0.547605 *   4.00000    1.000000    
     48 Si    c    0.249341 *  0.900066 *  0.216265 *   4.00000    1.000000    
     49 Si    c    0.970675 *  0.120798 *  0.967273 *   4.00000    1.000000    
     50 Si    c    0.879976 *  0.847247 *  0.301353 *   4.00000    1.000000    
     51 Si    c    0.150522 *  0.028635 *  0.634391 *   4.00000    1.000000    
     52 Si    c    0.029817 *  0.876763 *  0.468213 *   4.00000    1.000000    
     53 Si    c    0.126503 *  0.161592 *  0.801745 *   4.00000    1.000000    
     54 Ge    c    0.853677 *  0.969245 *  0.135608 *   4.00000    1.000000    
     55 Si    c    0.123029 *  0.969766 *  0.367249 *   4.00000    1.000000    
     56 Si    c    0.850288 *  0.876770 *  0.030781 *   4.00000    1.000000    
     57 Si    c    0.029460 *  0.151002 *  0.700119 *   4.00000    1.000000    
     58 Si    c    0.881513 *  0.031567 *  0.865099 *   4.00000    1.000000    
     59 Si    c    0.151402 *  0.121817 *  0.533459 *   4.00000    1.000000    
     60 Si    c    0.968916 *  0.836773 *  0.199940 *   4.00000    1.000000    
     61 O2    c    0.921871 *  0.994583 *  0.996688 *   0.87073    1.000000    
     62 O2    c    0.002158 *  0.926822 *  0.334183 *   0.87073    1.000000    
     63 O2    c    0.072136 *  0.071225 *  0.667437 *   0.87073    1.000000    
     64 O2    c    0.071980 *  0.999123 *  0.500855 *   0.87073    1.000000    
     65 O2    c    0.001768 *  0.070386 *  0.832695 *   0.87073    1.000000    
     66 O3    c    0.944411 *  0.933397 *  0.169574 *   1.33043    1.000000    
     67 O2    c    0.344263 *  0.580118 *  0.336065 *   0.87073    1.000000    
     68 O2    c    0.418083 *  0.760008 *  0.667875 *   0.87073    1.000000    
     69 O2    c    0.238280 *  0.656553 *  0.001085 *   0.87073    1.000000    
     70 O2    c    0.674330 *  0.424974 *  0.832637 *   0.87073    1.000000    
     71 O2    c    0.565257 *  0.223298 *  0.165974 *   0.87073    1.000000    
     72 O2    c    0.762300 *  0.339530 *  0.499308 *   0.87073    1.000000    
     73 O2    c    0.580465 *  0.338631 *  0.999095 *   0.87073    1.000000    
     74 O2    c    0.761452 *  0.418749 *  0.665698 *   0.87073    1.000000    
     75 O2    c    0.660444 *  0.239167 *  0.333396 *   0.87073    1.000000    
     76 O2    c    0.422367 *  0.658991 *  0.502152 *   0.87073    1.000000    
     77 O2    c    0.247719 *  0.573827 *  0.168752 *   0.87073    1.000000    
     78 O2    c    0.342199 *  0.775905 *  0.835858 *   0.87073    1.000000    
     79 O2    c    0.123375 *  0.210718 *  0.976910 *   0.87073    1.000000    
     80 O2    c    0.791060 *  0.913091 *  0.306457 *   0.87073    1.000000    
     81 O2    c    0.086756 *  0.874504 *  0.639254 *   0.87073    1.000000    
     82 O2    c    0.875954 *  0.785456 *  0.474089 *   0.87073    1.000000    
     83 O2    c    0.220992 *  0.100979 *  0.806860 *   0.87073    1.000000    
     84 O3    c    0.913147 *  0.133305 *  0.143692 *   1.33043    1.000000    
     85 O2    c    0.213372 *  0.123809 *  0.361979 *   0.87073    1.000000    
     86 O2    c    0.908514 *  0.782935 *  0.020776 *   0.87073    1.000000    
     87 O2    c    0.874934 *  0.086071 *  0.693682 *   0.87073    1.000000    
     88 O2    c    0.787537 *  0.876504 *  0.861190 *   0.87073    1.000000    
     89 O2    c    0.088890 *  0.212837 *  0.527546 *   0.87073    1.000000    
     90 O2    c    0.123444 *  0.895102 *  0.195349 *   0.87073    1.000000    
     91 O2    c    0.931296 *  0.855726 *  0.250992 *   0.87073    1.000000    
     92 O2    c    0.137461 *  0.069592 *  0.584049 *   0.87073    1.000000    
     93 O2    c    0.933935 *  0.075378 *  0.915871 *   0.87073    1.000000    
     94 O2    c    0.069969 *  0.140518 *  0.750642 *   0.87073    1.000000    
     95 O3    c    0.874601 *  0.936146 *  0.080161 *   1.33043    1.000000    
     96 O2    c    0.068661 *  0.929365 *  0.417626 *   0.87073    1.000000    
     97 O2    c    0.902432 *  0.203606 *  0.981267 *   0.87073    1.000000    
     98 O2    c    0.795910 *  0.696857 *  0.314341 *   0.87073    1.000000    
     99 O2    c    0.302184 *  0.096885 *  0.646402 *   0.87073    1.000000    
    100 O2    c    0.099428 *  0.795091 *  0.480020 *   0.87073    1.000000    
    101 O3    c    0.201628 *  0.307725 *  0.814365 *   1.33043    1.000000    
    102 O3    c    0.691254 *  0.893188 *  0.146009 *   1.33043    1.000000    
    103 O2    c    0.207260 *  0.902033 *  0.355710 *   0.87073    1.000000    
    104 O2    c    0.695699 *  0.792492 *  0.020964 *   0.87073    1.000000    
    105 O2    c    0.096803 *  0.301767 *  0.687262 *   0.87073    1.000000    
    106 O2    c    0.798311 *  0.099047 *  0.853179 *   0.87073    1.000000    
    107 O2    c    0.302977 *  0.203677 *  0.521434 *   0.87073    1.000000    
    108 O3    c    0.891968 *  0.692188 *  0.185252 *   1.33043    1.000000    
    109 O2    c    0.326385 *  0.641234 *  0.253141 *   0.87073    1.000000    
    110 O2    c    0.353906 *  0.677448 *  0.584497 *   0.87073    1.000000    
    111 O2    c    0.321263 *  0.674333 *  0.916899 *   0.87073    1.000000    
    112 O2    c    0.682801 *  0.355045 *  0.748903 *   0.87073    1.000000    
    113 O2    c    0.643589 *  0.321950 *  0.084043 *   0.87073    1.000000    
    114 O2    c    0.677090 *  0.321985 *  0.416790 *   0.87073    1.000000    
    115 O2    c    0.374455 *  0.327281 *  0.969375 *   0.87073    1.000000    
    116 O2    c    0.673424 *  0.044579 *  0.304749 *   0.87073    1.000000    
    117 O2    c    0.955376 *  0.625749 *  0.637251 *   0.87073    1.000000    
    118 O2    c    0.627574 *  0.669147 *  0.472746 *   0.87073    1.000000    
    119 O2    c    0.332176 *  0.964514 *  0.804337 *   0.87073    1.000000    
    120 O2    c    0.043316 *  0.378839 *  0.137996 *   0.87073    1.000000    
    121 O2    c    0.330242 *  0.372440 *  0.363962 *   0.87073    1.000000    
    122 O2    c    0.044954 *  0.670135 *  0.030700 *   0.87073    1.000000    
    123 O2    c    0.624579 *  0.954007 *  0.695912 *   0.87073    1.000000    
    124 O2    c    0.670246 *  0.627019 *  0.862498 *   0.87073    1.000000    
    125 O2    c    0.957158 *  0.329334 *  0.528634 *   0.87073    1.000000    
    126 O2    c    0.369914 *  0.033250 *  0.197884 *   0.87073    1.000000    
    127 O2    c    0.772564 *  0.303221 *  0.014164 *   0.87073    1.000000    
    128 O2    c    0.696478 *  0.466327 *  0.344642 *   0.87073    1.000000    
    129 O2    c    0.534422 *  0.227697 *  0.676827 *   0.87073    1.000000    
    130 O2    c    0.230448 *  0.695701 *  0.511112 *   0.87073    1.000000    
    131 O3    c    0.299611 *  0.544804 *  0.840490 *   1.33043    1.000000    
    132 O2    c    0.470661 *  0.763641 *  0.180031 *   0.87073    1.000000    
    133 O2    c    0.310198 *  0.771608 *  0.325259 *   0.87073    1.000000    
    134 O2    c    0.464620 *  0.690050 *  0.987543 *   0.87073    1.000000    
    135 O2    c    0.227828 *  0.532456 *  0.656612 *   0.87073    1.000000    
    136 O2    c    0.703326 *  0.232048 *  0.821914 *   0.87073    1.000000    
    137 O2    c    0.533652 *  0.302680 *  0.490021 *   0.87073    1.000000    
    138 O3    c    0.751304 *  0.457622 *  0.159330 *   1.33043    1.000000    
    139 O2    c    0.786148 *  0.530865 *  0.029769 *   0.87073    1.000000    
    140 O2    c    0.464977 *  0.249082 *  0.361735 *   0.87073    1.000000    
    141 O2    c    0.750500 *  0.212339 *  0.693710 *   0.87073    1.000000    
    142 O2    c    0.215620 *  0.464677 *  0.528450 *   0.87073    1.000000    
    143 O2    c    0.531813 *  0.745851 *  0.861919 *   0.87073    1.000000    
    144 O2    c    0.253613 *  0.776093 *  0.197127 *   0.87073    1.000000    
    145 O2    c    0.540588 *  0.785623 *  0.306063 *   0.87073    1.000000    
    146 O2    c    0.250866 *  0.462584 *  0.970039 *   0.87073    1.000000    
    147 O2    c    0.213524 *  0.749614 *  0.639578 *   0.87073    1.000000    
    148 O2    c    0.473435 *  0.220821 *  0.805256 *   0.87073    1.000000    
    149 O2    c    0.750305 *  0.533816 *  0.473021 *   0.87073    1.000000    
    150 O2    c    0.785824 *  0.259137 *  0.140069 *   0.87073    1.000000    
    151 O3    c    0.217282 *  0.303127 *  0.899897 *   1.33043    1.000000    
    152 O2    c    0.684181 *  0.911560 *  0.231600 *   0.87073    1.000000    
    153 O2    c    0.091603 *  0.767368 *  0.564898 *   0.87073    1.000000    
    154 O2    c    0.768794 *  0.675701 *  0.399511 *   0.87073    1.000000    
    155 O2    c    0.326650 *  0.096744 *  0.731549 *   0.87073    1.000000    
    156 O2    c    0.904534 *  0.233870 *  0.068013 *   0.87073    1.000000    
    157 O2    c    0.323672 *  0.231344 *  0.436412 *   0.87073    1.000000    
    158 O3    c    0.908744 *  0.695605 *  0.098995 *   1.33043    1.000000    
    159 O2    c    0.769563 *  0.089753 *  0.768030 *   0.87073    1.000000    
    160 O2    c    0.669467 *  0.761510 *  0.934521 *   0.87073    1.000000    
    161 O2    c    0.090531 *  0.322855 *  0.602012 *   0.87073    1.000000    
    162 O2    c    0.232531 *  0.900792 *  0.270806 *   0.87073    1.000000    
    163 O2    c    0.582293 *  0.554842 *  0.987243 *   0.87073    1.000000    
    164 O2    c    0.444129 *  0.028870 *  0.324808 *   0.87073    1.000000    
    165 O2    c    0.970218 *  0.412118 *  0.657201 *   0.87073    1.000000    
    166 O2    c    0.413865 *  0.440916 *  0.492609 *   0.87073    1.000000    
    167 O2    c    0.560988 *  0.974345 *  0.824280 *   0.87073    1.000000    
    168 O3    c    0.045488 *  0.596515 *  0.162967 *   1.33043    1.000000    
    169 O2    c    0.559245 *  0.586850 *  0.344365 *   0.87073    1.000000    
    170 O2    c    0.026022 *  0.441154 *  0.015625 *   0.87073    1.000000    
    171 O2    c    0.410646 *  0.969764 *  0.676683 *   0.87073    1.000000    
    172 O3    c    0.454578 *  0.409412 *  0.836983 *   1.33043    1.000000    
    173 O2    c    0.972013 *  0.557416 *  0.508845 *   0.87073    1.000000    
    174 O2    c    0.587438 *  0.024138 *  0.176222 *   0.87073    1.000000    
    175 O2    c    0.583684 *  0.162865 *  0.250236 *   0.87073    1.000000    
    176 O2    c    0.834602 *  0.416312 *  0.582602 *   0.87073    1.000000    
    177 O2    c    0.581920 *  0.416433 *  0.914819 *   0.87073    1.000000    
    178 O2    c    0.415567 *  0.835915 *  0.750964 *   0.87073    1.000000    
    179 O2    c    0.167274 *  0.588918 *  0.086152 *   0.87073    1.000000    
    180 O2    c    0.417828 *  0.581428 *  0.418976 *   0.87073    1.000000    
    181 F     c    0.459189 *  0.903769 *  0.250640 *   0.56000    1.000000    
    182 F     c    0.095030 *  0.547690 *  0.583345 *   0.56000    1.000000    
    183 F     c    0.424462 *  0.517936 *  0.905711 *   0.56000    1.000000    
    184 F     c    0.549859 *  0.094415 *  0.750316 *   0.56000    1.000000    
    185 F     c    0.906016 *  0.483502 *  0.094863 *   0.56000    1.000000    
    186 F     c    0.547244 *  0.451329 *  0.417748 *   0.56000    1.000000    
    187 O2    s    0.919404 *  0.995921 *  0.997124 *  -2.87073    1.000000    
    188 O2    s    0.002210 *  0.922823 *  0.334271 *  -2.87073    1.000000    
    189 O2    s    0.076247 *  0.075291 *  0.667332 *  -2.87073    1.000000    
    190 O2    s    0.076172 *  0.999150 *  0.500845 *  -2.87073    1.000000    
    191 O2    s    0.000870 *  0.075344 *  0.833211 *  -2.87073    1.000000    
    192 O3    s    0.938522 *  0.927259 *  0.169420 *  -3.33043    1.000000    
    193 O2    s    0.356136 *  0.587531 *  0.335914 *  -2.87073    1.000000    
    194 O2    s    0.410609 *  0.764447 *  0.667763 *  -2.87073    1.000000    
    195 O2    s    0.234009 *  0.645161 *  0.001056 *  -2.87073    1.000000    
    196 O2    s    0.661249 *  0.417112 *  0.832396 *  -2.87073    1.000000    
    197 O2    s    0.574484 *  0.221232 *  0.166314 *  -2.87073    1.000000    
    198 O2    s    0.766450 *  0.351415 *  0.499358 *  -2.87073    1.000000    
    199 O2    s    0.587463 *  0.349949 *  0.999255 *  -2.87073    1.000000    
    200 O2    s    0.765876 *  0.411278 *  0.665794 *  -2.87073    1.000000    
    201 O2    s    0.648586 *  0.234631 *  0.333487 *  -2.87073    1.000000    
    202 O2    s    0.414587 *  0.647070 *  0.502082 *  -2.87073    1.000000    
    203 O2    s    0.242947 *  0.582204 *  0.169053 *  -2.87073    1.000000    
    204 O2    s    0.353498 *  0.778198 *  0.835392 *  -2.87073    1.000000    
    205 O2    s    0.119629 *  0.213282 *  0.973523 *  -2.87073    1.000000    
    206 O2    s    0.787273 *  0.906175 *  0.303864 *  -2.87073    1.000000    
    207 O2    s    0.093614 *  0.877758 *  0.636708 *  -2.87073    1.000000    
    208 O2    s    0.879181 *  0.782032 *  0.471403 *  -2.87073    1.000000    
    209 O2    s    0.224667 *  0.106660 *  0.804159 *  -2.87073    1.000000    
    210 O3    s    0.908136 *  0.133007 *  0.140890 *  -3.33043    1.000000    
    211 O2    s    0.216940 *  0.120585 *  0.364578 *  -2.87073    1.000000    
    212 O2    s    0.902745 *  0.780791 *  0.024351 *  -2.87073    1.000000    
    213 O2    s    0.877944 *  0.092879 *  0.696390 *  -2.87073    1.000000    
    214 O2    s    0.783685 *  0.879053 *  0.863548 *  -2.87073    1.000000    
    215 O2    s    0.095525 *  0.216265 *  0.530214 *  -2.87073    1.000000    
    216 O2    s    0.121415 *  0.889634 *  0.198087 *  -2.87073    1.000000    
    217 O2    s    0.929368 *  0.852701 *  0.251397 *  -2.87073    1.000000    
    218 O2    s    0.140525 *  0.070890 *  0.584002 *  -2.87073    1.000000    
    219 O2    s    0.932307 *  0.075710 *  0.916164 *  -2.87073    1.000000    
    220 O2    s    0.071338 *  0.143968 *  0.750264 *  -2.87073    1.000000    
    221 O3    s    0.870169 *  0.932391 *  0.079380 *  -3.33043    1.000000    
    222 O2    s    0.070424 *  0.927990 *  0.417642 *  -2.87073    1.000000    
    223 O2    s    0.909646 *  0.205288 *  0.984054 *  -2.87073    1.000000    
    224 O2    s    0.794718 *  0.702841 *  0.316961 *  -2.87073    1.000000    
    225 O2    s    0.296003 *  0.089592 *  0.649085 *  -2.87073    1.000000    
    226 O2    s    0.091819 *  0.793751 *  0.482666 *  -2.87073    1.000000    
    227 O3    s    0.200830 *  0.298224 *  0.815745 *  -3.33043    1.000000    
    228 O3    s    0.696267 *  0.900145 *  0.148955 *  -3.33043    1.000000    
    229 O2    s    0.208437 *  0.909185 *  0.352982 *  -2.87073    1.000000    
    230 O2    s    0.701238 *  0.790806 *  0.017836 *  -2.87073    1.000000    
    231 O2    s    0.089546 *  0.295785 *  0.684648 *  -2.87073    1.000000    
    232 O2    s    0.797255 *  0.091626 *  0.850487 *  -2.87073    1.000000    
    233 O2    s    0.296755 *  0.205008 *  0.518788 *  -2.87073    1.000000    
    234 O3    s    0.901342 *  0.701539 *  0.184059 *  -3.33043    1.000000    
    235 O2    s    0.332576 *  0.653163 *  0.253017 *  -2.87073    1.000000    
    236 O2    s    0.342089 *  0.671399 *  0.584444 *  -2.87073    1.000000    
    237 O2    s    0.326174 *  0.669070 *  0.917156 *  -2.87073    1.000000    
    238 O2    s    0.676829 *  0.343305 *  0.748942 *  -2.87073    1.000000    
    239 O2    s    0.653899 *  0.327343 *  0.083736 *  -2.87073    1.000000    
    240 O2    s    0.671289 *  0.327845 *  0.416824 *  -2.87073    1.000000    
    241 O2    s    0.377814 *  0.336474 *  0.967316 *  -2.87073    1.000000    
    242 O2    s    0.663479 *  0.037704 *  0.302472 *  -2.87073    1.000000    
    243 O2    s    0.962226 *  0.622490 *  0.635007 *  -2.87073    1.000000    
    244 O2    s    0.624255 *  0.659099 *  0.470467 *  -2.87073    1.000000    
    245 O2    s    0.342455 *  0.971044 *  0.802116 *  -2.87073    1.000000    
    246 O2    s    0.037027 *  0.381598 *  0.136379 *  -2.87073    1.000000    
    247 O2    s    0.340367 *  0.375763 *  0.366252 *  -2.87073    1.000000    
    248 O2    s    0.039007 *  0.660804 *  0.032767 *  -2.87073    1.000000    
    249 O2    s    0.621665 *  0.961073 *  0.698179 *  -2.87073    1.000000    
    250 O2    s    0.661116 *  0.624263 *  0.864362 *  -2.87073    1.000000    
    251 O2    s    0.963848 *  0.339343 *  0.530935 *  -2.87073    1.000000    
    252 O2    s    0.373790 *  0.026760 *  0.200048 *  -2.87073    1.000000    
    253 O2    s    0.778804 *  0.310416 *  0.016953 *  -2.87073    1.000000    
    254 O2    s    0.688950 *  0.465729 *  0.347767 *  -2.87073    1.000000    
    255 O2    s    0.535055 *  0.220947 *  0.679939 *  -2.87073    1.000000    
    256 O2    s    0.223317 *  0.688145 *  0.514233 *  -2.87073    1.000000    
    257 O3    s    0.308675 *  0.549651 *  0.844185 *  -3.33043    1.000000    
    258 O2    s    0.469804 *  0.771162 *  0.183104 *  -2.87073    1.000000    
    259 O2    s    0.317321 *  0.778211 *  0.322132 *  -2.87073    1.000000    
    260 O2    s    0.464238 *  0.683184 *  0.984757 *  -2.87073    1.000000    
    261 O2    s    0.220819 *  0.532958 *  0.653521 *  -2.87073    1.000000    
    262 O2    s    0.695401 *  0.224717 *  0.818749 *  -2.87073    1.000000    
    263 O2    s    0.534190 *  0.310289 *  0.486950 *  -2.87073    1.000000    
    264 O3    s    0.755479 *  0.452238 *  0.155746 *  -3.33043    1.000000    
    265 O2    s    0.789973 *  0.528261 *  0.031933 *  -2.87073    1.000000    
    266 O2    s    0.467772 *  0.257025 *  0.364382 *  -2.87073    1.000000    
    267 O2    s    0.742721 *  0.207487 *  0.696305 *  -2.87073    1.000000    
    268 O2    s    0.210343 *  0.467347 *  0.531054 *  -2.87073    1.000000    
    269 O2    s    0.530386 *  0.739867 *  0.864117 *  -2.87073    1.000000    
    270 O2    s    0.261347 *  0.781302 *  0.199773 *  -2.87073    1.000000    
    271 O2    s    0.537532 *  0.790546 *  0.303668 *  -2.87073    1.000000    
    272 O2    s    0.257815 *  0.465730 *  0.967906 *  -2.87073    1.000000    
    273 O2    s    0.208315 *  0.741667 *  0.636916 *  -2.87073    1.000000    
    274 O2    s    0.475828 *  0.215689 *  0.802615 *  -2.87073    1.000000    
    275 O2    s    0.742432 *  0.531117 *  0.470408 *  -2.87073    1.000000    
    276 O2    s    0.789888 *  0.264643 *  0.137868 *  -2.87073    1.000000    
    277 O3    s    0.227137 *  0.313409 *  0.902542 *  -3.33043    1.000000    
    278 O2    s    0.674010 *  0.910536 *  0.232551 *  -2.87073    1.000000    
    279 O2    s    0.091775 *  0.757962 *  0.565776 *  -2.87073    1.000000    
    280 O2    s    0.759367 *  0.666075 *  0.400368 *  -2.87073    1.000000    
    281 O2    s    0.336073 *  0.096787 *  0.732399 *  -2.87073    1.000000    
    282 O2    s    0.904975 *  0.242734 *  0.068465 *  -2.87073    1.000000    
    283 O2    s    0.333352 *  0.240722 *  0.435526 *  -2.87073    1.000000    
    284 O3    s    0.908658 *  0.685469 *  0.096459 *  -3.33043    1.000000    
    285 O2    s    0.760127 *  0.090210 *  0.767201 *  -2.87073    1.000000    
    286 O2    s    0.661143 *  0.753274 *  0.933845 *  -2.87073    1.000000    
    287 O2    s    0.090850 *  0.332435 *  0.601154 *  -2.87073    1.000000    
    288 O2    s    0.241984 *  0.900847 *  0.269959 *  -2.87073    1.000000    
    289 O2    s    0.578780 *  0.555240 *  0.984418 *  -2.87073    1.000000    
    290 O2    s    0.443767 *  0.023660 *  0.321543 *  -2.87073    1.000000    
    291 O2    s    0.975221 *  0.416687 *  0.653848 *  -2.87073    1.000000    
    292 O2    s    0.418444 *  0.440604 *  0.489205 *  -2.87073    1.000000    
    293 O2    s    0.561308 *  0.979549 *  0.820829 *  -2.87073    1.000000    
    294 O3    s    0.042523 *  0.589475 *  0.158942 *  -3.33043    1.000000    
    295 O2    s    0.559573 *  0.582117 *  0.347740 *  -2.87073    1.000000    
    296 O2    s    0.022031 *  0.440836 *  0.018219 *  -2.87073    1.000000    
    297 O2    s    0.415585 *  0.974974 *  0.680010 *  -2.87073    1.000000    
    298 O3    s    0.458108 *  0.415958 *  0.841068 *  -3.33043    1.000000    
    299 O2    s    0.976916 *  0.557754 *  0.512245 *  -2.87073    1.000000    
    300 O2    s    0.582512 *  0.019039 *  0.179707 *  -2.87073    1.000000    
    301 O2    s    0.577815 *  0.151516 *  0.250281 *  -2.87073    1.000000    
    302 O2    s    0.845754 *  0.421922 *  0.582636 *  -2.87073    1.000000    
    303 O2    s    0.577120 *  0.421103 *  0.915227 *  -2.87073    1.000000    
    304 O2    s    0.421324 *  0.847314 *  0.750945 *  -2.87073    1.000000    
    305 O2    s    0.157321 *  0.583479 *  0.085730 *  -2.87073    1.000000    
    306 O2    s    0.423477 *  0.575909 *  0.418929 *  -2.87073    1.000000    
    307 F     s    0.459488 *  0.903688 *  0.250494 *  -1.56000    1.000000    
    308 F     s    0.095358 *  0.547926 *  0.583328 *  -1.56000    1.000000    
    309 F     s    0.417968 *  0.511599 *  0.902962 *  -1.56000    1.000000    
    310 F     s    0.550092 *  0.094488 *  0.750404 *  -1.56000    1.000000    
    311 F     s    0.905828 *  0.490361 *  0.097741 *  -1.56000    1.000000    
    312 F     s    0.547290 *  0.451154 *  0.417728 *  -1.56000    1.000000    
--------------------------------------------------------------------------------



********************************************************************************
*  General input information                                                   *
********************************************************************************

  Species output for all configurations : 

--------------------------------------------------------------------------------
  Species    Type    Atomic    Atomic    Charge       Radii (Angs)     Library
                     Number     Mass       (e)     Cova   Ionic  VDW   Symbol
--------------------------------------------------------------------------------
    Si       Core       14      28.09   4.000000   1.200  0.000  2.100          
    O1       Core        8      16.00   1.733957   0.730  0.000  1.360          
    O1       Shell       8       0.00  -3.733957   0.730  0.000  1.360          
    O2       Core        8      16.00   0.870733   0.730  0.000  1.360          
    O2       Shell       8       0.00  -2.870733   0.730  0.000  1.360          
    O3       Core        8      16.00   1.330431   0.730  0.000  1.360          
    O3       Shell       8       0.00  -3.330431   0.730  0.000  1.360          
    F        Core        9      19.00   0.560000   0.710  0.000  1.300          
    F        Shell       9       0.00  -1.560000   0.710  0.000  1.300          
    Ge       Core       32      72.61   4.000000   1.170  0.000  1.750          
--------------------------------------------------------------------------------


  Lattice summation method               =    Ewald          (3-D)
                                         =    Parry          (2-D)
                                         =    Saunders et al (1-D)
  Accuracy factor for lattice sums       =   12.000


  Time limit = Infinity

  Maximum range for interatomic potentials =        16.000000 Angstroms

  Taper potentials to zero over   1.0000 Angstroms using polynomial

  General interatomic potentials :

--------------------------------------------------------------------------------
Atom  Types   Potential         A         B         C         D     Cutoffs(Ang)
  1     2                                                            Min    Max 
--------------------------------------------------------------------------------
Si   c O1   s Buckingham    0.132E+04 0.318      10.1      0.00     0.000 16.000
Si   c O2   s Buckingham    0.132E+04 0.318      10.1      0.00     0.000 16.000
Si   c O3   s Buckingham    0.132E+04 0.318      10.1      0.00     0.000 16.000
Ge   c O1   s Buckingham    0.150E+04 0.326      16.8      0.00     0.000 16.000
Ge   c O2   s Buckingham    0.150E+04 0.326      16.8      0.00     0.000 16.000
Ge   c O3   s Buckingham    0.150E+04 0.326      16.8      0.00     0.000 16.000
O1   s O1   s Buckingham    0.228E+05 0.149      10.9      0.00     0.000 16.000
O1   s O2   s Buckingham    0.228E+05 0.149      10.9      0.00     0.000 16.000
O1   s O3   s Buckingham    0.228E+05 0.149      10.9      0.00     0.000 16.000
O2   s O2   s Buckingham    0.228E+05 0.149      10.9      0.00     0.000 16.000
O2   s O3   s Buckingham    0.228E+05 0.149      10.9      0.00     0.000 16.000
O3   s O3   s Buckingham    0.228E+05 0.149      10.9      0.00     0.000 16.000
Si   c F    s Buckingham     977.     0.282      0.00      0.00     0.000 16.000
Ge   c F    s Buckingham     681.     0.320      0.00      0.00     0.000 16.000
F    s F    s Buckingham     540.     0.262      0.00      0.00     0.000 16.000
O1   s F    s Buckingham    0.168E+04 0.268      0.00      0.00     0.000 16.000
O2   s F    s Buckingham    0.168E+04 0.268      0.00      0.00     0.000 16.000
O3   s F    s Buckingham    0.168E+04 0.268      0.00      0.00     0.000 16.000
O2   c O2   s Spring (c-s)   76.0      0.00      0.00      0.00     0.000  0.800
O3   c O3   s Spring (c-s)   128.      0.00      0.00      0.00     0.000  0.800
O1   c O1   s Spring (c-s)   180.      0.00      0.00      0.00     0.000  0.800
F    c F    s Spring (c-s)   33.5      0.00      0.00      0.00     0.000  0.800
--------------------------------------------------------------------------------

  General Three-body potentials :

  Harmonic form:

--------------------------------------------------------------------------------
Atom    Atom    Atom           Force Constants            Theta     Cutoffs  
  1       2       3     (eVrad**-2/eVrad**-3/eVrad**-4)   (deg)  1-2  1-3  2-3
--------------------------------------------------------------------------------
Si    c O1    s O1    s  1.261        0.0000    0.0000   109.470 0.00 0.00 0.00
                                                                 1.90 1.90 3.50
Si    c O1    s O2    s  1.261        0.0000    0.0000   109.470 0.00 0.00 0.00
                                                                 1.90 1.90 3.50
Si    c O2    s O2    s  1.261        0.0000    0.0000   109.470 0.00 0.00 0.00
                                                                 1.90 1.90 3.50
--------------------------------------------------------------------------------

********************************************************************************
*  Output for configuration   1                                                *
********************************************************************************


  Components of energy : 

--------------------------------------------------------------------------------
  Interatomic potentials     =        2063.98228269 eV
  Three-body potentials      =           0.48069303 eV
  Monopole - monopole (real) =       -6613.28794623 eV
  Monopole - monopole (recip)=       -3171.06817523 eV
  Monopole - monopole (total)=       -9784.35612146 eV
  Neutralising energy        =          -6.45947964 eV
--------------------------------------------------------------------------------
  Total lattice energy       =       -7726.35262538 eV
--------------------------------------------------------------------------------
  Total lattice energy       =         -745474.9202 kJ/(mole unit cells)
--------------------------------------------------------------------------------


  Number of variables =      939

  Maximum number of calculations  =          1000
  Maximum Hessian update interval =            10
  Maximum step size               =   1.000000000
  Maximum parameter tolerance     =   0.000010000
  Maximum function  tolerance     =   0.000010000
  Maximum gradient  tolerance     =   0.001000000
  Maximum gradient  component     =   0.010000000

  Symmetry not applied to optimisation

  Cell parameters to be optimised using strains

  Newton-Raphson optimiser to be used

  BFGS hessian update to be used

  Dumpfile to be written after every cycle

  Start of bulk optimisation :

  Cycle:      0 Energy:     -7726.352625  Gnorm:      0.005272  CPU:    1.063
  ** Hessian calculated **
  Cycle:      1 Energy:     -7726.414278  Gnorm:      0.004795  CPU:    3.037
  Cycle:      2 Energy:     -7726.415128  Gnorm:      0.000391  CPU:    4.413
  Cycle:      3 Energy:     -7726.415184  Gnorm:      0.000122  CPU:    5.789
  Cycle:      4 Energy:     -7726.415185  Gnorm:      0.000025  CPU:    7.165


  **** Optimisation achieved ****


  Final energy =   -7726.41518499 eV
  Final Gnorm  =       0.00000289

  Components of energy : 

--------------------------------------------------------------------------------
  Interatomic potentials     =        2064.40720080 eV
  Three-body potentials      =           0.50743336 eV
  Monopole - monopole (real) =       -6611.28185149 eV
  Monopole - monopole (recip)=       -3173.58336543 eV
  Monopole - monopole (total)=       -9784.86521691 eV
  Neutralising energy        =          -6.46460224 eV
--------------------------------------------------------------------------------
  Total lattice energy       =       -7726.41518499 eV
--------------------------------------------------------------------------------
  Total lattice energy       =         -745480.9563 kJ/(mole unit cells)
--------------------------------------------------------------------------------

  Final fractional coordinates of atoms :

--------------------------------------------------------------------------------
   No.  Atomic        x           y          z          Radius
        Label       (Frac)      (Frac)     (Frac)       (Angs) 
--------------------------------------------------------------------------------
     1  Si    c     0.699600    0.375700    0.033890    0.000000
     2  Si    c     0.629257    0.319623    0.366291    0.000000
     3  Si    c     0.688630    0.297096    0.698974    0.000000
     4  Si    c     0.310084    0.619302    0.536213    0.000000
     5  Si    c     0.378508    0.685868    0.866968    0.000000
     6  Si    c     0.331747    0.685694    0.204212    0.000000
     7  Si    c     0.391904    0.697209    0.304753    0.000000
     8  Si    c     0.322076    0.617905    0.969178    0.000000
     9  Si    c     0.304322    0.674313    0.637192    0.000000
    10  Si    c     0.641292    0.306776    0.800029    0.000000
    11  Si    c     0.688327    0.374232    0.467438    0.000000
    12  Si    c     0.686247    0.312231    0.136548    0.000000
    13  Si    c     0.532129    0.412673    0.965736    0.000000
    14  Si    c     0.589761    0.107002    0.300451    0.000000
    15  Si    c     0.897002    0.467953    0.633760    0.000000
    16  Si    c     0.483522    0.579199    0.472144    0.000000
    17  Si    c     0.429046    0.902672    0.804440    0.000000
    18  Si    c     0.117927    0.527387    0.140816    0.000000
    19  Si    c     0.427776    0.525876    0.370095    0.000000
    20  Si    c     0.116534    0.581920    0.037552    0.000000
    21  Si    c     0.476706    0.887737    0.702695    0.000000
    22  Si    c     0.593723    0.473208    0.862611    0.000000
    23  Si    c     0.900699    0.414244    0.531709    0.000000
    24  Si    c     0.525579    0.092636    0.198932    0.000000
    25  Ge    c     0.319986    0.415703    0.857558    0.000000
    26  Si    c     0.603625    0.888732    0.186104    0.000000
    27  Si    c     0.109702    0.694968    0.519274    0.000000
    28  Si    c     0.707432    0.598267    0.353840    0.000000
    29  Si    c     0.407898    0.097771    0.687063    0.000000
    30  Si    c     0.902986    0.295585    0.021694    0.000000
    31  Si    c     0.411696    0.298665    0.484404    0.000000
    32  Ge    c     0.899532    0.581694    0.144472    0.000000
    33  Si    c     0.712286    0.104636    0.816199    0.000000
    34  Si    c     0.604441    0.697136    0.983222    0.000000
    35  Si    c     0.104039    0.395490    0.650125    0.000000
    36  Si    c     0.310555    0.896721    0.317471    0.000000
    37  Si    c     0.248322    0.331320    0.953283    0.000000
    38  Si    c     0.670999    0.907671    0.286523    0.000000
    39  Si    c     0.097171    0.746815    0.620339    0.000000
    40  Si    c     0.761172    0.655477    0.455170    0.000000
    41  Si    c     0.355283    0.105235    0.788312    0.000000
    42  Si    c     0.906314    0.245782    0.123961    0.000000
    43  Si    c     0.349244    0.247405    0.383302    0.000000
    44  Si    c     0.913050    0.662912    0.048413    0.000000
    45  Si    c     0.757812    0.087473    0.715274    0.000000
    46  Si    c     0.664654    0.753717    0.881244    0.000000
    47  Si    c     0.101538    0.337946    0.548728    0.000000
    48  Si    c     0.250157    0.888171    0.216424    0.000000
    49  Si    c     0.973779    0.119785    0.968738    0.000000
    50  Si    c     0.887313    0.844745    0.302530    0.000000
    51  Si    c     0.159271    0.027090    0.635819    0.000000
    52  Si    c     0.041619    0.873774    0.469471    0.000000
    53  Si    c     0.133986    0.164566    0.803415    0.000000
    54  Ge    c     0.856939    0.964287    0.137144    0.000000
    55  Si    c     0.131053    0.967003    0.368270    0.000000
    56  Si    c     0.854710    0.876198    0.032097    0.000000
    57  Si    c     0.037441    0.149546    0.701437    0.000000
    58  Si    c     0.888738    0.033647    0.866166    0.000000
    59  Si    c     0.164089    0.120061    0.534603    0.000000
    60  Si    c     0.970979    0.830472    0.200683    0.000000
    61  O2    c     0.925504    0.993054    0.997699    0.000000
    62  O2    c     0.009058    0.924785    0.335702    0.000000
    63  O2    c     0.079375    0.069085    0.668531    0.000000
    64  O2    c     0.084369    0.996618    0.502142    0.000000
    65  O2    c     0.008817    0.069983    0.833734    0.000000
    66  O3    c     0.949854    0.930730    0.171078    0.000000
    67  O2    c     0.353001    0.577861    0.338550    0.000000
    68  O2    c     0.425132    0.758920    0.671251    0.000000
    69  O2    c     0.239914    0.654201    0.004170    0.000000
    70  O2    c     0.682955    0.432966    0.832703    0.000000
    71  O2    c     0.560701    0.210979    0.164634    0.000000
    72  O2    c     0.775758    0.336504    0.498669    0.000000
    73  O2    c     0.582060    0.338505    0.998481    0.000000
    74  O2    c     0.769905    0.417169    0.665382    0.000000
    75  O2    c     0.666412    0.235670    0.332086    0.000000
    76  O2    c     0.435971    0.656987    0.505034    0.000000
    77  O2    c     0.245120    0.561657    0.171048    0.000000
    78  O2    c     0.350268    0.784417    0.839241    0.000000
    79  O2    c     0.126265    0.211582    0.978495    0.000000
    80  O2    c     0.798250    0.910723    0.306907    0.000000
    81  O2    c     0.095304    0.872844    0.640236    0.000000
    82  O2    c     0.887982    0.781565    0.475634    0.000000
    83  O2    c     0.233642    0.110250    0.809439    0.000000
    84  O3    c     0.909555    0.127031    0.145383    0.000000
    85  O2    c     0.221496    0.121106    0.363386    0.000000
    86  O2    c     0.912299    0.781588    0.022290    0.000000
    87  O2    c     0.882743    0.084515    0.695359    0.000000
    88  O2    c     0.790818    0.879227    0.862118    0.000000
    89  O2    c     0.102536    0.211847    0.528383    0.000000
    90  O2    c     0.123946    0.881498    0.195075    0.000000
    91  O2    c     0.939778    0.853249    0.252302    0.000000
    92  O2    c     0.148610    0.068810    0.585367    0.000000
    93  O2    c     0.940991    0.074477    0.917104    0.000000
    94  O2    c     0.079305    0.139872    0.751879    0.000000
    95  O3    c     0.882953    0.937421    0.081388    0.000000
    96  O2    c     0.078182    0.925967    0.418779    0.000000
    97  O2    c     0.902694    0.200416    0.982269    0.000000
    98  O2    c     0.803365    0.694402    0.315406    0.000000
    99  O2    c     0.310501    0.095685    0.648363    0.000000
   100  O2    c     0.112483    0.792934    0.480871    0.000000
   101  O3    c     0.204501    0.311088    0.815773    0.000000
   102  O3    c     0.693783    0.882404    0.146608    0.000000
   103  O2    c     0.214560    0.898842    0.356127    0.000000
   104  O2    c     0.699656    0.791904    0.022815    0.000000
   105  O2    c     0.104498    0.300136    0.688623    0.000000
   106  O2    c     0.810025    0.106203    0.854702    0.000000
   107  O2    c     0.315982    0.200826    0.522848    0.000000
   108  O3    c     0.888273    0.685715    0.186303    0.000000
   109  O2    c     0.332171    0.632747    0.254913    0.000000
   110  O2    c     0.364910    0.676217    0.587144    0.000000
   111  O2    c     0.324266    0.676411    0.919469    0.000000
   112  O2    c     0.694795    0.359991    0.749257    0.000000
   113  O2    c     0.641866    0.319225    0.083818    0.000000
   114  O2    c     0.687100    0.317916    0.416381    0.000000
   115  O2    c     0.376597    0.327475    0.969491    0.000000
   116  O2    c     0.678865    0.040360    0.304142    0.000000
   117  O2    c     0.964184    0.623942    0.637662    0.000000
   118  O2    c     0.639925    0.666140    0.474573    0.000000
   119  O2    c     0.343878    0.972976    0.806791    0.000000
   120  O2    c     0.039752    0.371154    0.139348    0.000000
   121  O2    c     0.338984    0.369851    0.365887    0.000000
   122  O2    c     0.045378    0.665787    0.032925    0.000000
   123  O2    c     0.632551    0.954382    0.698270    0.000000
   124  O2    c     0.674165    0.630527    0.863721    0.000000
   125  O2    c     0.969946    0.327296    0.529209    0.000000
   126  O2    c     0.369982    0.020809    0.197663    0.000000
   127  O2    c     0.773659    0.303205    0.014503    0.000000
   128  O2    c     0.704610    0.463159    0.344897    0.000000
   129  O2    c     0.543657    0.227832    0.677832    0.000000
   130  O2    c     0.243911    0.694552    0.512878    0.000000
   131  O3    c     0.302669    0.549579    0.842228    0.000000
   132  O2    c     0.472618    0.751007    0.180705    0.000000
   133  O2    c     0.317763    0.767647    0.326409    0.000000
   134  O2    c     0.467539    0.690216    0.989729    0.000000
   135  O2    c     0.236320    0.531030    0.658712    0.000000
   136  O2    c     0.717142    0.241126    0.823124    0.000000
   137  O2    c     0.546146    0.298860    0.490588    0.000000
   138  O3    c     0.746104    0.449674    0.160232    0.000000
   139  O2    c     0.786396    0.530474    0.030804    0.000000
   140  O2    c     0.473033    0.245797    0.362278    0.000000
   141  O2    c     0.759987    0.212632    0.694629    0.000000
   142  O2    c     0.228702    0.463395    0.530211    0.000000
   143  O2    c     0.535244    0.748827    0.864012    0.000000
   144  O2    c     0.255447    0.764029    0.198025    0.000000
   145  O2    c     0.548175    0.781363    0.307144    0.000000
   146  O2    c     0.253345    0.462946    0.971491    0.000000
   147  O2    c     0.222146    0.748169    0.641277    0.000000
   148  O2    c     0.485995    0.228931    0.806777    0.000000
   149  O2    c     0.762437    0.530029    0.473519    0.000000
   150  O2    c     0.782130    0.252828    0.140455    0.000000
   151  O3    c     0.219451    0.305277    0.900630    0.000000
   152  O2    c     0.688156    0.903936    0.231652    0.000000
   153  O2    c     0.102148    0.765205    0.565781    0.000000
   154  O2    c     0.778972    0.672382    0.400647    0.000000
   155  O2    c     0.337725    0.102435    0.733611    0.000000
   156  O2    c     0.900936    0.227814    0.068841    0.000000
   157  O2    c     0.334536    0.228730    0.437831    0.000000
   158  O3    c     0.908168    0.691105    0.100981    0.000000
   159  O2    c     0.779465    0.093377    0.769815    0.000000
   160  O2    c     0.672860    0.764303    0.936220    0.000000
   161  O2    c     0.101521    0.321340    0.603260    0.000000
   162  O2    c     0.235488    0.891261    0.271126    0.000000
   163  O2    c     0.584957    0.555169    0.987490    0.000000
   164  O2    c     0.449534    0.024602    0.324033    0.000000
   165  O2    c     0.978830    0.410370    0.657745    0.000000
   166  O2    c     0.427487    0.438373    0.494687    0.000000
   167  O2    c     0.571905    0.983153    0.827038    0.000000
   168  O3    c     0.040490    0.586424    0.165557    0.000000
   169  O2    c     0.567705    0.583917    0.346142    0.000000
   170  O2    c     0.027039    0.437055    0.017704    0.000000
   171  O2    c     0.418528    0.969951    0.679655    0.000000
   172  O3    c     0.458780    0.415234    0.836933    0.000000
   173  O2    c     0.985561    0.555106    0.509070    0.000000
   174  O2    c     0.586493    0.011544    0.175492    0.000000
   175  O2    c     0.585988    0.153964    0.248905    0.000000
   176  O2    c     0.845697    0.414770    0.582399    0.000000
   177  O2    c     0.583270    0.416965    0.914383    0.000000
   178  O2    c     0.426300    0.840988    0.754343    0.000000
   179  O2    c     0.165293    0.583652    0.089022    0.000000
   180  O2    c     0.428472    0.578448    0.421468    0.000000
   181  F     c     0.462633    0.892691    0.250679    0.000000
   182  F     c     0.106581    0.546281    0.584464    0.000000
   183  F     c     0.426759    0.519697    0.906883    0.000000
   184  F     c     0.562860    0.102011    0.752386    0.000000
   185  F     c     0.902827    0.477866    0.096162    0.000000
   186  F     c     0.558133    0.447622    0.418982    0.000000
   187  O2    s     0.923061    0.994556    0.998228    0.000000
   188  O2    s     0.009288    0.920680    0.335696    0.000000
   189  O2    s     0.083726    0.073266    0.668488    0.000000
   190  O2    s     0.088518    0.996672    0.502113    0.000000
   191  O2    s     0.008007    0.075534    0.834313    0.000000
   192  O3    s     0.943500    0.924084    0.170864    0.000000
   193  O2    s     0.364782    0.584939    0.338272    0.000000
   194  O2    s     0.418023    0.763553    0.670995    0.000000
   195  O2    s     0.235696    0.642934    0.003984    0.000000
   196  O2    s     0.669834    0.424545    0.832487    0.000000
   197  O2    s     0.570415    0.209685    0.165130    0.000000
   198  O2    s     0.779614    0.348352    0.498847    0.000000
   199  O2    s     0.589107    0.349985    0.998782    0.000000
   200  O2    s     0.774592    0.409943    0.665615    0.000000
   201  O2    s     0.654692    0.230993    0.332332    0.000000
   202  O2    s     0.427983    0.645109    0.504844    0.000000
   203  O2    s     0.241004    0.570613    0.171327    0.000000
   204  O2    s     0.361309    0.786049    0.838646    0.000000
   205  O2    s     0.122426    0.213900    0.975020    0.000000
   206  O2    s     0.794392    0.903546    0.304371    0.000000
   207  O2    s     0.102253    0.876116    0.637736    0.000000
   208  O2    s     0.891145    0.778283    0.472889    0.000000
   209  O2    s     0.236724    0.115117    0.806603    0.000000
   210  O3    s     0.905057    0.126666    0.142507    0.000000
   211  O2    s     0.225120    0.117843    0.365934    0.000000
   212  O2    s     0.906372    0.779455    0.025882    0.000000
   213  O2    s     0.885895    0.091581    0.698025    0.000000
   214  O2    s     0.787461    0.881792    0.864556    0.000000
   215  O2    s     0.108954    0.215146    0.531114    0.000000
   216  O2    s     0.122144    0.876989    0.197971    0.000000
   217  O2    s     0.937006    0.849795    0.252632    0.000000
   218  O2    s     0.151573    0.069901    0.585310    0.000000
   219  O2    s     0.938872    0.075122    0.917385    0.000000
   220  O2    s     0.080298    0.143608    0.751551    0.000000
   221  O3    s     0.877624    0.932896    0.080634    0.000000
   222  O2    s     0.080042    0.924713    0.418792    0.000000
   223  O2    s     0.910065    0.202249    0.985083    0.000000
   224  O2    s     0.802271    0.700317    0.318050    0.000000
   225  O2    s     0.304427    0.088573    0.651025    0.000000
   226  O2    s     0.104737    0.791533    0.483557    0.000000
   227  O3    s     0.204269    0.301646    0.817147    0.000000
   228  O3    s     0.698636    0.889748    0.149595    0.000000
   229  O2    s     0.215651    0.905837    0.353417    0.000000
   230  O2    s     0.705140    0.790381    0.019612    0.000000
   231  O2    s     0.097390    0.294177    0.685975    0.000000
   232  O2    s     0.808392    0.098276    0.851973    0.000000
   233  O2    s     0.309698    0.202255    0.520179    0.000000
   234  O3    s     0.898231    0.694926    0.185119    0.000000
   235  O2    s     0.338179    0.644736    0.254706    0.000000
   236  O2    s     0.353109    0.670203    0.587034    0.000000
   237  O2    s     0.329168    0.671188    0.919684    0.000000
   238  O2    s     0.688648    0.348088    0.749389    0.000000
   239  O2    s     0.652022    0.324429    0.083612    0.000000
   240  O2    s     0.681317    0.323825    0.416481    0.000000
   241  O2    s     0.379975    0.336781    0.967455    0.000000
   242  O2    s     0.668920    0.033364    0.301915    0.000000
   243  O2    s     0.971161    0.620749    0.635444    0.000000
   244  O2    s     0.636511    0.656085    0.472287    0.000000
   245  O2    s     0.354061    0.979305    0.804606    0.000000
   246  O2    s     0.033541    0.373978    0.137821    0.000000
   247  O2    s     0.349150    0.373120    0.368137    0.000000
   248  O2    s     0.039467    0.656688    0.034993    0.000000
   249  O2    s     0.629704    0.961489    0.700513    0.000000
   250  O2    s     0.665051    0.627828    0.865493    0.000000
   251  O2    s     0.976561    0.337334    0.531509    0.000000
   252  O2    s     0.373980    0.014531    0.199786    0.000000
   253  O2    s     0.779759    0.309941    0.017307    0.000000
   254  O2    s     0.697150    0.462520    0.348068    0.000000
   255  O2    s     0.544301    0.221242    0.681024    0.000000
   256  O2    s     0.236612    0.686911    0.515963    0.000000
   257  O3    s     0.311813    0.554486    0.845929    0.000000
   258  O2    s     0.471733    0.758768    0.183798    0.000000
   259  O2    s     0.324663    0.774043    0.323204    0.000000
   260  O2    s     0.467166    0.683485    0.986894    0.000000
   261  O2    s     0.229465    0.531598    0.655558    0.000000
   262  O2    s     0.708822    0.233467    0.819979    0.000000
   263  O2    s     0.546601    0.306551    0.487536    0.000000
   264  O3    s     0.750305    0.444268    0.156618    0.000000
   265  O2    s     0.790074    0.527378    0.032936    0.000000
   266  O2    s     0.475951    0.253766    0.364943    0.000000
   267  O2    s     0.752190    0.207882    0.697281    0.000000
   268  O2    s     0.223305    0.466020    0.532805    0.000000
   269  O2    s     0.533930    0.742981    0.866188    0.000000
   270  O2    s     0.263108    0.769437    0.200654    0.000000
   271  O2    s     0.544926    0.786166    0.304693    0.000000
   272  O2    s     0.260267    0.466170    0.969386    0.000000
   273  O2    s     0.217082    0.740225    0.638608    0.000000
   274  O2    s     0.488130    0.223590    0.804126    0.000000
   275  O2    s     0.754486    0.527400    0.470929    0.000000
   276  O2    s     0.786206    0.258164    0.138267    0.000000
   277  O3    s     0.229218    0.315344    0.903416    0.000000
   278  O2    s     0.678011    0.902879    0.232682    0.000000
   279  O2    s     0.102405    0.755897    0.566693    0.000000
   280  O2    s     0.769561    0.662793    0.401520    0.000000
   281  O2    s     0.346998    0.102239    0.734471    0.000000
   282  O2    s     0.901671    0.236833    0.069373    0.000000
   283  O2    s     0.344173    0.238037    0.436920    0.000000
   284  O3    s     0.908118    0.681182    0.098267    0.000000
   285  O2    s     0.770074    0.093926    0.768949    0.000000
   286  O2    s     0.664644    0.755972    0.935504    0.000000
   287  O2    s     0.101788    0.330892    0.602381    0.000000
   288  O2    s     0.245003    0.891516    0.270249    0.000000
   289  O2    s     0.581423    0.555688    0.984734    0.000000
   290  O2    s     0.449228    0.019264    0.320844    0.000000
   291  O2    s     0.983950    0.414955    0.654415    0.000000
   292  O2    s     0.431815    0.438052    0.491227    0.000000
   293  O2    s     0.572056    0.987906    0.823518    0.000000
   294  O3    s     0.038087    0.579799    0.161492    0.000000
   295  O2    s     0.568114    0.579206    0.349491    0.000000
   296  O2    s     0.022831    0.436879    0.020237    0.000000
   297  O2    s     0.423659    0.975250    0.682881    0.000000
   298  O3    s     0.462521    0.421443    0.841068    0.000000
   299  O2    s     0.990232    0.555455    0.512525    0.000000
   300  O2    s     0.581896    0.006926    0.179034    0.000000
   301  O2    s     0.580238    0.142898    0.249055    0.000000
   302  O2    s     0.856763    0.420270    0.582487    0.000000
   303  O2    s     0.578769    0.421888    0.914881    0.000000
   304  O2    s     0.431773    0.852107    0.754198    0.000000
   305  O2    s     0.155590    0.578150    0.088500    0.000000
   306  O2    s     0.434100    0.573010    0.421350    0.000000
   307  F     s     0.462879    0.892291    0.250507    0.000000
   308  F     s     0.106992    0.546553    0.584441    0.000000
   309  F     s     0.419906    0.513117    0.903944    0.000000
   310  F     s     0.563339    0.102440    0.752501    0.000000
   311  F     s     0.902507    0.484989    0.099239    0.000000
   312  F     s     0.558236    0.447387    0.418970    0.000000
--------------------------------------------------------------------------------

  Final Cartesian lattice vectors (Angstroms) :

       11.984955    0.002743    0.004063
       -6.014064   10.378251   -0.020877
        0.080073   -0.381456   29.334106


  Final cell parameters and derivatives :

--------------------------------------------------------------------------------
       a           11.984956 Angstrom     dE/de1(xx)    -0.000184 eV/strain
       b           11.994895 Angstrom     dE/de2(yy)    -0.000218 eV/strain
       c           29.336695 Angstrom     dE/de3(zz)    -0.000264 eV/strain
       alpha       90.822740 Degrees      dE/de4(yz)    -0.000071 eV/strain
       beta        89.824361 Degrees      dE/de5(xz)     0.000043 eV/strain
       gamma      120.078615 Degrees      dE/de6(xy)     0.000034 eV/strain
--------------------------------------------------------------------------------

  Primitive cell volume =          3649.055004 Angs**3

  Density of cell =      1.753356 g/cm**3

  Non-primitive cell volume =          3649.055004 Angs**3


  Final internal derivatives :

--------------------------------------------------------------------------------
   No.  Atomic          a             b             c           Radius
        Label          (eV)          (eV)          (eV)        (eV/Angs)
--------------------------------------------------------------------------------
      1 Si    c       0.000000      0.000000      0.000000      0.000000
      2 Si    c      -0.000049      0.000028     -0.000038      0.000000
      3 Si    c      -0.000007     -0.000019     -0.000122      0.000000
      4 Si    c      -0.000009      0.000013      0.000007      0.000000
      5 Si    c      -0.000076      0.000033     -0.000182      0.000000
      6 Si    c       0.000114      0.000025      0.000086      0.000000
      7 Si    c       0.000044      0.000020      0.000227      0.000000
      8 Si    c       0.000078     -0.000013     -0.000089      0.000000
      9 Si    c      -0.000016      0.000019      0.000059      0.000000
     10 Si    c      -0.000024      0.000096      0.000347      0.000000
     11 Si    c      -0.000013     -0.000004      0.000031      0.000000
     12 Si    c       0.000059     -0.000039      0.000211      0.000000
     13 Si    c      -0.000028      0.000020     -0.000018      0.000000
     14 Si    c       0.000012     -0.000095      0.000095      0.000000
     15 Si    c       0.000008     -0.000010     -0.000034      0.000000
     16 Si    c       0.000007      0.000011      0.000019      0.000000
     17 Si    c       0.000057     -0.000026      0.000073      0.000000
     18 Si    c      -0.000113      0.000046     -0.000281      0.000000
     19 Si    c       0.000022      0.000001     -0.000053      0.000000
     20 Si    c       0.000014     -0.000027      0.000062      0.000000
     21 Si    c       0.000038      0.000022     -0.000182      0.000000
     22 Si    c       0.000043     -0.000128     -0.000310      0.000000
     23 Si    c      -0.000013      0.000004      0.000037      0.000000
     24 Si    c       0.000089     -0.000020      0.000024      0.000000
     25 Ge    c       0.000071      0.000056     -0.000005      0.000000
     26 Si    c      -0.000139      0.000047      0.000234      0.000000
     27 Si    c       0.000022     -0.000009      0.000014      0.000000
     28 Si    c      -0.000045     -0.000018      0.000050      0.000000
     29 Si    c       0.000095     -0.000060      0.000133      0.000000
     30 Si    c       0.000049     -0.000059      0.000089      0.000000
     31 Si    c       0.000032     -0.000014      0.000012      0.000000
     32 Ge    c       0.000047     -0.000181      0.000118      0.000000
     33 Si    c      -0.000066      0.000038      0.000038      0.000000
     34 Si    c      -0.000018     -0.000055     -0.000078      0.000000
     35 Si    c      -0.000027      0.000026     -0.000047      0.000000
     36 Si    c       0.000091      0.000019      0.000015      0.000000
     37 Si    c       0.000028     -0.000006      0.000093      0.000000
     38 Si    c      -0.000120      0.000052     -0.000060      0.000000
     39 Si    c       0.000024     -0.000014      0.000004      0.000000
     40 Si    c      -0.000017      0.000001      0.000021      0.000000
     41 Si    c       0.000010      0.000018      0.000011      0.000000
     42 Si    c      -0.000046      0.000012      0.000080      0.000000
     43 Si    c       0.000038     -0.000015     -0.000057      0.000000
     44 Si    c      -0.000024      0.000094     -0.000337      0.000000
     45 Si    c      -0.000094      0.000028     -0.000005      0.000000
     46 Si    c      -0.000019     -0.000016     -0.000057      0.000000
     47 Si    c      -0.000007      0.000013      0.000006      0.000000
     48 Si    c       0.000020     -0.000038     -0.000069      0.000000
     49 Si    c       0.000032     -0.000055     -0.000116      0.000000
     50 Si    c       0.000021     -0.000009     -0.000053      0.000000
     51 Si    c      -0.000013      0.000020     -0.000070      0.000000
     52 Si    c      -0.000002      0.000002     -0.000027      0.000000
     53 Si    c       0.000066      0.000064     -0.000185      0.000000
     54 Ge    c       0.000116     -0.000020     -0.000668      0.000000
     55 Si    c       0.000028     -0.000009      0.000090      0.000000
     56 Si    c      -0.000000      0.000030      0.000002      0.000000
     57 Si    c      -0.000009     -0.000036      0.000053      0.000000
     58 Si    c      -0.000059     -0.000018      0.000033      0.000000
     59 Si    c       0.000002      0.000007      0.000003      0.000000
     60 Si    c      -0.000032     -0.000068      0.000106      0.000000
     61 O2    c       0.000007     -0.000041      0.000110      0.000000
     62 O2    c      -0.000048      0.000017     -0.000062      0.000000
     63 O2    c       0.000024     -0.000025     -0.000043      0.000000
     64 O2    c      -0.000005     -0.000013     -0.000030      0.000000
     65 O2    c       0.000037      0.000081     -0.000067      0.000000
     66 O3    c      -0.000050      0.000152     -0.000194      0.000000
     67 O2    c      -0.000003      0.000021     -0.000009      0.000000
     68 O2    c      -0.000034     -0.000035     -0.000131      0.000000
     69 O2    c      -0.000060      0.000051      0.000173      0.000000
     70 O2    c      -0.000120      0.000037      0.000046      0.000000
     71 O2    c      -0.000062     -0.000046      0.000064      0.000000
     72 O2    c       0.000000      0.000005      0.000009      0.000000
     73 O2    c       0.000033      0.000012      0.000094      0.000000
     74 O2    c      -0.000011     -0.000048      0.000103      0.000000
     75 O2    c      -0.000015      0.000033      0.000015      0.000000
     76 O2    c       0.000020     -0.000019     -0.000064      0.000000
     77 O2    c       0.000059     -0.000145     -0.000056      0.000000
     78 O2    c       0.000089     -0.000026      0.000141      0.000000
     79 O2    c       0.000018      0.000005      0.000021      0.000000
     80 O2    c      -0.000024      0.000028      0.000039      0.000000
     81 O2    c       0.000005     -0.000014      0.000005      0.000000
     82 O2    c       0.000002     -0.000004     -0.000003      0.000000
     83 O2    c      -0.000255      0.000243     -0.000188      0.000000
     84 O3    c      -0.000017      0.000088     -0.000081      0.000000
     85 O2    c       0.000002      0.000006      0.000002      0.000000
     86 O2    c      -0.000008      0.000001     -0.000048      0.000000
     87 O2    c       0.000038     -0.000016     -0.000011      0.000000
     88 O2    c      -0.000016      0.000101      0.000003      0.000000
     89 O2    c      -0.000009      0.000010     -0.000010      0.000000
     90 O2    c       0.000183     -0.000002     -0.000001      0.000000
     91 O2    c      -0.000018      0.000002      0.000108      0.000000
     92 O2    c       0.000009     -0.000036      0.000192      0.000000
     93 O2    c       0.000070      0.000025      0.000092      0.000000
     94 O2    c       0.000065     -0.000017      0.000497      0.000000
     95 O3    c      -0.000122      0.000061      0.001332      0.000000
     96 O2    c      -0.000006      0.000012     -0.000062      0.000000
     97 O2    c      -0.000119      0.000087     -0.000019      0.000000
     98 O2    c       0.000005      0.000013     -0.000057      0.000000
     99 O2    c      -0.000031     -0.000004     -0.000055      0.000000
    100 O2    c       0.000003     -0.000003     -0.000011      0.000000
    101 O3    c       0.000069     -0.000511     -0.000169      0.000000
    102 O3    c       0.000139     -0.000052     -0.000201      0.000000
    103 O2    c       0.000007      0.000003      0.000010      0.000000
    104 O2    c       0.000015     -0.000006      0.000016      0.000000
    105 O2    c      -0.000004      0.000009     -0.000036      0.000000
    106 O2    c       0.000124     -0.000091      0.000102      0.000000
    107 O2    c       0.000002      0.000001     -0.000007      0.000000
    108 O3    c      -0.000010     -0.000014      0.000018      0.000000
    109 O2    c       0.000000     -0.000051      0.000007      0.000000
    110 O2    c      -0.000001      0.000001     -0.000044      0.000000
    111 O2    c       0.000007      0.000005     -0.000024      0.000000
    112 O2    c      -0.000013      0.000025      0.000020      0.000000
    113 O2    c      -0.000078     -0.000003     -0.000243      0.000000
    114 O2    c       0.000010     -0.000007      0.000059      0.000000
    115 O2    c      -0.000049      0.000034     -0.000055      0.000000
    116 O2    c      -0.000025      0.000012     -0.000012      0.000000
    117 O2    c       0.000004     -0.000001      0.000006      0.000000
    118 O2    c       0.000007     -0.000011     -0.000019      0.000000
    119 O2    c       0.000007     -0.000012      0.000018      0.000000
    120 O2    c       0.000004     -0.000028     -0.000022      0.000000
    121 O2    c       0.000005     -0.000008      0.000010      0.000000
    122 O2    c       0.000067     -0.000026     -0.000052      0.000000
    123 O2    c      -0.000013      0.000022      0.000039      0.000000
    124 O2    c      -0.000003     -0.000023      0.000006      0.000000
    125 O2    c       0.000015     -0.000010      0.000021      0.000000
    126 O2    c      -0.000042      0.000012     -0.000010      0.000000
    127 O2    c      -0.000198      0.000096     -0.000049      0.000000
    128 O2    c      -0.000012      0.000005     -0.000001      0.000000
    129 O2    c       0.000000     -0.000021      0.000054      0.000000
    130 O2    c      -0.000021      0.000010     -0.000006      0.000000
    131 O3    c       0.000026     -0.000011     -0.000058      0.000000
    132 O2    c      -0.000022     -0.000001     -0.000006      0.000000
    133 O2    c       0.000014     -0.000023     -0.000026      0.000000
    134 O2    c      -0.000008     -0.000001     -0.000027      0.000000
    135 O2    c      -0.000011      0.000011     -0.000010      0.000000
    136 O2    c      -0.000002     -0.000005      0.000068      0.000000
    137 O2    c      -0.000017      0.000013     -0.000020      0.000000
    138 O3    c       0.000044     -0.000006      0.000115      0.000000
    139 O2    c      -0.000076     -0.000010     -0.000208      0.000000
    140 O2    c      -0.000006      0.000015      0.000047      0.000000
    141 O2    c      -0.000001     -0.000022      0.000025      0.000000
    142 O2    c      -0.000012     -0.000008      0.000016      0.000000
    143 O2    c       0.000025     -0.000023      0.000034      0.000000
    144 O2    c      -0.000113      0.000102     -0.000028      0.000000
    145 O2    c      -0.000026      0.000024     -0.000049      0.000000
    146 O2    c       0.000020     -0.000046     -0.000030      0.000000
    147 O2    c      -0.000001     -0.000013     -0.000037      0.000000
    148 O2    c      -0.000012     -0.000068     -0.000103      0.000000
    149 O2    c      -0.000010      0.000018     -0.000018      0.000000
    150 O2    c       0.000027      0.000003     -0.000021      0.000000
    151 O3    c      -0.000084     -0.000028      0.000153      0.000000
    152 O2    c      -0.000014      0.000013      0.000104      0.000000
    153 O2    c       0.000001     -0.000002      0.000005      0.000000
    154 O2    c       0.000004     -0.000000      0.000011      0.000000
    155 O2    c       0.000021     -0.000012     -0.000045      0.000000
    156 O2    c       0.000022     -0.000012     -0.000097      0.000000
    157 O2    c      -0.000006     -0.000003     -0.000002      0.000000
    158 O3    c      -0.000057      0.000223      0.000064      0.000000
    159 O2    c      -0.000013      0.000010     -0.000083      0.000000
    160 O2    c      -0.000006     -0.000013      0.000113      0.000000
    161 O2    c      -0.000003      0.000004     -0.000019      0.000000
    162 O2    c      -0.000007     -0.000004      0.000005      0.000000
    163 O2    c      -0.000013      0.000036     -0.000051      0.000000
    164 O2    c      -0.000024     -0.000030     -0.000039      0.000000
    165 O2    c       0.000019     -0.000011     -0.000010      0.000000
    166 O2    c      -0.000003     -0.000006     -0.000002      0.000000
    167 O2    c       0.000011     -0.000004     -0.000022      0.000000
    168 O3    c      -0.000052      0.000165      0.000285      0.000000
    169 O2    c       0.000025     -0.000012      0.000030      0.000000
    170 O2    c       0.000028      0.000011      0.000020      0.000000
    171 O2    c      -0.000033      0.000058     -0.000019      0.000000
    172 O3    c       0.000021     -0.000037      0.000111      0.000000
    173 O2    c      -0.000004      0.000002     -0.000002      0.000000
    174 O2    c       0.000027      0.000012     -0.000044      0.000000
    175 O2    c      -0.000013      0.000019     -0.000265      0.000000
    176 O2    c       0.000011     -0.000004      0.000002      0.000000
    177 O2    c      -0.000045     -0.000011      0.000083      0.000000
    178 O2    c      -0.000021     -0.000001      0.000295      0.000000
    179 O2    c      -0.000006      0.000016     -0.000002      0.000000
    180 O2    c      -0.000000      0.000008      0.000042      0.000000
    181 F     c       0.000000      0.000031      0.000013      0.000000
    182 F     c      -0.000004      0.000003      0.000004      0.000000
    183 F     c       0.000047     -0.000037     -0.000093      0.000000
    184 F     c      -0.000004     -0.000031     -0.000034      0.000000
    185 F     c       0.000068     -0.000028      0.000131      0.000000
    186 F     c      -0.000004      0.000002     -0.000018      0.000000
    187 O2    s      -0.000015     -0.000010     -0.000096      0.000000
    188 O2    s       0.000000      0.000002      0.000004      0.000000
    189 O2    s      -0.000005      0.000017      0.000008      0.000000
    190 O2    s       0.000003     -0.000005     -0.000003      0.000000
    191 O2    s       0.000060      0.000012     -0.000055      0.000000
    192 O3    s      -0.000075      0.000035      0.000051      0.000000
    193 O2    s      -0.000004     -0.000010     -0.000060      0.000000
    194 O2    s       0.000003     -0.000005     -0.000008      0.000000
    195 O2    s       0.000012     -0.000046     -0.000069      0.000000
    196 O2    s       0.000107     -0.000039     -0.000077      0.000000
    197 O2    s       0.000059     -0.000016      0.000039      0.000000
    198 O2    s      -0.000012      0.000013     -0.000013      0.000000
    199 O2    s       0.000022     -0.000012      0.000065      0.000000
    200 O2    s      -0.000003      0.000010      0.000006      0.000000
    201 O2    s       0.000006      0.000005      0.000063      0.000000
    202 O2    s      -0.000011     -0.000000      0.000010      0.000000
    203 O2    s      -0.000061      0.000184      0.000078      0.000000
    204 O2    s      -0.000004     -0.000025     -0.000056      0.000000
    205 O2    s      -0.000006      0.000036     -0.000093      0.000000
    206 O2    s       0.000050     -0.000032     -0.000052      0.000000
    207 O2    s      -0.000006      0.000023     -0.000045      0.000000
    208 O2    s       0.000002     -0.000002     -0.000013      0.000000
    209 O2    s      -0.000166      0.000163      0.000039      0.000000
    210 O3    s      -0.000001     -0.000189     -0.000199      0.000000
    211 O2    s       0.000003      0.000004      0.000035      0.000000
    212 O2    s       0.000009      0.000050      0.000102      0.000000
    213 O2    s       0.000004      0.000015      0.000064      0.000000
    214 O2    s      -0.000001      0.000069      0.000135      0.000000
    215 O2    s      -0.000005      0.000018      0.000041      0.000000
    216 O2    s      -0.000062      0.000013      0.000132      0.000000
    217 O2    s      -0.000006      0.000011      0.000029      0.000000
    218 O2    s       0.000003      0.000006      0.000036      0.000000
    219 O2    s      -0.000027     -0.000078     -0.000240      0.000000
    220 O2    s       0.000071      0.000030      0.000174      0.000000
    221 O3    s      -0.000037     -0.000021     -0.000505      0.000000
    222 O2    s      -0.000002     -0.000003      0.000023      0.000000
    223 O2    s       0.000043     -0.000067      0.000022      0.000000
    224 O2    s       0.000006     -0.000005      0.000028      0.000000
    225 O2    s      -0.000020      0.000026      0.000028      0.000000
    226 O2    s      -0.000008      0.000004      0.000055      0.000000
    227 O3    s       0.000047     -0.000057     -0.000208      0.000000
    228 O3    s       0.000025      0.000108      0.000109      0.000000
    229 O2    s      -0.000010     -0.000012     -0.000001      0.000000
    230 O2    s      -0.000010      0.000030     -0.000041      0.000000
    231 O2    s       0.000009     -0.000012      0.000067      0.000000
    232 O2    s       0.000035     -0.000081     -0.000073      0.000000
    233 O2    s       0.000001      0.000001     -0.000025      0.000000
    234 O3    s       0.000001     -0.000054     -0.000140      0.000000
    235 O2    s       0.000015      0.000138     -0.000045      0.000000
    236 O2    s      -0.000013     -0.000007      0.000056      0.000000
    237 O2    s       0.000007     -0.000022     -0.000097      0.000000
    238 O2    s       0.000030     -0.000114     -0.000006      0.000000
    239 O2    s       0.000046      0.000103      0.000056      0.000000
    240 O2    s      -0.000013      0.000024     -0.000023      0.000000
    241 O2    s      -0.000016     -0.000000     -0.000008      0.000000
    242 O2    s       0.000040      0.000021      0.000042      0.000000
    243 O2    s       0.000000      0.000003     -0.000033      0.000000
    244 O2    s      -0.000007     -0.000003     -0.000015      0.000000
    245 O2    s       0.000024     -0.000023     -0.000090      0.000000
    246 O2    s      -0.000007      0.000031      0.000042      0.000000
    247 O2    s       0.000003      0.000001      0.000017      0.000000
    248 O2    s      -0.000010      0.000002      0.000041      0.000000
    249 O2    s      -0.000001     -0.000006      0.000023      0.000000
    250 O2    s      -0.000016      0.000008      0.000065      0.000000
    251 O2    s       0.000003      0.000009      0.000011      0.000000
    252 O2    s       0.000077     -0.000057      0.000120      0.000000
    253 O2    s       0.000041      0.000034     -0.000005      0.000000
    254 O2    s       0.000022     -0.000006      0.000040      0.000000
    255 O2    s       0.000004      0.000033      0.000021      0.000000
    256 O2    s      -0.000001     -0.000005      0.000059      0.000000
    257 O3    s      -0.000020      0.000012      0.000220      0.000000
    258 O2    s      -0.000010     -0.000055      0.000111      0.000000
    259 O2    s      -0.000002     -0.000028     -0.000103      0.000000
    260 O2    s       0.000031     -0.000006     -0.000007      0.000000
    261 O2    s       0.000023     -0.000010     -0.000037      0.000000
    262 O2    s      -0.000026      0.000019     -0.000245      0.000000
    263 O2    s       0.000001      0.000004     -0.000020      0.000000
    264 O3    s      -0.000036      0.000082     -0.000207      0.000000
    265 O2    s       0.000048     -0.000102      0.000208      0.000000
    266 O2    s       0.000011     -0.000010     -0.000029      0.000000
    267 O2    s      -0.000009      0.000059      0.000038      0.000000
    268 O2    s      -0.000005      0.000010      0.000028      0.000000
    269 O2    s      -0.000025      0.000037     -0.000035      0.000000
    270 O2    s       0.000188     -0.000156      0.000111      0.000000
    271 O2    s       0.000011     -0.000091      0.000063      0.000000
    272 O2    s       0.000001      0.000007     -0.000016      0.000000
    273 O2    s       0.000028     -0.000001      0.000011      0.000000
    274 O2    s      -0.000029      0.000091      0.000099      0.000000
    275 O2    s      -0.000002     -0.000010     -0.000010      0.000000
    276 O2    s       0.000007     -0.000048     -0.000016      0.000000
    277 O3    s       0.000099      0.000025      0.000011      0.000000
    278 O2    s       0.000105     -0.000062     -0.000222      0.000000
    279 O2    s       0.000000     -0.000003     -0.000015      0.000000
    280 O2    s       0.000001      0.000001      0.000016      0.000000
    281 O2    s      -0.000035      0.000017      0.000018      0.000000
    282 O2    s      -0.000005     -0.000024      0.000174      0.000000
    283 O2    s      -0.000001      0.000002     -0.000003      0.000000
    284 O3    s       0.000024     -0.000195      0.000082      0.000000
    285 O2    s       0.000043     -0.000015      0.000077      0.000000
    286 O2    s       0.000003      0.000025     -0.000067      0.000000
    287 O2    s       0.000009      0.000003     -0.000002      0.000000
    288 O2    s      -0.000045      0.000041     -0.000090      0.000000
    289 O2    s      -0.000013      0.000016      0.000026      0.000000
    290 O2    s      -0.000026      0.000050      0.000076      0.000000
    291 O2    s       0.000002     -0.000006      0.000006      0.000000
    292 O2    s      -0.000002      0.000008     -0.000014      0.000000
    293 O2    s      -0.000004     -0.000011     -0.000024      0.000000
    294 O3    s       0.000052     -0.000199     -0.000341      0.000000
    295 O2    s      -0.000009      0.000012     -0.000015      0.000000
    296 O2    s      -0.000011      0.000043     -0.000046      0.000000
    297 O2    s       0.000010     -0.000024      0.000121      0.000000
    298 O3    s      -0.000054      0.000082     -0.000050      0.000000
    299 O2    s       0.000006      0.000003      0.000029      0.000000
    300 O2    s      -0.000066      0.000038      0.000040      0.000000
    301 O2    s      -0.000039     -0.000019      0.000042      0.000000
    302 O2    s      -0.000009      0.000005     -0.000018      0.000000
    303 O2    s       0.000062     -0.000004     -0.000095      0.000000
    304 O2    s      -0.000028      0.000053     -0.000128      0.000000
    305 O2    s       0.000017     -0.000023      0.000007      0.000000
    306 O2    s       0.000010     -0.000015      0.000021      0.000000
    307 F     s      -0.000021     -0.000072     -0.000047      0.000000
    308 F     s       0.000016     -0.000007     -0.000016      0.000000
    309 F     s      -0.000128      0.000040     -0.000083      0.000000
    310 F     s       0.000013      0.000078      0.000055      0.000000
    311 F     s      -0.000166      0.000110     -0.000039      0.000000
    312 F     s       0.000010     -0.000006      0.000046      0.000000
--------------------------------------------------------------------------------
  Maximum abs         0.000255      0.000511      0.001332      0.000000
--------------------------------------------------------------------------------


  Time to end of optimisation =       8.5418 seconds


  Peak dynamic memory used =      19.13 MB 


  Timing analysis for GULP :

--------------------------------------------------------------------------------
  Task / Subroutine                                          Time (Seconds)
--------------------------------------------------------------------------------
  Calculation of reciprocal space energy and derivatives          0.3085
  Calculation of real space energy and derivatives                7.1199
  Calculation of three-body energy and derivatives                0.7945
  Calculation of matrix inversion                                 0.2617
--------------------------------------------------------------------------------
  Total CPU time                                                  8.5418
--------------------------------------------------------------------------------


  Dump file written as out.res                                                 
  CIF file written as out.cif                                                 


  Job Finished at 03:45.59 27th November   2016                               

