********************************************************************************
*                       GENERAL UTILITY LATTICE PROGRAM                        *
*                                 Julian Gale                                  *
*                      Nanochemistry Research Institute                        *
*                           Department of Chemistry                            *
*                    Curtin University, Western Australia                      *
********************************************************************************
* Version = 4.2.0 * Last modified =  20th January 2014                         *
********************************************************************************
*  optimise     - perform optimisation run                                     *
*  conp         - constant pressure calculation                                *
*  qok          - running with non charge neutral cell is OK                   *
********************************************************************************

  Job Started  at 01:37.14 26th November   2016                               

  Number of CPUs =     1


  Total number of configurations input =   1

********************************************************************************
*  Input for Configuration =   1                                               *
********************************************************************************

  Formula = Si57Ge3O120F6                                               

  Number of irreducible atoms/shells =     312


  Total number atoms/shells =     312

  Dimensionality = 3               :  Bulk   


  Charge on solid   =  -6.000000 =>neutralising background added


  Cartesian lattice vectors (Angstroms) :

       11.964689    0.000000    0.000000
       -5.967847   10.344722    0.000000
       -0.067435    0.202721   29.563954

  Cell parameters (Angstroms/Degrees):

  a =      11.9647    alpha =  89.5944
  b =      11.9427    beta  =  90.1307
  c =      29.5647    gamma = 119.9806

  Initial cell volume =        3659.171302 Angs**3

  Temperature of configuration =  0.000     K 

  Pressure of configuration =         0.000 GPa 

  Fractional coordinates of asymmetric unit :

--------------------------------------------------------------------------------
   No.  Atomic       x           y          z         Charge      Occupancy
        Label      (Frac)      (Frac)     (Frac)        (e)         (Frac)  
--------------------------------------------------------------------------------
      1 Si    c    0.699600    0.375700    0.033890     4.00000    1.000000    
      2 Si    c    0.617660 *  0.322498 *  0.368948 *   4.00000    1.000000    
      3 Si    c    0.674456 *  0.298402 *  0.699634 *   4.00000    1.000000    
      4 Si    c    0.296221 *  0.622787 *  0.533229 *   4.00000    1.000000    
      5 Si    c    0.372714 *  0.673761 *  0.865003 *   4.00000    1.000000    
      6 Si    c    0.320004 *  0.696316 *  0.197594 *   4.00000    1.000000    
      7 Si    c    0.366809 *  0.697681 *  0.300517 *   4.00000    1.000000    
      8 Si    c    0.316306 *  0.623964 *  0.967204 *   4.00000    1.000000    
      9 Si    c    0.296742 *  0.676126 *  0.633572 *   4.00000    1.000000    
     10 Si    c    0.618382 *  0.295479 *  0.799796 *   4.00000    1.000000    
     11 Si    c    0.674464 *  0.380664 *  0.468710 *   4.00000    1.000000    
     12 Si    c    0.712604 *  0.329396 *  0.133516 *   4.00000    1.000000    
     13 Si    c    0.525589 *  0.408908 *  0.968341 *   4.00000    1.000000    
     14 Si    c    0.574762 *  0.115060 *  0.302472 *   4.00000    1.000000    
     15 Si    c    0.886072 *  0.470178 *  0.635083 *   4.00000    1.000000    
     16 Si    c    0.467568 *  0.585742 *  0.467760 *   4.00000    1.000000    
     17 Si    c    0.416552 *  0.886856 *  0.799506 *   4.00000    1.000000    
     18 Si    c    0.117505 *  0.528919 *  0.132294 *   4.00000    1.000000    
     19 Si    c    0.414631 *  0.531993 *  0.366631 *   4.00000    1.000000    
     20 Si    c    0.111023 *  0.586736 *  0.031465 *   4.00000    1.000000    
     21 Si    c    0.467826 *  0.886361 *  0.698270 *   4.00000    1.000000    
     22 Si    c    0.578782 *  0.464526 *  0.865321 *   4.00000    1.000000    
     23 Si    c    0.884730 *  0.418432 *  0.533787 *   4.00000    1.000000    
     24 Si    c    0.533006 *  0.123365 *  0.199048 *   4.00000    1.000000    
     25 Si    c    0.293864 *  0.392418 *  0.848323 *   4.00000    1.000000    
     26 Si    c    0.603913 *  0.907020 *  0.185704 *   4.00000    1.000000    
     27 Si    c    0.094178 *  0.699668 *  0.519244 *   4.00000    1.000000    
     28 Si    c    0.694605 *  0.600773 *  0.352221 *   4.00000    1.000000    
     29 Si    c    0.396671 *  0.097039 *  0.684711 *   4.00000    1.000000    
     30 Si    c    0.904581 *  0.303582 *  0.016945 *   4.00000    1.000000    
     31 Si    c    0.396150 *  0.304701 *  0.483514 *   4.00000    1.000000    
     32 Si    c    0.912767 *  0.606337 *  0.148792 *   4.00000    1.000000    
     33 Si    c    0.697235 *  0.094690 *  0.814006 *   4.00000    1.000000    
     34 Si    c    0.597308 *  0.694607 *  0.982107 *   4.00000    1.000000    
     35 Si    c    0.095082 *  0.397746 *  0.648961 *   4.00000    1.000000    
     36 Si    c    0.288949 *  0.900775 *  0.317646 *   4.00000    1.000000    
     37 Ge    c    0.260657 *  0.354576 *  0.947922 *   4.00000    1.000000    
     38 Si    c    0.654712 *  0.912518 *  0.287847 *   4.00000    1.000000    
     39 Si    c    0.088098 *  0.749192 *  0.619518 *   4.00000    1.000000    
     40 Si    c    0.746277 *  0.662412 *  0.452165 *   4.00000    1.000000    
     41 Si    c    0.337294 *  0.087597 *  0.784971 *   4.00000    1.000000    
     42 Si    c    0.915024 *  0.251023 *  0.117130 *   4.00000    1.000000    
     43 Si    c    0.338173 *  0.253354 *  0.383410 *   4.00000    1.000000    
     44 Si    c    0.907376 *  0.659872 *  0.048398 *   4.00000    1.000000    
     45 Si    c    0.746560 *  0.088406 *  0.713587 *   4.00000    1.000000    
     46 Si    c    0.659042 *  0.746630 *  0.880477 *   4.00000    1.000000    
     47 Si    c    0.086689 *  0.341387 *  0.548628 *   4.00000    1.000000    
     48 Ge    c    0.267365 *  0.911341 *  0.217780 *   4.00000    1.000000    
     49 Si    c    0.975407 *  0.125618 *  0.966359 *   4.00000    1.000000    
     50 Ge    c    0.878105 *  0.850295 *  0.299795 *   4.00000    1.000000    
     51 Si    c    0.148847 *  0.028847 *  0.634393 *   4.00000    1.000000    
     52 Si    c    0.024857 *  0.880349 *  0.469219 *   4.00000    1.000000    
     53 Si    c    0.117841 *  0.147128 *  0.799082 *   4.00000    1.000000    
     54 Si    c    0.850710 *  0.970441 *  0.133168 *   4.00000    1.000000    
     55 Si    c    0.119677 *  0.974531 *  0.369108 *   4.00000    1.000000    
     56 Si    c    0.845501 *  0.878983 *  0.031802 *   4.00000    1.000000    
     57 Si    c    0.024933 *  0.147636 *  0.698916 *   4.00000    1.000000    
     58 Si    c    0.877862 *  0.029138 *  0.866070 *   4.00000    1.000000    
     59 Si    c    0.147867 *  0.123072 *  0.533874 *   4.00000    1.000000    
     60 Si    c    0.984709 *  0.857217 *  0.197724 *   4.00000    1.000000    
     61 O2    c    0.924043 *  0.999790 *  0.998960 *   0.87073    1.000000    
     62 O3    c    0.003032 *  0.938964 *  0.335981 *   1.33043    1.000000    
     63 O2    c    0.067149 *  0.068473 *  0.666552 *   0.87073    1.000000    
     64 O2    c    0.066160 *  0.000390 *  0.502277 *   0.87073    1.000000    
     65 O2    c    0.999204 *  0.070392 *  0.833300 *   0.87073    1.000000    
     66 O2    c    0.932335 *  0.926575 *  0.163232 *   0.87073    1.000000    
     67 O2    c    0.335120 *  0.576972 *  0.333666 *   0.87073    1.000000    
     68 O2    c    0.420031 *  0.761370 *  0.666007 *   0.87073    1.000000    
     69 O2    c    0.236290 *  0.670477 *  0.999049 *   0.87073    1.000000    
     70 O2    c    0.656084 *  0.417243 *  0.832968 *   0.87073    1.000000    
     71 O2    c    0.593780 *  0.251561 *  0.168178 *   0.87073    1.000000    
     72 O2    c    0.758802 *  0.342443 *  0.501743 *   0.87073    1.000000    
     73 O2    c    0.579815 *  0.336388 *  0.000320 *   0.87073    1.000000    
     74 O2    c    0.760582 *  0.422552 *  0.667345 *   0.87073    1.000000    
     75 O2    c    0.653175 *  0.236596 *  0.336019 *   0.87073    1.000000    
     76 O2    c    0.418570 *  0.662053 *  0.500093 *   0.87073    1.000000    
     77 O2    c    0.244268 *  0.572744 *  0.164061 *   0.87073    1.000000    
     78 O2    c    0.339042 *  0.761022 *  0.832023 *   0.87073    1.000000    
     79 O3    c    0.124697 *  0.211374 *  0.970353 *   1.33043    1.000000    
     80 O3    c    0.774519 *  0.910928 *  0.309684 *   1.33043    1.000000    
     81 O2    c    0.087489 *  0.874603 *  0.639867 *   0.87073    1.000000    
     82 O2    c    0.870433 *  0.788076 *  0.473355 *   0.87073    1.000000    
     83 O2    c    0.209593 *  0.084239 *  0.804936 *   0.87073    1.000000    
     84 O2    c    0.915682 *  0.125095 *  0.137674 *   0.87073    1.000000    
     85 O2    c    0.212786 *  0.128752 *  0.363302 *   0.87073    1.000000    
     86 O2    c    0.906509 *  0.785724 *  0.027672 *   0.87073    1.000000    
     87 O2    c    0.871305 *  0.087448 *  0.692720 *   0.87073    1.000000    
     88 O2    c    0.784041 *  0.873543 *  0.860643 *   0.87073    1.000000    
     89 O2    c    0.085282 *  0.214811 *  0.528380 *   0.87073    1.000000    
     90 O3    c    0.133999 *  0.921328 *  0.194337 *   1.33043    1.000000    
     91 O3    c    0.931866 *  0.872957 *  0.246029 *   1.33043    1.000000    
     92 O2    c    0.135407 *  0.069704 *  0.584205 *   0.87073    1.000000    
     93 O2    c    0.926115 *  0.066660 *  0.916487 *   0.87073    1.000000    
     94 O2    c    0.059153 *  0.127132 *  0.749323 *   0.87073    1.000000    
     95 O2    c    0.852316 *  0.929201 *  0.082073 *   0.87073    1.000000    
     96 O2    c    0.064417 *  0.937098 *  0.419395 *   0.87073    1.000000    
     97 O2    c    0.905417 *  0.209249 *  0.978035 *   0.87073    1.000000    
     98 O3    c    0.790767 *  0.687994 *  0.312682 *   1.33043    1.000000    
     99 O2    c    0.300527 *  0.099750 *  0.646433 *   0.87073    1.000000    
    100 O2    c    0.094769 *  0.797993 *  0.480946 *   0.87073    1.000000    
    101 O2    c    0.204375 *  0.301136 *  0.806984 *   0.87073    1.000000    
    102 O2    c    0.700668 *  0.904664 *  0.148297 *   0.87073    1.000000    
    103 O2    c    0.200278 *  0.901509 *  0.359374 *   0.87073    1.000000    
    104 O2    c    0.693379 *  0.794223 *  0.019387 *   0.87073    1.000000    
    105 O2    c    0.096753 *  0.300383 *  0.687358 *   0.87073    1.000000    
    106 O2    c    0.795196 *  0.097363 *  0.852443 *   0.87073    1.000000    
    107 O2    c    0.299638 *  0.205679 *  0.521836 *   0.87073    1.000000    
    108 O2    c    0.916468 *  0.702396 *  0.187869 *   0.87073    1.000000    
    109 O2    c    0.316221 *  0.644657 *  0.249733 *   0.87073    1.000000    
    110 O2    c    0.354194 *  0.678151 *  0.583364 *   0.87073    1.000000    
    111 O2    c    0.318832 *  0.674901 *  0.915271 *   0.87073    1.000000    
    112 O2    c    0.675607 *  0.355084 *  0.749830 *   0.87073    1.000000    
    113 O2    c    0.645119 *  0.321282 *  0.084441 *   0.87073    1.000000    
    114 O2    c    0.674506 *  0.321625 *  0.419079 *   0.87073    1.000000    
    115 O3    c    0.374015 *  0.318648 *  0.972649 *   1.33043    1.000000    
    116 O2    c    0.658784 *  0.043264 *  0.303951 *   0.87073    1.000000    
    117 O2    c    0.955627 *  0.626652 *  0.637960 *   0.87073    1.000000    
    118 O2    c    0.623832 *  0.672950 *  0.470119 *   0.87073    1.000000    
    119 O2    c    0.329240 *  0.955494 *  0.803280 *   0.87073    1.000000    
    120 O2    c    0.048410 *  0.372511 *  0.134932 *   0.87073    1.000000    
    121 O2    c    0.328667 *  0.375759 *  0.364201 *   0.87073    1.000000    
    122 O2    c    0.039583 *  0.671601 *  0.029306 *   0.87073    1.000000    
    123 O2    c    0.624072 *  0.955729 *  0.695693 *   0.87073    1.000000    
    124 O2    c    0.664499 *  0.621350 *  0.863182 *   0.87073    1.000000    
    125 O2    c    0.953893 *  0.331228 *  0.530572 *   0.87073    1.000000    
    126 O3    c    0.381635 *  0.061134 *  0.193249 *   1.33043    1.000000    
    127 O2    c    0.769247 *  0.302355 *  0.011283 *   0.87073    1.000000    
    128 O2    c    0.692436 *  0.465125 *  0.346298 *   0.87073    1.000000    
    129 O2    c    0.531151 *  0.231249 *  0.677435 *   0.87073    1.000000    
    130 O2    c    0.227546 *  0.698543 *  0.511377 *   0.87073    1.000000    
    131 O2    c    0.298495 *  0.530615 *  0.843053 *   0.87073    1.000000    
    132 O2    c    0.468764 *  0.773336 *  0.179743 *   0.87073    1.000000    
    133 O2    c    0.291069 *  0.765487 *  0.322143 *   0.87073    1.000000    
    134 O2    c    0.462911 *  0.694742 *  0.987054 *   0.87073    1.000000    
    135 O2    c    0.229069 *  0.532350 *  0.656121 *   0.87073    1.000000    
    136 O2    c    0.693771 *  0.227007 *  0.821917 *   0.87073    1.000000    
    137 O2    c    0.531154 *  0.306536 *  0.491091 *   0.87073    1.000000    
    138 O2    c    0.779080 *  0.471703 *  0.156239 *   0.87073    1.000000    
    139 O2    c    0.779924 *  0.533469 *  0.029985 *   0.87073    1.000000    
    140 O2    c    0.461979 *  0.248841 *  0.364462 *   0.87073    1.000000    
    141 O2    c    0.747433 *  0.215446 *  0.694345 *   0.87073    1.000000    
    142 O2    c    0.213418 *  0.466497 *  0.528771 *   0.87073    1.000000    
    143 O2    c    0.527807 *  0.737876 *  0.862871 *   0.87073    1.000000    
    144 O3    c    0.240424 *  0.769296 *  0.190184 *   1.33043    1.000000    
    145 O2    c    0.520820 *  0.789687 *  0.303573 *   0.87073    1.000000    
    146 O3    c    0.234501 *  0.470918 *  0.974541 *   1.33043    1.000000    
    147 O2    c    0.215031 *  0.750483 *  0.638703 *   0.87073    1.000000    
    148 O2    c    0.462149 *  0.214487 *  0.804531 *   0.87073    1.000000    
    149 O2    c    0.748406 *  0.537132 *  0.471919 *   0.87073    1.000000    
    150 O2    c    0.789094 *  0.249023 *  0.137755 *   0.87073    1.000000    
    151 O3    c    0.213235 *  0.309521 *  0.890965 *   1.33043    1.000000    
    152 O2    c    0.670323 *  0.910486 *  0.233668 *   0.87073    1.000000    
    153 O2    c    0.090135 *  0.769693 *  0.565403 *   0.87073    1.000000    
    154 O2    c    0.766892 *  0.680341 *  0.397837 *   0.87073    1.000000    
    155 O2    c    0.321004 *  0.090838 *  0.730804 *   0.87073    1.000000    
    156 O2    c    0.912125 *  0.232944 *  0.063000 *   0.87073    1.000000    
    157 O2    c    0.320871 *  0.234785 *  0.437588 *   0.87073    1.000000    
    158 O2    c    0.912712 *  0.680110 *  0.102484 *   0.87073    1.000000    
    159 O2    c    0.767478 *  0.091402 *  0.767691 *   0.87073    1.000000    
    160 O2    c    0.667834 *  0.756524 *  0.934520 *   0.87073    1.000000    
    161 O2    c    0.089620 *  0.323159 *  0.602759 *   0.87073    1.000000    
    162 O3    c    0.211100 *  0.904358 *  0.274388 *   1.33043    1.000000    
    163 O2    c    0.577928 *  0.552591 *  0.989690 *   0.87073    1.000000    
    164 O2    c    0.432272 *  0.025313 *  0.323686 *   0.87073    1.000000    
    165 O2    c    0.969896 *  0.412090 *  0.658067 *   0.87073    1.000000    
    166 O2    c    0.410702 *  0.444758 *  0.491537 *   0.87073    1.000000    
    167 O2    c    0.558305 *  0.967115 *  0.822488 *   0.87073    1.000000    
    168 O2    c    0.035589 *  0.586750 *  0.156083 *   0.87073    1.000000    
    169 O2    c    0.556271 *  0.591230 *  0.343618 *   0.87073    1.000000    
    170 O2    c    0.026457 *  0.446168 *  0.008442 *   0.87073    1.000000    
    171 O2    c    0.411297 *  0.971947 *  0.675619 *   0.87073    1.000000    
    172 O2    c    0.437807 *  0.412374 *  0.843027 *   0.87073    1.000000    
    173 O2    c    0.968470 *  0.560241 *  0.510723 *   0.87073    1.000000    
    174 O2    c    0.586001 *  0.030672 *  0.179259 *   0.87073    1.000000    
    175 O2    c    0.576283 *  0.167485 *  0.251723 *   0.87073    1.000000    
    176 O2    c    0.832256 *  0.417444 *  0.584558 *   0.87073    1.000000    
    177 O2    c    0.577171 *  0.413978 *  0.916468 *   0.87073    1.000000    
    178 O2    c    0.414589 *  0.832808 *  0.749017 *   0.87073    1.000000    
    179 O2    c    0.167143 *  0.584290 *  0.081471 *   0.87073    1.000000    
    180 O2    c    0.413885 *  0.585685 *  0.417048 *   0.87073    1.000000    
    181 F     c    0.411391 *  0.907107 *  0.245975 *   0.56000    1.000000    
    182 F     c    0.094601 *  0.548521 *  0.584166 *   0.56000    1.000000    
    183 F     c    0.411438 *  0.507296 *  0.920941 *   0.56000    1.000000    
    184 F     c    0.545788 *  0.095402 *  0.749936 *   0.56000    1.000000    
    185 F     c    0.901889 *  0.450128 *  0.083901 *   0.56000    1.000000    
    186 F     c    0.546072 *  0.455340 *  0.417443 *   0.56000    1.000000    
    187 O2    s    0.920414 *  0.999144 *  0.999297 *  -2.87073    1.000000    
    188 O3    s    0.004820 *  0.935111 *  0.336424 *  -3.33043    1.000000    
    189 O2    s    0.071594 *  0.072925 *  0.666573 *  -2.87073    1.000000    
    190 O2    s    0.070713 *  0.000750 *  0.502135 *  -2.87073    1.000000    
    191 O2    s    0.998900 *  0.074292 *  0.833123 *  -2.87073    1.000000    
    192 O2    s    0.928331 *  0.924383 *  0.163341 *  -2.87073    1.000000    
    193 O2    s    0.346515 *  0.585014 *  0.333547 *  -2.87073    1.000000    
    194 O2    s    0.412344 *  0.765545 *  0.666008 *  -2.87073    1.000000    
    195 O2    s    0.231928 *  0.657560 *  0.999058 *  -2.87073    1.000000    
    196 O2    s    0.644190 *  0.409745 *  0.832939 *  -2.87073    1.000000    
    197 O2    s    0.599718 *  0.245800 *  0.167880 *  -2.87073    1.000000    
    198 O2    s    0.763090 *  0.354230 *  0.501631 *  -2.87073    1.000000    
    199 O2    s    0.587093 *  0.348273 *  0.000588 *  -2.87073    1.000000    
    200 O2    s    0.764584 *  0.414621 *  0.667371 *  -2.87073    1.000000    
    201 O2    s    0.641394 *  0.232847 *  0.335952 *  -2.87073    1.000000    
    202 O2    s    0.411049 *  0.650208 *  0.500185 *  -2.87073    1.000000    
    203 O2    s    0.239316 *  0.580701 *  0.164270 *  -2.87073    1.000000    
    204 O2    s    0.350583 *  0.764684 *  0.832189 *  -2.87073    1.000000    
    205 O3    s    0.116912 *  0.211257 *  0.968428 *  -3.33043    1.000000    
    206 O3    s    0.769764 *  0.906448 *  0.306627 *  -3.33043    1.000000    
    207 O2    s    0.094103 *  0.878015 *  0.637193 *  -2.87073    1.000000    
    208 O2    s    0.873979 *  0.784867 *  0.470747 *  -2.87073    1.000000    
    209 O2    s    0.213263 *  0.091170 *  0.802270 *  -2.87073    1.000000    
    210 O2    s    0.908667 *  0.121660 *  0.135088 *  -2.87073    1.000000    
    211 O2    s    0.216403 *  0.125806 *  0.366054 *  -2.87073    1.000000    
    212 O2    s    0.900059 *  0.782678 *  0.030221 *  -2.87073    1.000000    
    213 O2    s    0.874640 *  0.093936 *  0.695517 *  -2.87073    1.000000    
    214 O2    s    0.780183 *  0.875716 *  0.863279 *  -2.87073    1.000000    
    215 O2    s    0.092097 *  0.218174 *  0.531038 *  -2.87073    1.000000    
    216 O3    s    0.125889 *  0.913372 *  0.196256 *  -3.33043    1.000000    
    217 O3    s    0.932033 *  0.869306 *  0.246318 *  -3.33043    1.000000    
    218 O2    s    0.138362 *  0.071114 *  0.584203 *  -2.87073    1.000000    
    219 O2    s    0.925604 *  0.068416 *  0.915803 *  -2.87073    1.000000    
    220 O2    s    0.061883 *  0.131708 *  0.749215 *  -2.87073    1.000000    
    221 O2    s    0.851344 *  0.928132 *  0.082128 *  -2.87073    1.000000    
    222 O2    s    0.066067 *  0.934742 *  0.419492 *  -2.87073    1.000000    
    223 O2    s    0.912284 *  0.210651 *  0.980892 *  -2.87073    1.000000    
    224 O3    s    0.788507 *  0.692742 *  0.315501 *  -3.33043    1.000000    
    225 O2    s    0.294295 *  0.091942 *  0.649088 *  -2.87073    1.000000    
    226 O2    s    0.087287 *  0.796613 *  0.483645 *  -2.87073    1.000000    
    227 O2    s    0.204185 *  0.294066 *  0.810204 *  -2.87073    1.000000    
    228 O2    s    0.705913 *  0.911734 *  0.150707 *  -2.87073    1.000000    
    229 O2    s    0.200742 *  0.908973 *  0.356247 *  -2.87073    1.000000    
    230 O2    s    0.698768 *  0.792287 *  0.016682 *  -2.87073    1.000000    
    231 O2    s    0.089001 *  0.294162 *  0.684674 *  -2.87073    1.000000    
    232 O2    s    0.793761 *  0.089812 *  0.849877 *  -2.87073    1.000000    
    233 O2    s    0.293452 *  0.207084 *  0.519181 *  -2.87073    1.000000    
    234 O2    s    0.922802 *  0.707733 *  0.184819 *  -2.87073    1.000000    
    235 O2    s    0.321733 *  0.655055 *  0.249938 *  -2.87073    1.000000    
    236 O2    s    0.342468 *  0.672321 *  0.583381 *  -2.87073    1.000000    
    237 O2    s    0.324151 *  0.669730 *  0.915151 *  -2.87073    1.000000    
    238 O2    s    0.669639 *  0.343240 *  0.749835 *  -2.87073    1.000000    
    239 O2    s    0.657470 *  0.327707 *  0.084100 *  -2.87073    1.000000    
    240 O2    s    0.668719 *  0.327689 *  0.419005 *  -2.87073    1.000000    
    241 O3    s    0.381590 *  0.330711 *  0.970370 *  -3.33043    1.000000    
    242 O2    s    0.649469 *  0.036916 *  0.302076 *  -2.87073    1.000000    
    243 O2    s    0.962360 *  0.623344 *  0.635713 *  -2.87073    1.000000    
    244 O2    s    0.620421 *  0.662818 *  0.467983 *  -2.87073    1.000000    
    245 O2    s    0.339187 *  0.962221 *  0.800952 *  -2.87073    1.000000    
    246 O2    s    0.041526 *  0.375963 *  0.132770 *  -2.87073    1.000000    
    247 O2    s    0.338676 *  0.379269 *  0.366486 *  -2.87073    1.000000    
    248 O2    s    0.033117 *  0.661474 *  0.031550 *  -2.87073    1.000000    
    249 O2    s    0.620756 *  0.962480 *  0.697852 *  -2.87073    1.000000    
    250 O2    s    0.655158 *  0.618540 *  0.865226 *  -2.87073    1.000000    
    251 O2    s    0.960660 *  0.341301 *  0.532806 *  -2.87073    1.000000    
    252 O3    s    0.389101 *  0.056744 *  0.195653 *  -3.33043    1.000000    
    253 O2    s    0.776336 *  0.309970 *  0.014227 *  -2.87073    1.000000    
    254 O2    s    0.684710 *  0.464325 *  0.349379 *  -2.87073    1.000000    
    255 O2    s    0.531764 *  0.224045 *  0.680523 *  -2.87073    1.000000    
    256 O2    s    0.220571 *  0.690862 *  0.514489 *  -2.87073    1.000000    
    257 O2    s    0.305727 *  0.531432 *  0.845911 *  -2.87073    1.000000    
    258 O2    s    0.467880 *  0.779604 *  0.182215 *  -2.87073    1.000000    
    259 O2    s    0.298684 *  0.772019 *  0.319404 *  -2.87073    1.000000    
    260 O2    s    0.462282 *  0.687512 *  0.984484 *  -2.87073    1.000000    
    261 O2    s    0.221958 *  0.532996 *  0.653018 *  -2.87073    1.000000    
    262 O2    s    0.686293 *  0.220161 *  0.818752 *  -2.87073    1.000000    
    263 O2    s    0.531704 *  0.313991 *  0.487956 *  -2.87073    1.000000    
    264 O2    s    0.786380 *  0.471229 *  0.153046 *  -2.87073    1.000000    
    265 O2    s    0.785586 *  0.531184 *  0.032338 *  -2.87073    1.000000    
    266 O2    s    0.464975 *  0.257204 *  0.366971 *  -2.87073    1.000000    
    267 O2    s    0.739598 *  0.210224 *  0.696962 *  -2.87073    1.000000    
    268 O2    s    0.208273 *  0.469313 *  0.531359 *  -2.87073    1.000000    
    269 O2    s    0.525746 *  0.731958 *  0.865010 *  -2.87073    1.000000    
    270 O3    s    0.250718 *  0.772528 *  0.192969 *  -3.33043    1.000000    
    271 O2    s    0.518760 *  0.793195 *  0.301536 *  -2.87073    1.000000    
    272 O3    s    0.244880 *  0.477614 *  0.971823 *  -3.33043    1.000000    
    273 O2    s    0.209725 *  0.742482 *  0.636117 *  -2.87073    1.000000    
    274 O2    s    0.464960 *  0.209178 *  0.801967 *  -2.87073    1.000000    
    275 O2    s    0.740304 *  0.534206 *  0.469466 *  -2.87073    1.000000    
    276 O2    s    0.794800 *  0.257612 *  0.135114 *  -2.87073    1.000000    
    277 O3    s    0.224817 *  0.321177 *  0.890668 *  -3.33043    1.000000    
    278 O2    s    0.661719 *  0.910308 *  0.234319 *  -2.87073    1.000000    
    279 O2    s    0.090337 *  0.760175 *  0.566310 *  -2.87073    1.000000    
    280 O2    s    0.757511 *  0.670552 *  0.398876 *  -2.87073    1.000000    
    281 O2    s    0.330670 *  0.091137 *  0.731712 *  -2.87073    1.000000    
    282 O2    s    0.911663 *  0.242184 *  0.063996 *  -2.87073    1.000000    
    283 O2    s    0.330666 *  0.244166 *  0.436699 *  -2.87073    1.000000    
    284 O2    s    0.912159 *  0.670349 *  0.101538 *  -2.87073    1.000000    
    285 O2    s    0.757898 *  0.091432 *  0.766817 *  -2.87073    1.000000    
    286 O2    s    0.659396 *  0.748859 *  0.933605 *  -2.87073    1.000000    
    287 O2    s    0.089876 *  0.332899 *  0.601871 *  -2.87073    1.000000    
    288 O3    s    0.222664 *  0.904399 *  0.274933 *  -3.33043    1.000000    
    289 O2    s    0.574602 *  0.553710 *  0.986714 *  -2.87073    1.000000    
    290 O2    s    0.432448 *  0.021727 *  0.320782 *  -2.87073    1.000000    
    291 O2    s    0.974766 *  0.416781 *  0.654689 *  -2.87073    1.000000    
    292 O2    s    0.415234 *  0.444361 *  0.488187 *  -2.87073    1.000000    
    293 O2    s    0.558342 *  0.972452 *  0.819191 *  -2.87073    1.000000    
    294 O2    s    0.030833 *  0.582484 *  0.152771 *  -2.87073    1.000000    
    295 O2    s    0.556045 *  0.585990 *  0.346916 *  -2.87073    1.000000    
    296 O2    s    0.022089 *  0.445729 *  0.011795 *  -2.87073    1.000000    
    297 O2    s    0.415815 *  0.976611 *  0.678975 *  -2.87073    1.000000    
    298 O2    s    0.437737 *  0.415945 *  0.845959 *  -2.87073    1.000000    
    299 O2    s    0.973405 *  0.560394 *  0.514068 *  -2.87073    1.000000    
    300 O2    s    0.582517 *  0.026089 *  0.181950 *  -2.87073    1.000000    
    301 O2    s    0.571861 *  0.157621 *  0.251971 *  -2.87073    1.000000    
    302 O2    s    0.843273 *  0.423004 *  0.584521 *  -2.87073    1.000000    
    303 O2    s    0.572255 *  0.418779 *  0.916172 *  -2.87073    1.000000    
    304 O2    s    0.420279 *  0.843938 *  0.749020 *  -2.87073    1.000000    
    305 O2    s    0.156271 *  0.578819 *  0.081593 *  -2.87073    1.000000    
    306 O2    s    0.419464 *  0.580180 *  0.417059 *  -2.87073    1.000000    
    307 F     s    0.402838 *  0.907098 *  0.244496 *  -1.56000    1.000000    
    308 F     s    0.095005 *  0.548715 *  0.584185 *  -1.56000    1.000000    
    309 F     s    0.403642 *  0.499652 *  0.922213 *  -1.56000    1.000000    
    310 F     s    0.545945 *  0.095801 *  0.750001 *  -1.56000    1.000000    
    311 F     s    0.900898 *  0.449500 *  0.084073 *  -1.56000    1.000000    
    312 F     s    0.546294 *  0.455272 *  0.417386 *  -1.56000    1.000000    
--------------------------------------------------------------------------------



********************************************************************************
*  General input information                                                   *
********************************************************************************

  Species output for all configurations : 

--------------------------------------------------------------------------------
  Species    Type    Atomic    Atomic    Charge       Radii (Angs)     Library
                     Number     Mass       (e)     Cova   Ionic  VDW   Symbol
--------------------------------------------------------------------------------
    Si       Core       14      28.09   4.000000   1.200  0.000  2.100          
    O1       Core        8      16.00   1.733957   0.730  0.000  1.360          
    O1       Shell       8       0.00  -3.733957   0.730  0.000  1.360          
    O2       Core        8      16.00   0.870733   0.730  0.000  1.360          
    O2       Shell       8       0.00  -2.870733   0.730  0.000  1.360          
    O3       Core        8      16.00   1.330431   0.730  0.000  1.360          
    O3       Shell       8       0.00  -3.330431   0.730  0.000  1.360          
    F        Core        9      19.00   0.560000   0.710  0.000  1.300          
    F        Shell       9       0.00  -1.560000   0.710  0.000  1.300          
    Ge       Core       32      72.61   4.000000   1.170  0.000  1.750          
--------------------------------------------------------------------------------


  Lattice summation method               =    Ewald          (3-D)
                                         =    Parry          (2-D)
                                         =    Saunders et al (1-D)
  Accuracy factor for lattice sums       =   12.000


  Time limit = Infinity

  Maximum range for interatomic potentials =        16.000000 Angstroms

  Taper potentials to zero over   1.0000 Angstroms using polynomial

  General interatomic potentials :

--------------------------------------------------------------------------------
Atom  Types   Potential         A         B         C         D     Cutoffs(Ang)
  1     2                                                            Min    Max 
--------------------------------------------------------------------------------
Si   c O1   s Buckingham    0.132E+04 0.318      10.1      0.00     0.000 16.000
Si   c O2   s Buckingham    0.132E+04 0.318      10.1      0.00     0.000 16.000
Si   c O3   s Buckingham    0.132E+04 0.318      10.1      0.00     0.000 16.000
Ge   c O1   s Buckingham    0.150E+04 0.326      16.8      0.00     0.000 16.000
Ge   c O2   s Buckingham    0.150E+04 0.326      16.8      0.00     0.000 16.000
Ge   c O3   s Buckingham    0.150E+04 0.326      16.8      0.00     0.000 16.000
O1   s O1   s Buckingham    0.228E+05 0.149      10.9      0.00     0.000 16.000
O1   s O2   s Buckingham    0.228E+05 0.149      10.9      0.00     0.000 16.000
O1   s O3   s Buckingham    0.228E+05 0.149      10.9      0.00     0.000 16.000
O2   s O2   s Buckingham    0.228E+05 0.149      10.9      0.00     0.000 16.000
O2   s O3   s Buckingham    0.228E+05 0.149      10.9      0.00     0.000 16.000
O3   s O3   s Buckingham    0.228E+05 0.149      10.9      0.00     0.000 16.000
Si   c F    s Buckingham     977.     0.282      0.00      0.00     0.000 16.000
Ge   c F    s Buckingham     681.     0.320      0.00      0.00     0.000 16.000
F    s F    s Buckingham     540.     0.262      0.00      0.00     0.000 16.000
O1   s F    s Buckingham    0.168E+04 0.268      0.00      0.00     0.000 16.000
O2   s F    s Buckingham    0.168E+04 0.268      0.00      0.00     0.000 16.000
O3   s F    s Buckingham    0.168E+04 0.268      0.00      0.00     0.000 16.000
O2   c O2   s Spring (c-s)   76.0      0.00      0.00      0.00     0.000  0.800
O3   c O3   s Spring (c-s)   128.      0.00      0.00      0.00     0.000  0.800
O1   c O1   s Spring (c-s)   180.      0.00      0.00      0.00     0.000  0.800
F    c F    s Spring (c-s)   33.5      0.00      0.00      0.00     0.000  0.800
--------------------------------------------------------------------------------

  General Three-body potentials :

  Harmonic form:

--------------------------------------------------------------------------------
Atom    Atom    Atom           Force Constants            Theta     Cutoffs  
  1       2       3     (eVrad**-2/eVrad**-3/eVrad**-4)   (deg)  1-2  1-3  2-3
--------------------------------------------------------------------------------
Si    c O1    s O1    s  1.261        0.0000    0.0000   109.470 0.00 0.00 0.00
                                                                 1.90 1.90 3.50
Si    c O1    s O2    s  1.261        0.0000    0.0000   109.470 0.00 0.00 0.00
                                                                 1.90 1.90 3.50
Si    c O2    s O2    s  1.261        0.0000    0.0000   109.470 0.00 0.00 0.00
                                                                 1.90 1.90 3.50
--------------------------------------------------------------------------------

********************************************************************************
*  Output for configuration   1                                                *
********************************************************************************


  Components of energy : 

--------------------------------------------------------------------------------
  Interatomic potentials     =        2062.60739417 eV
  Three-body potentials      =           0.46698861 eV
  Monopole - monopole (real) =       -6612.12131249 eV
  Monopole - monopole (recip)=       -3170.66329232 eV
  Monopole - monopole (total)=       -9782.78460481 eV
  Neutralising energy        =          -6.45863931 eV
--------------------------------------------------------------------------------
  Total lattice energy       =       -7726.16886134 eV
--------------------------------------------------------------------------------
  Total lattice energy       =         -745457.1898 kJ/(mole unit cells)
--------------------------------------------------------------------------------


  Number of variables =      939

  Maximum number of calculations  =          1000
  Maximum Hessian update interval =            10
  Maximum step size               =   1.000000000
  Maximum parameter tolerance     =   0.000010000
  Maximum function  tolerance     =   0.000010000
  Maximum gradient  tolerance     =   0.001000000
  Maximum gradient  component     =   0.010000000

  Symmetry not applied to optimisation

  Cell parameters to be optimised using strains

  Newton-Raphson optimiser to be used

  BFGS hessian update to be used

  Dumpfile to be written after every cycle

  Start of bulk optimisation :

  Cycle:      0 Energy:     -7726.168861  Gnorm:      0.000684  CPU:    1.143
  ** Hessian calculated **
  Cycle:      1 Energy:     -7726.250082  Gnorm:      0.003704  CPU:    3.414
  Cycle:      2 Energy:     -7726.254684  Gnorm:      0.001069  CPU:    5.146
  Cycle:      3 Energy:     -7726.254744  Gnorm:      0.000130  CPU:    6.542


  **** Optimisation achieved ****


  Final energy =   -7726.25474497 eV
  Final Gnorm  =       0.00002669

  Components of energy : 

--------------------------------------------------------------------------------
  Interatomic potentials     =        2062.45835347 eV
  Three-body potentials      =           0.46602196 eV
  Monopole - monopole (real) =       -6613.70414143 eV
  Monopole - monopole (recip)=       -3169.01968891 eV
  Monopole - monopole (total)=       -9782.72383035 eV
  Neutralising energy        =          -6.45529005 eV
--------------------------------------------------------------------------------
  Total lattice energy       =       -7726.25474497 eV
--------------------------------------------------------------------------------
  Total lattice energy       =         -745465.4763 kJ/(mole unit cells)
--------------------------------------------------------------------------------

  Final fractional coordinates of atoms :

--------------------------------------------------------------------------------
   No.  Atomic        x           y          z          Radius
        Label       (Frac)      (Frac)     (Frac)       (Angs) 
--------------------------------------------------------------------------------
     1  Si    c     0.699600    0.375700    0.033890    0.000000
     2  Si    c     0.592973    0.312521    0.369503    0.000000
     3  Si    c     0.648526    0.280142    0.699835    0.000000
     4  Si    c     0.270011    0.608629    0.534023    0.000000
     5  Si    c     0.352807    0.656529    0.865891    0.000000
     6  Si    c     0.303509    0.690279    0.198708    0.000000
     7  Si    c     0.347120    0.691008    0.301900    0.000000
     8  Si    c     0.301893    0.608801    0.968635    0.000000
     9  Si    c     0.269997    0.660220    0.634478    0.000000
    10  Si    c     0.593801    0.277010    0.800140    0.000000
    11  Si    c     0.649062    0.368535    0.469410    0.000000
    12  Si    c     0.700819    0.322532    0.133788    0.000000
    13  Si    c     0.513804    0.395215    0.969215    0.000000
    14  Si    c     0.554165    0.107657    0.302776    0.000000
    15  Si    c     0.859755    0.454209    0.635507    0.000000
    16  Si    c     0.442772    0.573590    0.468907    0.000000
    17  Si    c     0.392505    0.868857    0.800431    0.000000
    18  Si    c     0.104481    0.520346    0.133687    0.000000
    19  Si    c     0.390803    0.521838    0.367777    0.000000
    20  Si    c     0.102447    0.581433    0.033218    0.000000
    21  Si    c     0.442363    0.869031    0.699140    0.000000
    22  Si    c     0.559105    0.448611    0.865512    0.000000
    23  Si    c     0.859228    0.404501    0.534193    0.000000
    24  Si    c     0.516107    0.116800    0.199008    0.000000
    25  Si    c     0.273799    0.375233    0.849014    0.000000
    26  Si    c     0.587157    0.900471    0.186743    0.000000
    27  Si    c     0.068238    0.685626    0.519874    0.000000
    28  Si    c     0.670279    0.591184    0.352956    0.000000
    29  Si    c     0.370793    0.079106    0.685236    0.000000
    30  Si    c     0.899624    0.298975    0.017052    0.000000
    31  Si    c     0.371142    0.292495    0.484457    0.000000
    32  Si    c     0.901227    0.598957    0.150046    0.000000
    33  Si    c     0.672920    0.076410    0.814758    0.000000
    34  Si    c     0.583318    0.680268    0.982566    0.000000
    35  Si    c     0.068398    0.381664    0.649557    0.000000
    36  Si    c     0.268602    0.893717    0.318254    0.000000
    37  Ge    c     0.248949    0.340870    0.948901    0.000000
    38  Si    c     0.634764    0.905390    0.289158    0.000000
    39  Si    c     0.061425    0.733242    0.620222    0.000000
    40  Si    c     0.721152    0.650610    0.453077    0.000000
    41  Si    c     0.312900    0.069191    0.785647    0.000000
    42  Si    c     0.903360    0.243342    0.117590    0.000000
    43  Si    c     0.313884    0.243212    0.384251    0.000000
    44  Si    c     0.902189    0.658154    0.049605    0.000000
    45  Si    c     0.720909    0.070391    0.714195    0.000000
    46  Si    c     0.639727    0.730523    0.880595    0.000000
    47  Si    c     0.060720    0.327091    0.549135    0.000000
    48  Ge    c     0.250727    0.905226    0.218155    0.000000
    49  Si    c     0.962159    0.115309    0.966223    0.000000
    50  Ge    c     0.855913    0.840350    0.300204    0.000000
    51  Si    c     0.123150    0.012899    0.634966    0.000000
    52  Si    c     0.000000    0.867510    0.469731    0.000000
    53  Si    c     0.095495    0.131212    0.799590    0.000000
    54  Si    c     0.832957    0.960907    0.133810    0.000000
    55  Si    c     0.097052    0.964205    0.369766    0.000000
    56  Si    c     0.830597    0.869834    0.032626    0.000000
    57  Si    c     0.999699    0.131387    0.699614    0.000000
    58  Si    c     0.856354    0.014080    0.866849    0.000000
    59  Si    c     0.122759    0.109472    0.534513    0.000000
    60  Si    c     0.967165    0.847999    0.198725    0.000000
    61  O2    c     0.906160    0.991044    0.999816    0.000000
    62  O3    c     0.981631    0.927935    0.336051    0.000000
    63  O2    c     0.042375    0.053155    0.667156    0.000000
    64  O2    c     0.042048    0.987817    0.502538    0.000000
    65  O2    c     0.977152    0.056248    0.833922    0.000000
    66  O2    c     0.912989    0.914390    0.163555    0.000000
    67  O2    c     0.312942    0.569177    0.334895    0.000000
    68  O2    c     0.393348    0.744161    0.666898    0.000000
    69  O2    c     0.227655    0.661247    0.000553    0.000000
    70  O2    c     0.633953    0.399706    0.832836    0.000000
    71  O2    c     0.579922    0.244486    0.167629    0.000000
    72  O2    c     0.733360    0.329389    0.502146    0.000000
    73  O2    c     0.577796    0.331239    0.000411    0.000000
    74  O2    c     0.733905    0.404838    0.667600    0.000000
    75  O2    c     0.630472    0.228781    0.336439    0.000000
    76  O2    c     0.393016    0.648921    0.501201    0.000000
    77  O2    c     0.230122    0.565088    0.166008    0.000000
    78  O2    c     0.316883    0.743008    0.833188    0.000000
    79  O3    c     0.111611    0.195559    0.970061    0.000000
    80  O3    c     0.754612    0.903208    0.310700    0.000000
    81  O2    c     0.060787    0.858546    0.640446    0.000000
    82  O2    c     0.845656    0.775959    0.474073    0.000000
    83  O2    c     0.185297    0.066159    0.805403    0.000000
    84  O2    c     0.900991    0.115836    0.138130    0.000000
    85  O2    c     0.188258    0.118723    0.364384    0.000000
    86  O2    c     0.899788    0.783767    0.029545    0.000000
    87  O2    c     0.845981    0.069870    0.693597    0.000000
    88  O2    c     0.764287    0.858513    0.861132    0.000000
    89  O2    c     0.059716    0.200792    0.529031    0.000000
    90  O3    c     0.116595    0.915362    0.195425    0.000000
    91  O3    c     0.910096    0.861310    0.246471    0.000000
    92  O2    c     0.110012    0.054681    0.584753    0.000000
    93  O2    c     0.906019    0.053578    0.917125    0.000000
    94  O2    c     0.036001    0.112197    0.749948    0.000000
    95  O2    c     0.831195    0.918587    0.082682    0.000000
    96  O2    c     0.039623    0.923560    0.419725    0.000000
    97  O2    c     0.899990    0.205988    0.977851    0.000000
    98  O3    c     0.766362    0.678340    0.313358    0.000000
    99  O2    c     0.274570    0.082361    0.647039    0.000000
   100  O2    c     0.069212    0.784625    0.481628    0.000000
   101  O2    c     0.183672    0.284771    0.807696    0.000000
   102  O2    c     0.683953    0.897995    0.149548    0.000000
   103  O2    c     0.179990    0.893865    0.359988    0.000000
   104  O2    c     0.680041    0.779724    0.019588    0.000000
   105  O2    c     0.070008    0.283951    0.687920    0.000000
   106  O2    c     0.771334    0.079821    0.853217    0.000000
   107  O2    c     0.274469    0.192870    0.522676    0.000000
   108  O2    c     0.903330    0.693488    0.189248    0.000000
   109  O2    c     0.298321    0.639248    0.251014    0.000000
   110  O2    c     0.327242    0.662975    0.584234    0.000000
   111  O2    c     0.300699    0.656802    0.916421    0.000000
   112  O2    c     0.649866    0.336086    0.750020    0.000000
   113  O2    c     0.640215    0.319419    0.083994    0.000000
   114  O2    c     0.648998    0.310503    0.419690    0.000000
   115  O3    c     0.362302    0.304358    0.974031    0.000000
   116  O2    c     0.638436    0.036136    0.304775    0.000000
   117  O2    c     0.928945    0.610559    0.638597    0.000000
   118  O2    c     0.598921    0.660898    0.471244    0.000000
   119  O2    c     0.304808    0.937062    0.804217    0.000000
   120  O2    c     0.036043    0.363971    0.136093    0.000000
   121  O2    c     0.304282    0.365752    0.365012    0.000000
   122  O2    c     0.034612    0.669874    0.030847    0.000000
   123  O2    c     0.598457    0.937902    0.696319    0.000000
   124  O2    c     0.644572    0.605477    0.862836    0.000000
   125  O2    c     0.928195    0.317203    0.530904    0.000000
   126  O3    c     0.365037    0.054750    0.192906    0.000000
   127  O2    c     0.766034    0.300404    0.011153    0.000000
   128  O2    c     0.667575    0.455463    0.347067    0.000000
   129  O2    c     0.505228    0.213027    0.677769    0.000000
   130  O2    c     0.201506    0.684583    0.512093    0.000000
   131  O2    c     0.278761    0.513685    0.843992    0.000000
   132  O2    c     0.452107    0.767293    0.180923    0.000000
   133  O2    c     0.271332    0.758875    0.323089    0.000000
   134  O2    c     0.449287    0.680349    0.987527    0.000000
   135  O2    c     0.202030    0.516099    0.656823    0.000000
   136  O2    c     0.668947    0.208328    0.822323    0.000000
   137  O2    c     0.506029    0.294204    0.491888    0.000000
   138  O2    c     0.767604    0.464168    0.156710    0.000000
   139  O2    c     0.776656    0.532633    0.029726    0.000000
   140  O2    c     0.437412    0.238851    0.365055    0.000000
   141  O2    c     0.721388    0.197167    0.694688    0.000000
   142  O2    c     0.187319    0.452501    0.529374    0.000000
   143  O2    c     0.507884    0.721275    0.863483    0.000000
   144  O3    c     0.224422    0.763557    0.190519    0.000000
   145  O2    c     0.501015    0.783016    0.305209    0.000000
   146  O3    c     0.222082    0.455937    0.976459    0.000000
   147  O2    c     0.188033    0.734184    0.639557    0.000000
   148  O2    c     0.437752    0.195925    0.805109    0.000000
   149  O2    c     0.722820    0.524866    0.472708    0.000000
   150  O2    c     0.777781    0.242780    0.137625    0.000000
   151  O3    c     0.196340    0.293631    0.892197    0.000000
   152  O2    c     0.651759    0.903236    0.235045    0.000000
   153  O2    c     0.063771    0.754665    0.566105    0.000000
   154  O2    c     0.741758    0.669428    0.398750    0.000000
   155  O2    c     0.295908    0.072615    0.731487    0.000000
   156  O2    c     0.904162    0.227490    0.063463    0.000000
   157  O2    c     0.296258    0.223607    0.438415    0.000000
   158  O2    c     0.903980    0.674751    0.103770    0.000000
   159  O2    c     0.742171    0.073079    0.768284    0.000000
   160  O2    c     0.651491    0.740608    0.934555    0.000000
   161  O2    c     0.063222    0.308047    0.603265    0.000000
   162  O3    c     0.192371    0.897313    0.274579    0.000000
   163  O2    c     0.563777    0.538554    0.990274    0.000000
   164  O2    c     0.411744    0.018377    0.323918    0.000000
   165  O2    c     0.943309    0.395851    0.658581    0.000000
   166  O2    c     0.385918    0.432423    0.492679    0.000000
   167  O2    c     0.534211    0.948983    0.823339    0.000000
   168  O2    c     0.022471    0.577424    0.157705    0.000000
   169  O2    c     0.532011    0.581467    0.344521    0.000000
   170  O2    c     0.020423    0.442191    0.009321    0.000000
   171  O2    c     0.385409    0.954144    0.676243    0.000000
   172  O2    c     0.417799    0.395788    0.843525    0.000000
   173  O2    c     0.942760    0.546483    0.511119    0.000000
   174  O2    c     0.569875    0.024393    0.179966    0.000000
   175  O2    c     0.557244    0.160644    0.251861    0.000000
   176  O2    c     0.806318    0.402558    0.584914    0.000000
   177  O2    c     0.560331    0.399265    0.916622    0.000000
   178  O2    c     0.389660    0.814843    0.749927    0.000000
   179  O2    c     0.157524    0.578049    0.083323    0.000000
   180  O2    c     0.389354    0.574487    0.418204    0.000000
   181  F     c     0.393578    0.901511    0.246581    0.000000
   182  F     c     0.067615    0.533303    0.584674    0.000000
   183  F     c     0.395144    0.490588    0.921626    0.000000
   184  F     c     0.519849    0.076045    0.750437    0.000000
   185  F     c     0.896283    0.447672    0.083758    0.000000
   186  F     c     0.520240    0.444151    0.418312    0.000000
   187  O2    s     0.903286    0.990089    0.000071    0.000000
   188  O3    s     0.983214    0.924224    0.336586    0.000000
   189  O2    s     0.046677    0.057429    0.667181    0.000000
   190  O2    s     0.046403    0.988015    0.502462    0.000000
   191  O2    s     0.976890    0.059894    0.833751    0.000000
   192  O2    s     0.909332    0.912834    0.163766    0.000000
   193  O2    s     0.324452    0.577123    0.334778    0.000000
   194  O2    s     0.385752    0.748429    0.666888    0.000000
   195  O2    s     0.222649    0.648045    0.000588    0.000000
   196  O2    s     0.622045    0.392253    0.832878    0.000000
   197  O2    s     0.585750    0.238854    0.167459    0.000000
   198  O2    s     0.737633    0.341184    0.502058    0.000000
   199  O2    s     0.583638    0.342820    0.000557    0.000000
   200  O2    s     0.738044    0.397039    0.667634    0.000000
   201  O2    s     0.618685    0.224808    0.336362    0.000000
   202  O2    s     0.385524    0.637069    0.501261    0.000000
   203  O2    s     0.225015    0.573152    0.166084    0.000000
   204  O2    s     0.328457    0.746798    0.833290    0.000000
   205  O3    s     0.103718    0.196005    0.968272    0.000000
   206  O3    s     0.749672    0.898653    0.307634    0.000000
   207  O2    s     0.067504    0.861982    0.637789    0.000000
   208  O2    s     0.849141    0.772703    0.471467    0.000000
   209  O2    s     0.189142    0.073282    0.802769    0.000000
   210  O2    s     0.893994    0.112627    0.135561    0.000000
   211  O2    s     0.192077    0.115705    0.367063    0.000000
   212  O2    s     0.892681    0.779842    0.031935    0.000000
   213  O2    s     0.849298    0.076442    0.696341    0.000000
   214  O2    s     0.760307    0.860574    0.863757    0.000000
   215  O2    s     0.066535    0.204167    0.531670    0.000000
   216  O3    s     0.108530    0.907057    0.197277    0.000000
   217  O3    s     0.910647    0.858079    0.246808    0.000000
   218  O2    s     0.112964    0.056158    0.584755    0.000000
   219  O2    s     0.906102    0.055404    0.916387    0.000000
   220  O2    s     0.038587    0.116515    0.749828    0.000000
   221  O2    s     0.831336    0.917844    0.082790    0.000000
   222  O2    s     0.041531    0.921673    0.419870    0.000000
   223  O2    s     0.906126    0.206695    0.980794    0.000000
   224  O3    s     0.764282    0.683068    0.316163    0.000000
   225  O2    s     0.268361    0.074648    0.649676    0.000000
   226  O2    s     0.061757    0.783249    0.484300    0.000000
   227  O2    s     0.183361    0.277650    0.810883    0.000000
   228  O2    s     0.689110    0.904810    0.151882    0.000000
   229  O2    s     0.180233    0.901126    0.356858    0.000000
   230  O2    s     0.685340    0.778417    0.016972    0.000000
   231  O2    s     0.062406    0.277786    0.685244    0.000000
   232  O2    s     0.770111    0.072471    0.850656    0.000000
   233  O2    s     0.268326    0.194259    0.520012    0.000000
   234  O2    s     0.909379    0.698892    0.186140    0.000000
   235  O2    s     0.303850    0.649568    0.251219    0.000000
   236  O2    s     0.315579    0.657155    0.584239    0.000000
   237  O2    s     0.306242    0.652021    0.916248    0.000000
   238  O2    s     0.643975    0.324307    0.750027    0.000000
   239  O2    s     0.652465    0.325484    0.083968    0.000000
   240  O2    s     0.643287    0.316595    0.419617    0.000000
   241  O3    s     0.369898    0.316319    0.971733    0.000000
   242  O2    s     0.629191    0.029749    0.302900    0.000000
   243  O2    s     0.935697    0.607283    0.636342    0.000000
   244  O2    s     0.595526    0.650816    0.469096    0.000000
   245  O2    s     0.314756    0.943813    0.801873    0.000000
   246  O2    s     0.029185    0.367495    0.133887    0.000000
   247  O2    s     0.314333    0.369230    0.367327    0.000000
   248  O2    s     0.027738    0.659491    0.033072    0.000000
   249  O2    s     0.595179    0.944669    0.698494    0.000000
   250  O2    s     0.635393    0.602711    0.864973    0.000000
   251  O2    s     0.934942    0.327232    0.533157    0.000000
   252  O3    s     0.372611    0.050562    0.195356    0.000000
   253  O2    s     0.773297    0.308125    0.014195    0.000000
   254  O2    s     0.659908    0.454642    0.350128    0.000000
   255  O2    s     0.505853    0.205852    0.680862    0.000000
   256  O2    s     0.194530    0.676874    0.515201    0.000000
   257  O2    s     0.285967    0.514521    0.846817    0.000000
   258  O2    s     0.451306    0.773595    0.183381    0.000000
   259  O2    s     0.278934    0.765357    0.320356    0.000000
   260  O2    s     0.448657    0.673049    0.985046    0.000000
   261  O2    s     0.194970    0.516791    0.653727    0.000000
   262  O2    s     0.661539    0.201499    0.819181    0.000000
   263  O2    s     0.506560    0.301688    0.488762    0.000000
   264  O2    s     0.774871    0.463769    0.153580    0.000000
   265  O2    s     0.782186    0.529867    0.032261    0.000000
   266  O2    s     0.440449    0.247190    0.367580    0.000000
   267  O2    s     0.713619    0.191994    0.697312    0.000000
   268  O2    s     0.182181    0.455257    0.531967    0.000000
   269  O2    s     0.505956    0.715387    0.865591    0.000000
   270  O3    s     0.234559    0.766702    0.193361    0.000000
   271  O2    s     0.499011    0.786504    0.303117    0.000000
   272  O3    s     0.232288    0.462883    0.973666    0.000000
   273  O2    s     0.182795    0.726262    0.636962    0.000000
   274  O2    s     0.440542    0.190652    0.802536    0.000000
   275  O2    s     0.714799    0.522027    0.470260    0.000000
   276  O2    s     0.783342    0.251175    0.135090    0.000000
   277  O3    s     0.207992    0.305361    0.891663    0.000000
   278  O2    s     0.643192    0.903141    0.235627    0.000000
   279  O2    s     0.063988    0.745145    0.566998    0.000000
   280  O2    s     0.732438    0.659650    0.399754    0.000000
   281  O2    s     0.305586    0.072931    0.732366    0.000000
   282  O2    s     0.903625    0.236579    0.064434    0.000000
   283  O2    s     0.306057    0.232996    0.437538    0.000000
   284  O2    s     0.903522    0.665165    0.102786    0.000000
   285  O2    s     0.732651    0.073150    0.767432    0.000000
   286  O2    s     0.642942    0.733063    0.933704    0.000000
   287  O2    s     0.063497    0.317783    0.602385    0.000000
   288  O3    s     0.203958    0.897403    0.275255    0.000000
   289  O2    s     0.560757    0.539902    0.987312    0.000000
   290  O2    s     0.411978    0.014758    0.321054    0.000000
   291  O2    s     0.948209    0.400586    0.655202    0.000000
   292  O2    s     0.390426    0.432051    0.489312    0.000000
   293  O2    s     0.534283    0.954361    0.820042    0.000000
   294  O2    s     0.017801    0.573464    0.154331    0.000000
   295  O2    s     0.531892    0.576216    0.347825    0.000000
   296  O2    s     0.015799    0.441439    0.012691    0.000000
   297  O2    s     0.389961    0.958874    0.679609    0.000000
   298  O2    s     0.417797    0.399382    0.846440    0.000000
   299  O2    s     0.947699    0.546598    0.514485    0.000000
   300  O2    s     0.566239    0.019794    0.182625    0.000000
   301  O2    s     0.552890    0.150797    0.252108    0.000000
   302  O2    s     0.817368    0.408118    0.584889    0.000000
   303  O2    s     0.555629    0.404095    0.916327    0.000000
   304  O2    s     0.395393    0.826039    0.749923    0.000000
   305  O2    s     0.146343    0.572418    0.083373    0.000000
   306  O2    s     0.394995    0.568970    0.418208    0.000000
   307  F     s     0.384837    0.901542    0.245007    0.000000
   308  F     s     0.067936    0.533467    0.584680    0.000000
   309  F     s     0.386731    0.482192    0.923069    0.000000
   310  F     s     0.519920    0.076316    0.750490    0.000000
   311  F     s     0.895602    0.447369    0.083778    0.000000
   312  F     s     0.520347    0.444074    0.418255    0.000000
--------------------------------------------------------------------------------

  Final Cartesian lattice vectors (Angstroms) :

       11.977751    0.003526   -0.011676
       -5.971314   10.350273    0.023244
       -0.096299    0.252628   29.557340


  Final cell parameters and derivatives :

--------------------------------------------------------------------------------
       a           11.977758 Angstrom     dE/de1(xx)     0.000704 eV/strain
       b           11.949279 Angstrom     dE/de2(yy)     0.000261 eV/strain
       c           29.558576 Angstrom     dE/de3(zz)    -0.000695 eV/strain
       alpha       89.371099 Degrees      dE/de4(yz)     0.000382 eV/strain
       beta        90.242370 Degrees      dE/de5(xz)    -0.000163 eV/strain
       gamma      119.964832 Degrees      dE/de6(xy)    -0.000235 eV/strain
--------------------------------------------------------------------------------

  Primitive cell volume =          3664.869815 Angs**3

  Density of cell =      1.745790 g/cm**3

  Non-primitive cell volume =          3664.869815 Angs**3


  Final internal derivatives :

--------------------------------------------------------------------------------
   No.  Atomic          a             b             c           Radius
        Label          (eV)          (eV)          (eV)        (eV/Angs)
--------------------------------------------------------------------------------
      1 Si    c       0.000000      0.000000      0.000000      0.000000
      2 Si    c       0.000196     -0.000394     -0.000178      0.000000
      3 Si    c       0.000123      0.000209     -0.000180      0.000000
      4 Si    c      -0.000178      0.000135      0.000221      0.000000
      5 Si    c      -0.000241      0.000458     -0.000405      0.000000
      6 Si    c      -0.000321     -0.000651     -0.001279      0.000000
      7 Si    c       0.000284     -0.000731      0.000383      0.000000
      8 Si    c      -0.000146     -0.000477     -0.001171      0.000000
      9 Si    c       0.000102      0.000072     -0.000094      0.000000
     10 Si    c      -0.000167      0.000699      0.001338      0.000000
     11 Si    c      -0.000077     -0.000014     -0.000300      0.000000
     12 Si    c       0.000034      0.000207     -0.005018      0.000000
     13 Si    c      -0.002281      0.002811     -0.007296      0.000000
     14 Si    c       0.000079      0.000464     -0.000131      0.000000
     15 Si    c      -0.000061     -0.000050      0.000210      0.000000
     16 Si    c      -0.000005      0.000042     -0.000045      0.000000
     17 Si    c      -0.000053     -0.000280      0.000537      0.000000
     18 Si    c       0.001148     -0.000341      0.001882      0.000000
     19 Si    c      -0.000440      0.000351     -0.000650      0.000000
     20 Si    c      -0.001242      0.001123      0.000632      0.000000
     21 Si    c       0.000053     -0.000098      0.000532      0.000000
     22 Si    c       0.001363     -0.000839      0.001008      0.000000
     23 Si    c       0.000081     -0.000127     -0.000196      0.000000
     24 Si    c      -0.000061      0.000727     -0.000296      0.000000
     25 Si    c      -0.000470     -0.000279      0.003264      0.000000
     26 Si    c       0.000338     -0.000230      0.000542      0.000000
     27 Si    c       0.000073      0.000063     -0.000253      0.000000
     28 Si    c       0.000109      0.000191     -0.000230      0.000000
     29 Si    c      -0.000165      0.000037     -0.000067      0.000000
     30 Si    c      -0.000190     -0.000602      0.000080      0.000000
     31 Si    c       0.000052     -0.000113     -0.000058      0.000000
     32 Si    c      -0.000725      0.000263      0.001352      0.000000
     33 Si    c       0.000150     -0.000015     -0.000023      0.000000
     34 Si    c       0.001168     -0.000639     -0.001264      0.000000
     35 Si    c       0.000031     -0.000161      0.000137      0.000000
     36 Si    c      -0.000366      0.000161     -0.000923      0.000000
     37 Ge    c      -0.000604     -0.001337     -0.002642      0.000000
     38 Si    c       0.000488     -0.000262     -0.000932      0.000000
     39 Si    c       0.000013      0.000060     -0.000003      0.000000
     40 Si    c       0.000025      0.000115      0.000016      0.000000
     41 Si    c      -0.000163     -0.000046     -0.000119      0.000000
     42 Si    c      -0.000327     -0.000806      0.001095      0.000000
     43 Si    c      -0.000153      0.000006      0.000228      0.000000
     44 Si    c      -0.001436      0.000926     -0.001851      0.000000
     45 Si    c       0.000153     -0.000121      0.000125      0.000000
     46 Si    c       0.000443      0.000309      0.000385      0.000000
     47 Si    c      -0.000051     -0.000023     -0.000071      0.000000
     48 Ge    c      -0.000227      0.000188      0.001221      0.000000
     49 Si    c      -0.000005     -0.001520     -0.004767      0.000000
     50 Ge    c      -0.000688      0.000301     -0.001136      0.000000
     51 Si    c       0.000004      0.000086      0.000149      0.000000
     52 Si    c       0.000172     -0.000147     -0.000573      0.000000
     53 Si    c       0.000375     -0.000044      0.000292      0.000000
     54 Si    c      -0.000490      0.000266      0.002039      0.000000
     55 Si    c       0.000256     -0.000050     -0.000648      0.000000
     56 Si    c      -0.000898      0.000730      0.000093      0.000000
     57 Si    c      -0.000032      0.000074      0.000243      0.000000
     58 Si    c      -0.000201      0.000125      0.002280      0.000000
     59 Si    c       0.000004      0.000044      0.000337      0.000000
     60 Si    c       0.000178     -0.000794      0.001630      0.000000
     61 O2    c       0.001023     -0.001222      0.000596      0.000000
     62 O3    c       0.000321     -0.000006      0.000631      0.000000
     63 O2    c       0.000114     -0.000067     -0.000209      0.000000
     64 O2    c      -0.000035      0.000068      0.000188      0.000000
     65 O2    c      -0.000166      0.000253     -0.000387      0.000000
     66 O2    c      -0.000436      0.000117     -0.000739      0.000000
     67 O2    c       0.000042      0.000382     -0.000734      0.000000
     68 O2    c       0.000021     -0.000103     -0.000155      0.000000
     69 O2    c       0.001044     -0.000083     -0.001812      0.000000
     70 O2    c      -0.000542      0.000154      0.000262      0.000000
     71 O2    c       0.000165     -0.000514      0.000629      0.000000
     72 O2    c       0.000262     -0.000142      0.000476      0.000000
     73 O2    c       0.004894     -0.001825      0.002307      0.000000
     74 O2    c      -0.000054     -0.000153      0.000406      0.000000
     75 O2    c      -0.000153     -0.000161     -0.000451      0.000000
     76 O2    c       0.000219     -0.000081     -0.000359      0.000000
     77 O2    c       0.000146      0.000739      0.002332      0.000000
     78 O2    c       0.000289     -0.000041      0.000149      0.000000
     79 O3    c       0.002677     -0.000659      0.001286      0.000000
     80 O3    c       0.000871     -0.000588     -0.000931      0.000000
     81 O2    c       0.000005     -0.000062     -0.000014      0.000000
     82 O2    c       0.000017     -0.000011      0.000060      0.000000
     83 O2    c      -0.000741      0.000621     -0.000398      0.000000
     84 O2    c      -0.000052     -0.000041     -0.000503      0.000000
     85 O2    c      -0.000062      0.000071      0.000012      0.000000
     86 O2    c       0.003683     -0.003734      0.000163      0.000000
     87 O2    c       0.000080     -0.000060      0.000099      0.000000
     88 O2    c      -0.000017      0.000264      0.000741      0.000000
     89 O2    c       0.000137     -0.000146      0.000004      0.000000
     90 O3    c      -0.001003      0.000460      0.000800      0.000000
     91 O3    c      -0.000092     -0.000178     -0.002528      0.000000
     92 O2    c      -0.000015      0.000068     -0.000447      0.000000
     93 O2    c      -0.000136      0.000158      0.000363      0.000000
     94 O2    c      -0.000091      0.000097     -0.000422      0.000000
     95 O2    c      -0.000108     -0.000128     -0.000387      0.000000
     96 O2    c      -0.000293     -0.000172      0.002269      0.000000
     97 O2    c      -0.002980      0.003161      0.002130      0.000000
     98 O3    c      -0.000059      0.000339      0.000135      0.000000
     99 O2    c      -0.000043     -0.000009     -0.000025      0.000000
    100 O2    c      -0.000076      0.000046      0.000096      0.000000
    101 O2    c      -0.000025     -0.000653     -0.000363      0.000000
    102 O2    c       0.000525     -0.000044     -0.000570      0.000000
    103 O2    c      -0.000068      0.000104      0.000071      0.000000
    104 O2    c      -0.002664     -0.000248     -0.001924      0.000000
    105 O2    c       0.000031     -0.000107     -0.000033      0.000000
    106 O2    c       0.000691     -0.000696      0.000432      0.000000
    107 O2    c      -0.000002     -0.000017      0.000027      0.000000
    108 O2    c       0.000002      0.001009      0.000369      0.000000
    109 O2    c      -0.000014      0.000266     -0.000327      0.000000
    110 O2    c       0.000031     -0.000008      0.000154      0.000000
    111 O2    c       0.000077     -0.000136      0.000527      0.000000
    112 O2    c       0.000059     -0.000077      0.000084      0.000000
    113 O2    c       0.002284      0.000013     -0.000225      0.000000
    114 O2    c      -0.000008      0.000013     -0.000197      0.000000
    115 O3    c      -0.000924      0.000186     -0.001931      0.000000
    116 O2    c       0.000075      0.000040      0.000057      0.000000
    117 O2    c      -0.000061      0.000035      0.000060      0.000000
    118 O2    c      -0.000061      0.000016      0.000092      0.000000
    119 O2    c       0.000072     -0.000041     -0.000026      0.000000
    120 O2    c       0.000296      0.000001      0.000623      0.000000
    121 O2    c      -0.000033      0.000007     -0.000003      0.000000
    122 O2    c       0.000816     -0.000916     -0.000267      0.000000
    123 O2    c       0.000069     -0.000026      0.000081      0.000000
    124 O2    c       0.000353     -0.000729     -0.000132      0.000000
    125 O2    c      -0.000049      0.000074     -0.000013      0.000000
    126 O3    c      -0.000048      0.000208     -0.000094      0.000000
    127 O2    c      -0.001450      0.001271      0.001572      0.000000
    128 O2    c       0.000112     -0.000039     -0.000136      0.000000
    129 O2    c      -0.000006      0.000044     -0.000087      0.000000
    130 O2    c       0.000062     -0.000060      0.000089      0.000000
    131 O2    c      -0.000124      0.000228      0.000094      0.000000
    132 O2    c       0.000072     -0.000055      0.000060      0.000000
    133 O2    c      -0.000071      0.000052      0.000016      0.000000
    134 O2    c       0.000350     -0.000015      0.000300      0.000000
    135 O2    c       0.000086     -0.000064      0.000134      0.000000
    136 O2    c      -0.000002      0.000034     -0.000136      0.000000
    137 O2    c       0.000089     -0.000041     -0.000009      0.000000
    138 O2    c       0.000163      0.000020     -0.000424      0.000000
    139 O2    c      -0.000728     -0.000578     -0.001406      0.000000
    140 O2    c       0.000174     -0.000054     -0.000143      0.000000
    141 O2    c      -0.000007      0.000053     -0.000009      0.000000
    142 O2    c       0.000067     -0.000055     -0.000079      0.000000
    143 O2    c      -0.000341      0.000130     -0.000156      0.000000
    144 O3    c       0.000412     -0.000237      0.000446      0.000000
    145 O2    c      -0.000057     -0.000004     -0.000095      0.000000
    146 O3    c      -0.000103      0.001590      0.000944      0.000000
    147 O2    c       0.000010     -0.000006      0.000050      0.000000
    148 O2    c       0.000131     -0.000027     -0.000056      0.000000
    149 O2    c       0.000108     -0.000096      0.000176      0.000000
    150 O2    c      -0.000092      0.000320     -0.000453      0.000000
    151 O3    c       0.001877      0.001135      0.004073      0.000000
    152 O2    c      -0.000304      0.000088      0.000160      0.000000
    153 O2    c      -0.000003      0.000018      0.000045      0.000000
    154 O2    c       0.000025      0.000006     -0.000106      0.000000
    155 O2    c       0.000078     -0.000057     -0.000013      0.000000
    156 O2    c      -0.000026      0.000014     -0.002108      0.000000
    157 O2    c       0.000013      0.000041     -0.000135      0.000000
    158 O2    c      -0.000193      0.000111      0.000896      0.000000
    159 O2    c       0.000002      0.000028      0.000196      0.000000
    160 O2    c      -0.000160     -0.000293      0.003007      0.000000
    161 O2    c       0.000033     -0.000034      0.000054      0.000000
    162 O3    c       0.001025     -0.000260     -0.000697      0.000000
    163 O2    c       0.000637     -0.001273     -0.000481      0.000000
    164 O2    c       0.000062     -0.000006     -0.000014      0.000000
    165 O2    c      -0.000028      0.000031     -0.000029      0.000000
    166 O2    c      -0.000057      0.000139      0.000106      0.000000
    167 O2    c       0.000054      0.000040     -0.000093      0.000000
    168 O2    c      -0.000514      0.000026     -0.000197      0.000000
    169 O2    c      -0.000039     -0.000015     -0.000001      0.000000
    170 O2    c      -0.000252      0.000101      0.000326      0.000000
    171 O2    c      -0.000051      0.000068     -0.000027      0.000000
    172 O2    c       0.000165      0.000001      0.000014      0.000000
    173 O2    c      -0.000028     -0.000079     -0.000068      0.000000
    174 O2    c       0.000087     -0.000064     -0.000055      0.000000
    175 O2    c      -0.000035     -0.000182     -0.000098      0.000000
    176 O2    c      -0.000014     -0.000006      0.000072      0.000000
    177 O2    c      -0.000343      0.000659      0.001712      0.000000
    178 O2    c       0.000055      0.000036     -0.000233      0.000000
    179 O2    c       0.000180     -0.000121      0.001748      0.000000
    180 O2    c       0.000024     -0.000038     -0.000259      0.000000
    181 F     c      -0.000034     -0.000076      0.000138      0.000000
    182 F     c       0.000027     -0.000002     -0.000050      0.000000
    183 F     c      -0.000145      0.000710     -0.002196      0.000000
    184 F     c       0.000011     -0.000005     -0.000024      0.000000
    185 F     c       0.000627     -0.000185      0.001168      0.000000
    186 F     c       0.000054     -0.000007      0.000133      0.000000
    187 O2    s      -0.000420      0.000983      0.000158      0.000000
    188 O3    s      -0.000109     -0.000200     -0.000796      0.000000
    189 O2    s      -0.000044      0.000060      0.000177      0.000000
    190 O2    s       0.000024     -0.000006     -0.000088      0.000000
    191 O2    s       0.000101      0.000193      0.000238      0.000000
    192 O2    s       0.000513     -0.000417      0.000444      0.000000
    193 O2    s       0.000007     -0.000012      0.000218      0.000000
    194 O2    s      -0.000104      0.000141     -0.000007      0.000000
    195 O2    s      -0.000768      0.000263      0.000768      0.000000
    196 O2    s       0.000260     -0.000103      0.000551      0.000000
    197 O2    s      -0.000402      0.000030      0.000063      0.000000
    198 O2    s      -0.000000     -0.000083      0.000076      0.000000
    199 O2    s      -0.003853      0.000080      0.000113      0.000000
    200 O2    s      -0.000012      0.000027     -0.000090      0.000000
    201 O2    s       0.000132      0.000001     -0.000087      0.000000
    202 O2    s      -0.000012      0.000098     -0.000063      0.000000
    203 O2    s      -0.000050     -0.000463     -0.001753      0.000000
    204 O2    s      -0.000127      0.000034      0.000014      0.000000
    205 O3    s       0.000713      0.000790     -0.000243      0.000000
    206 O3    s      -0.000610      0.000280      0.001508      0.000000
    207 O2    s       0.000022      0.000025      0.000101      0.000000
    208 O2    s       0.000046      0.000023      0.000054      0.000000
    209 O2    s      -0.000062      0.000216      0.000340      0.000000
    210 O2    s       0.000123     -0.000150      0.000867      0.000000
    211 O2    s       0.000138      0.000034     -0.000227      0.000000
    212 O2    s       0.001319     -0.000278      0.000191      0.000000
    213 O2    s       0.000058      0.000015     -0.000165      0.000000
    214 O2    s       0.000125      0.000131     -0.001883      0.000000
    215 O2    s       0.000050     -0.000092     -0.000098      0.000000
    216 O3    s       0.000234     -0.000331     -0.000992      0.000000
    217 O3    s       0.000292     -0.000316      0.000982      0.000000
    218 O2    s      -0.000052      0.000043      0.000143      0.000000
    219 O2    s      -0.000434     -0.000271     -0.003820      0.000000
    220 O2    s       0.000291     -0.000029      0.000472      0.000000
    221 O2    s      -0.000352      0.001379      0.002723      0.000000
    222 O2    s       0.000029      0.000053     -0.000274      0.000000
    223 O2    s      -0.000731      0.000276     -0.001033      0.000000
    224 O3    s      -0.000014      0.000012     -0.000528      0.000000
    225 O2    s       0.000038     -0.000043      0.000053      0.000000
    226 O2    s       0.000030      0.000026     -0.000128      0.000000
    227 O2    s       0.000125     -0.000270     -0.000039      0.000000
    228 O2    s      -0.000353      0.000296      0.000671      0.000000
    229 O2    s       0.000170     -0.000004     -0.000419      0.000000
    230 O2    s      -0.001404      0.000560     -0.000970      0.000000
    231 O2    s      -0.000061     -0.000019      0.000239      0.000000
    232 O2    s       0.000094     -0.000048      0.000581      0.000000
    233 O2    s      -0.000000      0.000017      0.000111      0.000000
    234 O2    s       0.000666     -0.000131      0.000152      0.000000
    235 O2    s      -0.000146      0.000043      0.000342      0.000000
    236 O2    s      -0.000008      0.000059      0.000113      0.000000
    237 O2    s      -0.000166      0.000145     -0.000025      0.000000
    238 O2    s      -0.000137      0.000138     -0.000298      0.000000
    239 O2    s      -0.002658      0.000189     -0.001227      0.000000
    240 O2    s       0.000079     -0.000147     -0.000146      0.000000
    241 O3    s       0.000824     -0.000266      0.002886      0.000000
    242 O2    s      -0.000174      0.000074      0.000117      0.000000
    243 O2    s       0.000100     -0.000057     -0.000002      0.000000
    244 O2    s      -0.000004      0.000045     -0.000080      0.000000
    245 O2    s       0.000033      0.000011      0.000080      0.000000
    246 O2    s      -0.000164      0.000490     -0.000898      0.000000
    247 O2    s       0.000042      0.000019     -0.000145      0.000000
    248 O2    s      -0.000175      0.000711      0.001087      0.000000
    249 O2    s      -0.000008      0.000093     -0.000226      0.000000
    250 O2    s      -0.000241     -0.000109     -0.000632      0.000000
    251 O2    s      -0.000029     -0.000039      0.000021      0.000000
    252 O3    s       0.000295     -0.000290     -0.000086      0.000000
    253 O2    s       0.001831     -0.001442     -0.002011      0.000000
    254 O2    s      -0.000117      0.000064     -0.000106      0.000000
    255 O2    s       0.000072     -0.000087      0.000070      0.000000
    256 O2    s      -0.000037      0.000062     -0.000178      0.000000
    257 O2    s       0.000039      0.000153     -0.000659      0.000000
    258 O2    s      -0.000374      0.000271     -0.000132      0.000000
    259 O2    s       0.000208     -0.000143      0.000356      0.000000
    260 O2    s      -0.000116     -0.000010      0.000234      0.000000
    261 O2    s      -0.000095      0.000079      0.000018      0.000000
    262 O2    s      -0.000091      0.000035      0.000374      0.000000
    263 O2    s      -0.000082      0.000004      0.000208      0.000000
    264 O2    s      -0.000858      0.001136      0.003880      0.000000
    265 O2    s       0.001806     -0.000172      0.002931      0.000000
    266 O2    s      -0.000116      0.000006      0.000106      0.000000
    267 O2    s      -0.000038     -0.000047     -0.000126      0.000000
    268 O2    s      -0.000031     -0.000026     -0.000051      0.000000
    269 O2    s      -0.000186      0.000197     -0.000399      0.000000
    270 O3    s      -0.000655      0.000450     -0.000591      0.000000
    271 O2    s      -0.000020     -0.000066      0.000413      0.000000
    272 O3    s      -0.000178     -0.000777      0.000025      0.000000
    273 O2    s       0.000024     -0.000015     -0.000073      0.000000
    274 O2    s      -0.000306      0.000092      0.000143      0.000000
    275 O2    s      -0.000055      0.000139     -0.000000      0.000000
    276 O2    s       0.000704     -0.001671      0.002042      0.000000
    277 O3    s      -0.002130     -0.001102     -0.004094      0.000000
    278 O2    s       0.000258      0.000027     -0.000392      0.000000
    279 O2    s       0.000021     -0.000021      0.000051      0.000000
    280 O2    s      -0.000055      0.000005      0.000016      0.000000
    281 O2    s      -0.000018      0.000083     -0.000166      0.000000
    282 O2    s      -0.000467      0.000870      0.000546      0.000000
    283 O2    s       0.000020     -0.000091      0.000220      0.000000
    284 O2    s       0.000990     -0.000951     -0.000746      0.000000
    285 O2    s      -0.000010     -0.000018     -0.000384      0.000000
    286 O2    s      -0.000296      0.000333     -0.000216      0.000000
    287 O2    s      -0.000054      0.000033      0.000073      0.000000
    288 O3    s      -0.001054      0.000154      0.000706      0.000000
    289 O2    s      -0.001062      0.001054     -0.000544      0.000000
    290 O2    s       0.000061      0.000047     -0.000133      0.000000
    291 O2    s       0.000043     -0.000033      0.000011      0.000000
    292 O2    s       0.000042     -0.000035     -0.000055      0.000000
    293 O2    s      -0.000051     -0.000011      0.000317      0.000000
    294 O2    s       0.000691      0.000061     -0.001106      0.000000
    295 O2    s       0.000047      0.000045     -0.000065      0.000000
    296 O2    s       0.000643     -0.000386     -0.000171      0.000000
    297 O2    s       0.000017      0.000049     -0.000059      0.000000
    298 O2    s       0.000517     -0.000147      0.000292      0.000000
    299 O2    s       0.000001      0.000034      0.000004      0.000000
    300 O2    s      -0.000087     -0.000053      0.000240      0.000000
    301 O2    s      -0.000028      0.000087      0.000204      0.000000
    302 O2    s      -0.000015     -0.000025     -0.000081      0.000000
    303 O2    s      -0.000666     -0.000233     -0.004147      0.000000
    304 O2    s      -0.000073     -0.000078      0.000251      0.000000
    305 O2    s      -0.000151     -0.000060     -0.000723      0.000000
    306 O2    s      -0.000064      0.000097      0.000178      0.000000
    307 F     s       0.000132      0.000052     -0.000305      0.000000
    308 F     s      -0.000049     -0.000007      0.000135      0.000000
    309 F     s       0.001473     -0.000164      0.000825      0.000000
    310 F     s      -0.000009      0.000033      0.000023      0.000000
    311 F     s      -0.001044      0.000607     -0.003199      0.000000
    312 F     s      -0.000086      0.000024     -0.000283      0.000000
--------------------------------------------------------------------------------
  Maximum abs         0.004894      0.003734      0.007296      0.000000
--------------------------------------------------------------------------------


  Time to end of optimisation =       7.9397 seconds


  Peak dynamic memory used =      19.13 MB 


  Timing analysis for GULP :

--------------------------------------------------------------------------------
  Task / Subroutine                                          Time (Seconds)
--------------------------------------------------------------------------------
  Calculation of reciprocal space energy and derivatives          0.2997
  Calculation of real space energy and derivatives                6.6395
  Calculation of three-body energy and derivatives                0.7587
  Calculation of matrix inversion                                 0.2036
--------------------------------------------------------------------------------
  Total CPU time                                                  7.9397
--------------------------------------------------------------------------------


  Dump file written as out.res                                                 
  CIF file written as out.cif                                                 


  Job Finished at 01:37.22 26th November   2016                               

