********************************************************************************
*                       GENERAL UTILITY LATTICE PROGRAM                        *
*                                 Julian Gale                                  *
*                      Nanochemistry Research Institute                        *
*                           Department of Chemistry                            *
*                    Curtin University, Western Australia                      *
********************************************************************************
* Version = 4.2.0 * Last modified =  20th January 2014                         *
********************************************************************************
*  optimise     - perform optimisation run                                     *
*  conp         - constant pressure calculation                                *
*  qok          - running with non charge neutral cell is OK                   *
********************************************************************************

  Job Started  at 00:01.02 26th November   2016                               

  Number of CPUs =     1


  Total number of configurations input =   1

********************************************************************************
*  Input for Configuration =   1                                               *
********************************************************************************

  Formula = Si57Ge3O120F6                                               

  Number of irreducible atoms/shells =     312


  Total number atoms/shells =     312

  Dimensionality = 3               :  Bulk   


  Charge on solid   =  -6.000000 =>neutralising background added


  Cartesian lattice vectors (Angstroms) :

       12.006827    0.000000    0.000000
       -6.041997   10.330563    0.000000
        0.161218    0.152595   29.541834

  Cell parameters (Angstroms/Degrees):

  a =      12.0068    alpha =  89.9024
  b =      11.9677    beta  =  89.6873
  c =      29.5427    gamma = 120.3219

  Initial cell volume =        3664.288723 Angs**3

  Temperature of configuration =  0.000     K 

  Pressure of configuration =         0.000 GPa 

  Fractional coordinates of asymmetric unit :

--------------------------------------------------------------------------------
   No.  Atomic       x           y          z         Charge      Occupancy
        Label      (Frac)      (Frac)     (Frac)        (e)         (Frac)  
--------------------------------------------------------------------------------
      1 Si    c    0.699600    0.375700    0.033890     4.00000    1.000000    
      2 Si    c    0.620635 *  0.321233 *  0.368115 *   4.00000    1.000000    
      3 Si    c    0.675097 *  0.297312 *  0.699011 *   4.00000    1.000000    
      4 Si    c    0.298250 *  0.622051 *  0.533082 *   4.00000    1.000000    
      5 Si    c    0.374835 *  0.676352 *  0.865805 *   4.00000    1.000000    
      6 Si    c    0.321600 *  0.700593 *  0.201428 *   4.00000    1.000000    
      7 Si    c    0.375420 *  0.700432 *  0.301624 *   4.00000    1.000000    
      8 Si    c    0.317981 *  0.625131 *  0.968394 *   4.00000    1.000000    
      9 Si    c    0.297021 *  0.676312 *  0.633466 *   4.00000    1.000000    
     10 Si    c    0.619588 *  0.297286 *  0.799302 *   4.00000    1.000000    
     11 Si    c    0.677151 *  0.379582 *  0.468043 *   4.00000    1.000000    
     12 Si    c    0.699925 *  0.325478 *  0.134362 *   4.00000    1.000000    
     13 Si    c    0.528405 *  0.410065 *  0.967972 *   4.00000    1.000000    
     14 Si    c    0.581041 *  0.114612 *  0.301551 *   4.00000    1.000000    
     15 Si    c    0.887000 *  0.468641 *  0.634226 *   4.00000    1.000000    
     16 Si    c    0.471046 *  0.584781 *  0.468169 *   4.00000    1.000000    
     17 Si    c    0.416426 *  0.888063 *  0.799980 *   4.00000    1.000000    
     18 Si    c    0.113405 *  0.537566 *  0.134929 *   4.00000    1.000000    
     19 Si    c    0.415984 *  0.530823 *  0.367006 *   4.00000    1.000000    
     20 Si    c    0.112092 *  0.588328 *  0.033468 *   4.00000    1.000000    
     21 Si    c    0.467688 *  0.886309 *  0.698526 *   4.00000    1.000000    
     22 Si    c    0.581283 *  0.467978 *  0.864732 *   4.00000    1.000000    
     23 Si    c    0.886560 *  0.416053 *  0.532872 *   4.00000    1.000000    
     24 Si    c    0.531364 *  0.114720 *  0.200271 *   4.00000    1.000000    
     25 Si    c    0.296547 *  0.394844 *  0.847982 *   4.00000    1.000000    
     26 Si    c    0.600350 *  0.903226 *  0.186209 *   4.00000    1.000000    
     27 Si    c    0.097086 *  0.698174 *  0.518857 *   4.00000    1.000000    
     28 Si    c    0.695040 *  0.598524 *  0.352140 *   4.00000    1.000000    
     29 Si    c    0.396621 *  0.095887 *  0.684454 *   4.00000    1.000000    
     30 Si    c    0.905328 *  0.302815 *  0.019517 *   4.00000    1.000000    
     31 Si    c    0.399438 *  0.304131 *  0.483270 *   4.00000    1.000000    
     32 Si    c    0.901427 *  0.603990 *  0.148234 *   4.00000    1.000000    
     33 Si    c    0.697322 *  0.096996 *  0.813524 *   4.00000    1.000000    
     34 Si    c    0.598776 *  0.695312 *  0.982404 *   4.00000    1.000000    
     35 Si    c    0.094846 *  0.397208 *  0.648298 *   4.00000    1.000000    
     36 Si    c    0.300526 *  0.903171 *  0.316078 *   4.00000    1.000000    
     37 Ge    c    0.264944 *  0.357572 *  0.947637 *   4.00000    1.000000    
     38 Si    c    0.656362 *  0.912464 *  0.286557 *   4.00000    1.000000    
     39 Si    c    0.089230 *  0.748389 *  0.619156 *   4.00000    1.000000    
     40 Si    c    0.749237 *  0.661377 *  0.451863 *   4.00000    1.000000    
     41 Si    c    0.338109 *  0.088407 *  0.785032 *   4.00000    1.000000    
     42 Si    c    0.911048 *  0.258099 *  0.120591 *   4.00000    1.000000    
     43 Si    c    0.341388 *  0.252682 *  0.383245 *   4.00000    1.000000    
     44 Si    c    0.906838 *  0.659960 *  0.047918 *   4.00000    1.000000    
     45 Si    c    0.747303 *  0.088477 *  0.713098 *   4.00000    1.000000    
     46 Si    c    0.660904 *  0.749907 *  0.880637 *   4.00000    1.000000    
     47 Si    c    0.087739 *  0.339383 *  0.547930 *   4.00000    1.000000    
     48 Si    c    0.252458 *  0.910886 *  0.215715 *   4.00000    1.000000    
     49 Si    c    0.978416 *  0.128713 *  0.965495 *   4.00000    1.000000    
     50 Ge    c    0.876931 *  0.850852 *  0.301121 *   4.00000    1.000000    
     51 Si    c    0.149755 *  0.027935 *  0.633869 *   4.00000    1.000000    
     52 Si    c    0.029602 *  0.878445 *  0.468373 *   4.00000    1.000000    
     53 Si    c    0.120173 *  0.149703 *  0.798261 *   4.00000    1.000000    
     54 Ge    c    0.850512 *  0.974964 *  0.132793 *   4.00000    1.000000    
     55 Si    c    0.124038 *  0.972941 *  0.367613 *   4.00000    1.000000    
     56 Si    c    0.850443 *  0.880908 *  0.029394 *   4.00000    1.000000    
     57 Si    c    0.025992 *  0.147929 *  0.698262 *   4.00000    1.000000    
     58 Si    c    0.879028 *  0.034323 *  0.865141 *   4.00000    1.000000    
     59 Si    c    0.150077 *  0.121764 *  0.533269 *   4.00000    1.000000    
     60 Si    c    0.975722 *  0.852547 *  0.198194 *   4.00000    1.000000    
     61 O2    c    0.926832 *  0.995505 *  0.993727 *   0.87073    1.000000    
     62 O3    c    0.005128 *  0.937930 *  0.336113 *   1.33043    1.000000    
     63 O2    c    0.068142 *  0.068814 *  0.665704 *   0.87073    1.000000    
     64 O2    c    0.070209 *  0.999766 *  0.500979 *   0.87073    1.000000    
     65 O2    c    0.999397 *  0.073383 *  0.831903 *   0.87073    1.000000    
     66 O3    c    0.944542 *  0.932794 *  0.162951 *   1.33043    1.000000    
     67 O2    c    0.338096 *  0.578021 *  0.334900 *   0.87073    1.000000    
     68 O2    c    0.419427 *  0.761034 *  0.666231 *   0.87073    1.000000    
     69 O2    c    0.238106 *  0.670703 *  0.000896 *   0.87073    1.000000    
     70 O2    c    0.658005 *  0.420483 *  0.832082 *   0.87073    1.000000    
     71 O2    c    0.577454 *  0.239545 *  0.167541 *   0.87073    1.000000    
     72 O2    c    0.761048 *  0.341060 *  0.500727 *   0.87073    1.000000    
     73 O2    c    0.582349 *  0.336889 *  0.999326 *   0.87073    1.000000    
     74 O2    c    0.761003 *  0.421005 *  0.666457 *   0.87073    1.000000    
     75 O2    c    0.658363 *  0.237923 *  0.334778 *   0.87073    1.000000    
     76 O2    c    0.422066 *  0.661346 *  0.500530 *   0.87073    1.000000    
     77 O2    c    0.236770 *  0.580957 *  0.167630 *   0.87073    1.000000    
     78 O2    c    0.340395 *  0.762884 *  0.833138 *   0.87073    1.000000    
     79 O3    c    0.127374 *  0.215035 *  0.970175 *   1.33043    1.000000    
     80 O3    c    0.779345 *  0.916216 *  0.308679 *   1.33043    1.000000    
     81 O2    c    0.087962 *  0.873582 *  0.639546 *   0.87073    1.000000    
     82 O2    c    0.874893 *  0.787265 *  0.472448 *   0.87073    1.000000    
     83 O2    c    0.210683 *  0.086362 *  0.804740 *   0.87073    1.000000    
     84 O3    c    0.913555 *  0.137384 *  0.142760 *   1.33043    1.000000    
     85 O2    c    0.216719 *  0.127421 *  0.362809 *   0.87073    1.000000    
     86 O2    c    0.908735 *  0.785377 *  0.026227 *   0.87073    1.000000    
     87 O2    c    0.872108 *  0.086661 *  0.692658 *   0.87073    1.000000    
     88 O2    c    0.786061 *  0.877918 *  0.861150 *   0.87073    1.000000    
     89 O2    c    0.087000 *  0.212628 *  0.528067 *   0.87073    1.000000    
     90 O2    c    0.129558 *  0.911294 *  0.194425 *   0.87073    1.000000    
     91 O3    c    0.935137 *  0.874167 *  0.247108 *   1.33043    1.000000    
     92 O2    c    0.136750 *  0.067375 *  0.583515 *   0.87073    1.000000    
     93 O2    c    0.929829 *  0.079714 *  0.914739 *   0.87073    1.000000    
     94 O2    c    0.063005 *  0.129506 *  0.748375 *   0.87073    1.000000    
     95 O3    c    0.867194 *  0.944232 *  0.077528 *   1.33043    1.000000    
     96 O2    c    0.072449 *  0.932088 *  0.418292 *   0.87073    1.000000    
     97 O2    c    0.906409 *  0.207209 *  0.981209 *   0.87073    1.000000    
     98 O3    c    0.790541 *  0.687854 *  0.312454 *   1.33043    1.000000    
     99 O2    c    0.301078 *  0.098524 *  0.646305 *   0.87073    1.000000    
    100 O2    c    0.098409 *  0.796411 *  0.480715 *   0.87073    1.000000    
    101 O2    c    0.207582 *  0.303989 *  0.806437 *   0.87073    1.000000    
    102 O3    c    0.689435 *  0.895270 *  0.147090 *   1.33043    1.000000    
    103 O2    c    0.202207 *  0.900177 *  0.354592 *   0.87073    1.000000    
    104 O2    c    0.696364 *  0.794493 *  0.019584 *   0.87073    1.000000    
    105 O2    c    0.096730 *  0.300563 *  0.686676 *   0.87073    1.000000    
    106 O2    c    0.795315 *  0.100272 *  0.851582 *   0.87073    1.000000    
    107 O2    c    0.302176 *  0.205312 *  0.521731 *   0.87073    1.000000    
    108 O2    c    0.900188 *  0.699120 *  0.187212 *   0.87073    1.000000    
    109 O2    c    0.317569 *  0.641684 *  0.251752 *   0.87073    1.000000    
    110 O2    c    0.355150 *  0.678332 *  0.583252 *   0.87073    1.000000    
    111 O2    c    0.321527 *  0.676807 *  0.916491 *   0.87073    1.000000    
    112 O2    c    0.676983 *  0.355457 *  0.749149 *   0.87073    1.000000    
    113 O2    c    0.640444 *  0.321055 *  0.084239 *   0.87073    1.000000    
    114 O2    c    0.676222 *  0.320037 *  0.418309 *   0.87073    1.000000    
    115 O3    c    0.376599 *  0.320056 *  0.972261 *   1.33043    1.000000    
    116 O2    c    0.666599 *  0.045235 *  0.304337 *   0.87073    1.000000    
    117 O2    c    0.956239 *  0.625219 *  0.637367 *   0.87073    1.000000    
    118 O2    c    0.627510 *  0.671782 *  0.470702 *   0.87073    1.000000    
    119 O2    c    0.329407 *  0.956599 *  0.803790 *   0.87073    1.000000    
    120 O2    c    0.043411 *  0.381635 *  0.137969 *   0.87073    1.000000    
    121 O2    c    0.329806 *  0.374055 *  0.364822 *   0.87073    1.000000    
    122 O2    c    0.040361 *  0.672127 *  0.030193 *   0.87073    1.000000    
    123 O2    c    0.623901 *  0.955309 *  0.695674 *   0.87073    1.000000    
    124 O2    c    0.666697 *  0.625171 *  0.862809 *   0.87073    1.000000    
    125 O2    c    0.955568 *  0.329091 *  0.529693 *   0.87073    1.000000    
    126 O2    c    0.375400 *  0.044305 *  0.197769 *   0.87073    1.000000    
    127 O2    c    0.770938 *  0.302323 *  0.012916 *   0.87073    1.000000    
    128 O2    c    0.695769 *  0.464789 *  0.346032 *   0.87073    1.000000    
    129 O2    c    0.531839 *  0.229890 *  0.677122 *   0.87073    1.000000    
    130 O2    c    0.230356 *  0.697329 *  0.511055 *   0.87073    1.000000    
    131 O2    c    0.301098 *  0.532991 *  0.843729 *   0.87073    1.000000    
    132 O2    c    0.465487 *  0.768624 *  0.179938 *   0.87073    1.000000    
    133 O2    c    0.301563 *  0.769646 *  0.323890 *   0.87073    1.000000    
    134 O2    c    0.464677 *  0.695154 *  0.988115 *   0.87073    1.000000    
    135 O2    c    0.228618 *  0.532216 *  0.655762 *   0.87073    1.000000    
    136 O2    c    0.694413 *  0.229456 *  0.821552 *   0.87073    1.000000    
    137 O2    c    0.533889 *  0.305927 *  0.490869 *   0.87073    1.000000    
    138 O2    c    0.767170 *  0.469225 *  0.156499 *   0.87073    1.000000    
    139 O2    c    0.780410 *  0.532993 *  0.029152 *   0.87073    1.000000    
    140 O2    c    0.465166 *  0.249103 *  0.363880 *   0.87073    1.000000    
    141 O2    c    0.747914 *  0.214654 *  0.693602 *   0.87073    1.000000    
    142 O2    c    0.214912 *  0.465488 *  0.528422 *   0.87073    1.000000    
    143 O2    c    0.529924 *  0.740998 *  0.863418 *   0.87073    1.000000    
    144 O2    c    0.250009 *  0.783826 *  0.196746 *   0.87073    1.000000    
    145 O2    c    0.531191 *  0.782666 *  0.305412 *   0.87073    1.000000    
    146 O3    c    0.236549 *  0.471998 *  0.974952 *   1.33043    1.000000    
    147 O2    c    0.215609 *  0.750444 *  0.638562 *   0.87073    1.000000    
    148 O2    c    0.463259 *  0.215968 *  0.804370 *   0.87073    1.000000    
    149 O2    c    0.751977 *  0.536378 *  0.471129 *   0.87073    1.000000    
    150 O2    c    0.781825 *  0.252461 *  0.139482 *   0.87073    1.000000    
    151 O3    c    0.216634 *  0.311432 *  0.890736 *   1.33043    1.000000    
    152 O2    c    0.678259 *  0.909878 *  0.232145 *   0.87073    1.000000    
    153 O2    c    0.092653 *  0.768616 *  0.565019 *   0.87073    1.000000    
    154 O2    c    0.768028 *  0.680003 *  0.397435 *   0.87073    1.000000    
    155 O2    c    0.321720 *  0.090141 *  0.730865 *   0.87073    1.000000    
    156 O2    c    0.908574 *  0.233968 *  0.066476 *   0.87073    1.000000    
    157 O2    c    0.323804 *  0.233168 *  0.437468 *   0.87073    1.000000    
    158 O2    c    0.903816 *  0.679454 *  0.102125 *   0.87073    1.000000    
    159 O2    c    0.767789 *  0.093089 *  0.767202 *   0.87073    1.000000    
    160 O2    c    0.669045 *  0.758233 *  0.934734 *   0.87073    1.000000    
    161 O2    c    0.089326 *  0.321916 *  0.602137 *   0.87073    1.000000    
    162 O2    c    0.229975 *  0.906790 *  0.269952 *   0.87073    1.000000    
    163 O2    c    0.579785 *  0.553503 *  0.989714 *   0.87073    1.000000    
    164 O2    c    0.438940 *  0.030581 *  0.324418 *   0.87073    1.000000    
    165 O2    c    0.969551 *  0.410680 *  0.657530 *   0.87073    1.000000    
    166 O2    c    0.413303 *  0.443612 *  0.491866 *   0.87073    1.000000    
    167 O2    c    0.558303 *  0.969214 *  0.822568 *   0.87073    1.000000    
    168 O2    c    0.029196 *  0.595038 *  0.157302 *   0.87073    1.000000    
    169 O2    c    0.556733 *  0.586682 *  0.343585 *   0.87073    1.000000    
    170 O2    c    0.028823 *  0.445519 *  0.011630 *   0.87073    1.000000    
    171 O2    c    0.411323 *  0.970937 *  0.675754 *   0.87073    1.000000    
    172 O2    c    0.440674 *  0.415972 *  0.842611 *   0.87073    1.000000    
    173 O2    c    0.971460 *  0.558345 *  0.510155 *   0.87073    1.000000    
    174 O2    c    0.588899 *  0.030495 *  0.177735 *   0.87073    1.000000    
    175 O2    c    0.583587 *  0.169489 *  0.250877 *   0.87073    1.000000    
    176 O2    c    0.833563 *  0.414890 *  0.583752 *   0.87073    1.000000    
    177 O2    c    0.579721 *  0.416985 *  0.915777 *   0.87073    1.000000    
    178 O2    c    0.413925 *  0.833145 *  0.749444 *   0.87073    1.000000    
    179 O2    c    0.166831 *  0.591206 *  0.084076 *   0.87073    1.000000    
    180 O2    c    0.417396 *  0.584680 *  0.417699 *   0.87073    1.000000    
    181 F     c    0.452850 *  0.905091 *  0.251483 *   0.56000    1.000000    
    182 F     c    0.095457 *  0.547515 *  0.583944 *   0.56000    1.000000    
    183 F     c    0.414398 *  0.509504 *  0.921254 *   0.56000    1.000000    
    184 F     c    0.546367 *  0.095708 *  0.750013 *   0.56000    1.000000    
    185 F     c    0.901003 *  0.455898 *  0.085609 *   0.56000    1.000000    
    186 F     c    0.548634 *  0.454220 *  0.417913 *   0.56000    1.000000    
    187 O2    s    0.923610 *  0.996593 *  0.994775 *  -2.87073    1.000000    
    188 O3    s    0.006905 *  0.934158 *  0.336487 *  -3.33043    1.000000    
    189 O2    s    0.072551 *  0.073090 *  0.665788 *  -2.87073    1.000000    
    190 O2    s    0.074625 *  0.999925 *  0.500971 *  -2.87073    1.000000    
    191 O2    s    0.999454 *  0.077495 *  0.831840 *  -2.87073    1.000000    
    192 O3    s    0.939617 *  0.927983 *  0.164061 *  -3.33043    1.000000    
    193 O2    s    0.349891 *  0.585663 *  0.334789 *  -2.87073    1.000000    
    194 O2    s    0.411892 *  0.765325 *  0.666211 *  -2.87073    1.000000    
    195 O2    s    0.233643 *  0.658049 *  0.000866 *  -2.87073    1.000000    
    196 O2    s    0.646115 *  0.412921 *  0.832138 *  -2.87073    1.000000    
    197 O2    s    0.585271 *  0.235481 *  0.167504 *  -2.87073    1.000000    
    198 O2    s    0.765407 *  0.352741 *  0.500685 *  -2.87073    1.000000    
    199 O2    s    0.589294 *  0.348668 *  0.999754 *  -2.87073    1.000000    
    200 O2    s    0.765037 *  0.413044 *  0.666531 *  -2.87073    1.000000    
    201 O2    s    0.646506 *  0.233917 *  0.334838 *  -2.87073    1.000000    
    202 O2    s    0.414340 *  0.649493 *  0.500581 *  -2.87073    1.000000    
    203 O2    s    0.232943 *  0.588912 *  0.167790 *  -2.87073    1.000000    
    204 O2    s    0.351779 *  0.766514 *  0.833214 *  -2.87073    1.000000    
    205 O3    s    0.119685 *  0.214768 *  0.968184 *  -3.33043    1.000000    
    206 O3    s    0.775104 *  0.910439 *  0.305851 *  -3.33043    1.000000    
    207 O2    s    0.094678 *  0.877069 *  0.636860 *  -2.87073    1.000000    
    208 O2    s    0.878345 *  0.783941 *  0.469909 *  -2.87073    1.000000    
    209 O2    s    0.214423 *  0.093155 *  0.802053 *  -2.87073    1.000000    
    210 O3    s    0.908108 *  0.135996 *  0.139748 *  -3.33043    1.000000    
    211 O2    s    0.220145 *  0.124273 *  0.365491 *  -2.87073    1.000000    
    212 O2    s    0.902340 *  0.782372 *  0.028799 *  -2.87073    1.000000    
    213 O2    s    0.875409 *  0.093303 *  0.695337 *  -2.87073    1.000000    
    214 O2    s    0.782052 *  0.880025 *  0.863619 *  -2.87073    1.000000    
    215 O2    s    0.093745 *  0.216128 *  0.530646 *  -2.87073    1.000000    
    216 O2    s    0.126472 *  0.905008 *  0.197104 *  -2.87073    1.000000    
    217 O3    s    0.934299 *  0.869809 *  0.246675 *  -3.33043    1.000000    
    218 O2    s    0.139741 *  0.069041 *  0.583573 *  -2.87073    1.000000    
    219 O2    s    0.928945 *  0.079512 *  0.914248 *  -2.87073    1.000000    
    220 O2    s    0.065250 *  0.133863 *  0.748329 *  -2.87073    1.000000    
    221 O3    s    0.863869 *  0.940005 *  0.077145 *  -3.33043    1.000000    
    222 O2    s    0.073297 *  0.930479 *  0.418374 *  -2.87073    1.000000    
    223 O2    s    0.913455 *  0.209417 *  0.983669 *  -2.87073    1.000000    
    224 O3    s    0.788457 *  0.692715 *  0.315355 *  -3.33043    1.000000    
    225 O2    s    0.294882 *  0.090789 *  0.648907 *  -2.87073    1.000000    
    226 O2    s    0.090951 *  0.794980 *  0.483354 *  -2.87073    1.000000    
    227 O2    s    0.207299 *  0.296933 *  0.809651 *  -2.87073    1.000000    
    228 O3    s    0.694064 *  0.902588 *  0.149694 *  -3.33043    1.000000    
    229 O2    s    0.204059 *  0.908119 *  0.351993 *  -2.87073    1.000000    
    230 O2    s    0.701510 *  0.792641 *  0.016645 *  -2.87073    1.000000    
    231 O2    s    0.089013 *  0.294177 *  0.684007 *  -2.87073    1.000000    
    232 O2    s    0.793969 *  0.092857 *  0.849032 *  -2.87073    1.000000    
    233 O2    s    0.295929 *  0.206529 *  0.519026 *  -2.87073    1.000000    
    234 O2    s    0.908108 *  0.705376 *  0.184413 *  -2.87073    1.000000    
    235 O2    s    0.323789 *  0.653520 *  0.251714 *  -2.87073    1.000000    
    236 O2    s    0.343439 *  0.672419 *  0.583291 *  -2.87073    1.000000    
    237 O2    s    0.326651 *  0.671690 *  0.916329 *  -2.87073    1.000000    
    238 O2    s    0.670888 *  0.343579 *  0.749212 *  -2.87073    1.000000    
    239 O2    s    0.652403 *  0.327079 *  0.084122 *  -2.87073    1.000000    
    240 O2    s    0.670678 *  0.326197 *  0.418278 *  -2.87073    1.000000    
    241 O3    s    0.384389 *  0.332149 *  0.970032 *  -3.33043    1.000000    
    242 O2    s    0.656396 *  0.038609 *  0.302140 *  -2.87073    1.000000    
    243 O2    s    0.963100 *  0.621999 *  0.635111 *  -2.87073    1.000000    
    244 O2    s    0.624064 *  0.661750 *  0.468470 *  -2.87073    1.000000    
    245 O2    s    0.339297 *  0.963228 *  0.801436 *  -2.87073    1.000000    
    246 O2    s    0.036790 *  0.385119 *  0.135779 *  -2.87073    1.000000    
    247 O2    s    0.339977 *  0.377629 *  0.366992 *  -2.87073    1.000000    
    248 O2    s    0.033741 *  0.662081 *  0.032424 *  -2.87073    1.000000    
    249 O2    s    0.620712 *  0.962152 *  0.697811 *  -2.87073    1.000000    
    250 O2    s    0.657379 *  0.622238 *  0.864878 *  -2.87073    1.000000    
    251 O2    s    0.962226 *  0.339068 *  0.531923 *  -2.87073    1.000000    
    252 O2    s    0.378674 *  0.037529 *  0.199949 *  -2.87073    1.000000    
    253 O2    s    0.777560 *  0.309893 *  0.015794 *  -2.87073    1.000000    
    254 O2    s    0.687744 *  0.463865 *  0.349067 *  -2.87073    1.000000    
    255 O2    s    0.532338 *  0.222696 *  0.680190 *  -2.87073    1.000000    
    256 O2    s    0.223343 *  0.689688 *  0.514172 *  -2.87073    1.000000    
    257 O2    s    0.308281 *  0.533874 *  0.846491 *  -2.87073    1.000000    
    258 O2    s    0.464468 *  0.775591 *  0.182914 *  -2.87073    1.000000    
    259 O2    s    0.309048 *  0.776514 *  0.320742 *  -2.87073    1.000000    
    260 O2    s    0.464086 *  0.688102 *  0.985504 *  -2.87073    1.000000    
    261 O2    s    0.221574 *  0.532847 *  0.652643 *  -2.87073    1.000000    
    262 O2    s    0.686946 *  0.222557 *  0.818372 *  -2.87073    1.000000    
    263 O2    s    0.534498 *  0.313322 *  0.487695 *  -2.87073    1.000000    
    264 O2    s    0.774327 *  0.468587 *  0.153314 *  -2.87073    1.000000    
    265 O2    s    0.785846 *  0.530624 *  0.031647 *  -2.87073    1.000000    
    266 O2    s    0.468186 *  0.257269 *  0.366424 *  -2.87073    1.000000    
    267 O2    s    0.740155 *  0.209437 *  0.696256 *  -2.87073    1.000000    
    268 O2    s    0.209728 *  0.468157 *  0.530996 *  -2.87073    1.000000    
    269 O2    s    0.527816 *  0.735046 *  0.865539 *  -2.87073    1.000000    
    270 O2    s    0.258025 *  0.789011 *  0.199311 *  -2.87073    1.000000    
    271 O2    s    0.528062 *  0.787905 *  0.303001 *  -2.87073    1.000000    
    272 O3    s    0.247148 *  0.479161 *  0.972281 *  -3.33043    1.000000    
    273 O2    s    0.210342 *  0.742399 *  0.635962 *  -2.87073    1.000000    
    274 O2    s    0.466027 *  0.210628 *  0.801805 *  -2.87073    1.000000    
    275 O2    s    0.743742 *  0.533373 *  0.468748 *  -2.87073    1.000000    
    276 O2    s    0.787105 *  0.260909 *  0.136926 *  -2.87073    1.000000    
    277 O3    s    0.228243 *  0.323243 *  0.890368 *  -3.33043    1.000000    
    278 O2    s    0.668349 *  0.909479 *  0.233014 *  -2.87073    1.000000    
    279 O2    s    0.092757 *  0.759087 *  0.565953 *  -2.87073    1.000000    
    280 O2    s    0.758797 *  0.670009 *  0.398529 *  -2.87073    1.000000    
    281 O2    s    0.331337 *  0.090546 *  0.731746 *  -2.87073    1.000000    
    282 O2    s    0.908461 *  0.243507 *  0.067228 *  -2.87073    1.000000    
    283 O2    s    0.333638 *  0.242728 *  0.436551 *  -2.87073    1.000000    
    284 O2    s    0.903841 *  0.669705 *  0.101227 *  -2.87073    1.000000    
    285 O2    s    0.758193 *  0.093011 *  0.766320 *  -2.87073    1.000000    
    286 O2    s    0.660677 *  0.750605 *  0.933818 *  -2.87073    1.000000    
    287 O2    s    0.089721 *  0.331651 *  0.601235 *  -2.87073    1.000000    
    288 O2    s    0.239603 *  0.906816 *  0.269098 *  -2.87073    1.000000    
    289 O2    s    0.576506 *  0.554592 *  0.986748 *  -2.87073    1.000000    
    290 O2    s    0.438794 *  0.025392 *  0.321109 *  -2.87073    1.000000    
    291 O2    s    0.974594 *  0.415430 *  0.654114 *  -2.87073    1.000000    
    292 O2    s    0.418014 *  0.443321 *  0.488464 *  -2.87073    1.000000    
    293 O2    s    0.558315 *  0.974476 *  0.819246 *  -2.87073    1.000000    
    294 O2    s    0.024187 *  0.589799 *  0.153964 *  -2.87073    1.000000    
    295 O2    s    0.556725 *  0.581940 *  0.346964 *  -2.87073    1.000000    
    296 O2    s    0.024198 *  0.445357 *  0.014795 *  -2.87073    1.000000    
    297 O2    s    0.415806 *  0.975722 *  0.679079 *  -2.87073    1.000000    
    298 O2    s    0.440576 *  0.419420 *  0.845531 *  -2.87073    1.000000    
    299 O2    s    0.976263 *  0.558470 *  0.513492 *  -2.87073    1.000000    
    300 O2    s    0.583989 *  0.025542 *  0.180991 *  -2.87073    1.000000    
    301 O2    s    0.577981 *  0.158231 *  0.250926 *  -2.87073    1.000000    
    302 O2    s    0.844602 *  0.420573 *  0.583706 *  -2.87073    1.000000    
    303 O2    s    0.574823 *  0.421624 *  0.915555 *  -2.87073    1.000000    
    304 O2    s    0.419687 *  0.844282 *  0.749458 *  -2.87073    1.000000    
    305 O2    s    0.155767 *  0.585421 *  0.084139 *  -2.87073    1.000000    
    306 O2    s    0.422809 *  0.579158 *  0.417688 *  -2.87073    1.000000    
    307 F     s    0.452808 *  0.904764 *  0.251518 *  -1.56000    1.000000    
    308 F     s    0.095831 *  0.547731 *  0.583999 *  -1.56000    1.000000    
    309 F     s    0.406120 *  0.501316 *  0.922617 *  -1.56000    1.000000    
    310 F     s    0.546566 *  0.096112 *  0.750109 *  -1.56000    1.000000    
    311 F     s    0.900419 *  0.455837 *  0.085810 *  -1.56000    1.000000    
    312 F     s    0.548887 *  0.454192 *  0.417919 *  -1.56000    1.000000    
--------------------------------------------------------------------------------



********************************************************************************
*  General input information                                                   *
********************************************************************************

  Species output for all configurations : 

--------------------------------------------------------------------------------
  Species    Type    Atomic    Atomic    Charge       Radii (Angs)     Library
                     Number     Mass       (e)     Cova   Ionic  VDW   Symbol
--------------------------------------------------------------------------------
    Si       Core       14      28.09   4.000000   1.200  0.000  2.100          
    O1       Core        8      16.00   1.733957   0.730  0.000  1.360          
    O1       Shell       8       0.00  -3.733957   0.730  0.000  1.360          
    O2       Core        8      16.00   0.870733   0.730  0.000  1.360          
    O2       Shell       8       0.00  -2.870733   0.730  0.000  1.360          
    O3       Core        8      16.00   1.330431   0.730  0.000  1.360          
    O3       Shell       8       0.00  -3.330431   0.730  0.000  1.360          
    F        Core        9      19.00   0.560000   0.710  0.000  1.300          
    F        Shell       9       0.00  -1.560000   0.710  0.000  1.300          
    Ge       Core       32      72.61   4.000000   1.170  0.000  1.750          
--------------------------------------------------------------------------------


  Lattice summation method               =    Ewald          (3-D)
                                         =    Parry          (2-D)
                                         =    Saunders et al (1-D)
  Accuracy factor for lattice sums       =   12.000


  Time limit = Infinity

  Maximum range for interatomic potentials =        16.000000 Angstroms

  Taper potentials to zero over   1.0000 Angstroms using polynomial

  General interatomic potentials :

--------------------------------------------------------------------------------
Atom  Types   Potential         A         B         C         D     Cutoffs(Ang)
  1     2                                                            Min    Max 
--------------------------------------------------------------------------------
Si   c O1   s Buckingham    0.132E+04 0.318      10.1      0.00     0.000 16.000
Si   c O2   s Buckingham    0.132E+04 0.318      10.1      0.00     0.000 16.000
Si   c O3   s Buckingham    0.132E+04 0.318      10.1      0.00     0.000 16.000
Ge   c O1   s Buckingham    0.150E+04 0.326      16.8      0.00     0.000 16.000
Ge   c O2   s Buckingham    0.150E+04 0.326      16.8      0.00     0.000 16.000
Ge   c O3   s Buckingham    0.150E+04 0.326      16.8      0.00     0.000 16.000
O1   s O1   s Buckingham    0.228E+05 0.149      10.9      0.00     0.000 16.000
O1   s O2   s Buckingham    0.228E+05 0.149      10.9      0.00     0.000 16.000
O1   s O3   s Buckingham    0.228E+05 0.149      10.9      0.00     0.000 16.000
O2   s O2   s Buckingham    0.228E+05 0.149      10.9      0.00     0.000 16.000
O2   s O3   s Buckingham    0.228E+05 0.149      10.9      0.00     0.000 16.000
O3   s O3   s Buckingham    0.228E+05 0.149      10.9      0.00     0.000 16.000
Si   c F    s Buckingham     977.     0.282      0.00      0.00     0.000 16.000
Ge   c F    s Buckingham     681.     0.320      0.00      0.00     0.000 16.000
F    s F    s Buckingham     540.     0.262      0.00      0.00     0.000 16.000
O1   s F    s Buckingham    0.168E+04 0.268      0.00      0.00     0.000 16.000
O2   s F    s Buckingham    0.168E+04 0.268      0.00      0.00     0.000 16.000
O3   s F    s Buckingham    0.168E+04 0.268      0.00      0.00     0.000 16.000
O2   c O2   s Spring (c-s)   76.0      0.00      0.00      0.00     0.000  0.800
O3   c O3   s Spring (c-s)   128.      0.00      0.00      0.00     0.000  0.800
O1   c O1   s Spring (c-s)   180.      0.00      0.00      0.00     0.000  0.800
F    c F    s Spring (c-s)   33.5      0.00      0.00      0.00     0.000  0.800
--------------------------------------------------------------------------------

  General Three-body potentials :

  Harmonic form:

--------------------------------------------------------------------------------
Atom    Atom    Atom           Force Constants            Theta     Cutoffs  
  1       2       3     (eVrad**-2/eVrad**-3/eVrad**-4)   (deg)  1-2  1-3  2-3
--------------------------------------------------------------------------------
Si    c O1    s O1    s  1.261        0.0000    0.0000   109.470 0.00 0.00 0.00
                                                                 1.90 1.90 3.50
Si    c O1    s O2    s  1.261        0.0000    0.0000   109.470 0.00 0.00 0.00
                                                                 1.90 1.90 3.50
Si    c O2    s O2    s  1.261        0.0000    0.0000   109.470 0.00 0.00 0.00
                                                                 1.90 1.90 3.50
--------------------------------------------------------------------------------

********************************************************************************
*  Output for configuration   1                                                *
********************************************************************************


  Components of energy : 

--------------------------------------------------------------------------------
  Interatomic potentials     =        2060.44181270 eV
  Three-body potentials      =           0.46534186 eV
  Monopole - monopole (real) =       -6610.91469802 eV
  Monopole - monopole (recip)=       -3169.19295718 eV
  Monopole - monopole (total)=       -9780.10765520 eV
  Neutralising energy        =          -6.45563127 eV
--------------------------------------------------------------------------------
  Total lattice energy       =       -7725.65613191 eV
--------------------------------------------------------------------------------
  Total lattice energy       =         -745407.7193 kJ/(mole unit cells)
--------------------------------------------------------------------------------


  Number of variables =      939

  Maximum number of calculations  =          1000
  Maximum Hessian update interval =            10
  Maximum step size               =   1.000000000
  Maximum parameter tolerance     =   0.000010000
  Maximum function  tolerance     =   0.000010000
  Maximum gradient  tolerance     =   0.001000000
  Maximum gradient  component     =   0.010000000

  Symmetry not applied to optimisation

  Cell parameters to be optimised using strains

  Newton-Raphson optimiser to be used

  BFGS hessian update to be used

  Dumpfile to be written after every cycle

  Start of bulk optimisation :

  Cycle:      0 Energy:     -7725.656132  Gnorm:      0.008220  CPU:    1.124
  ** Hessian calculated **
  Cycle:      1 Energy:     -7725.656260  Gnorm:      0.001749  CPU:    2.713
  Cycle:      2 Energy:     -7725.656308  Gnorm:      0.002654  CPU:    4.096
  Cycle:      3 Energy:     -7725.656535  Gnorm:      0.005528  CPU:    6.142
  Cycle:      4 Energy:     -7725.657016  Gnorm:      0.005624  CPU:    8.188
  Cycle:      5 Energy:     -7725.657754  Gnorm:      0.005228  CPU:   10.234
  Cycle:      6 Energy:     -7725.658729  Gnorm:      0.005372  CPU:   12.280
  Cycle:      7 Energy:     -7725.659878  Gnorm:      0.006032  CPU:   14.325
  Cycle:      8 Energy:     -7725.660900  Gnorm:      0.006456  CPU:   16.040
  Cycle:      9 Energy:     -7725.661875  Gnorm:      0.008941  CPU:   17.754
  Cycle:     10 Energy:     -7725.663039  Gnorm:      0.009478  CPU:   19.137
  ** Hessian calculated **
  Cycle:     11 Energy:     -7725.663613  Gnorm:      0.006042  CPU:   21.371
  Cycle:     12 Energy:     -7725.664420  Gnorm:      0.008893  CPU:   22.899
  Cycle:     13 Energy:     -7725.665527  Gnorm:      0.009297  CPU:   24.282
  Cycle:     14 Energy:     -7725.666392  Gnorm:      0.007336  CPU:   25.665
  Cycle:     15 Energy:     -7725.666818  Gnorm:      0.004748  CPU:   27.049
  Cycle:     16 Energy:     -7725.667057  Gnorm:      0.004895  CPU:   28.432
  Cycle:     17 Energy:     -7725.667325  Gnorm:      0.005024  CPU:   29.815
  Cycle:     18 Energy:     -7725.667625  Gnorm:      0.005302  CPU:   31.199
  Cycle:     19 Energy:     -7725.667935  Gnorm:      0.005460  CPU:   32.582
  Cycle:     20 Energy:     -7725.668152  Gnorm:      0.003684  CPU:   33.964
  ** Hessian calculated **
  Cycle:     21 Energy:     -7725.669617  Gnorm:      0.003637  CPU:   37.525
  Cycle:     22 Energy:     -7725.671907  Gnorm:      0.003563  CPU:   39.904
  Cycle:     23 Energy:     -7725.675313  Gnorm:      0.003449  CPU:   42.282
  Cycle:     24 Energy:     -7725.679430  Gnorm:      0.003307  CPU:   44.328
  Cycle:     25 Energy:     -7725.686030  Gnorm:      0.003066  CPU:   46.707
  Cycle:     26 Energy:     -7725.693799  Gnorm:      0.002757  CPU:   48.754
  Cycle:     27 Energy:     -7725.705169  Gnorm:      0.002237  CPU:   51.133
  Cycle:     28 Energy:     -7725.716098  Gnorm:      0.001605  CPU:   53.181
  Cycle:     29 Energy:     -7725.724293  Gnorm:      0.000878  CPU:   55.230
  Cycle:     30 Energy:     -7725.725214  Gnorm:      0.000207  CPU:   56.615
  ** Hessian calculated **


  **** Optimisation achieved ****


  Final energy =   -7725.72521722 eV
  Final Gnorm  =       0.00000064

  Components of energy : 

--------------------------------------------------------------------------------
  Interatomic potentials     =        2060.50489109 eV
  Three-body potentials      =           0.47044009 eV
  Monopole - monopole (real) =       -6611.89905758 eV
  Monopole - monopole (recip)=       -3168.34758083 eV
  Monopole - monopole (total)=       -9780.24663842 eV
  Neutralising energy        =          -6.45390998 eV
--------------------------------------------------------------------------------
  Total lattice energy       =       -7725.72521722 eV
--------------------------------------------------------------------------------
  Total lattice energy       =         -745414.3849 kJ/(mole unit cells)
--------------------------------------------------------------------------------

  Final fractional coordinates of atoms :

--------------------------------------------------------------------------------
   No.  Atomic        x           y          z          Radius
        Label       (Frac)      (Frac)     (Frac)       (Angs) 
--------------------------------------------------------------------------------
     1  Si    c     0.699600    0.375700    0.033890    0.000000
     2  Si    c     0.606162    0.318258    0.368467    0.000000
     3  Si    c     0.653664    0.282850    0.698970    0.000000
     4  Si    c     0.280809    0.613714    0.533842    0.000000
     5  Si    c     0.356947    0.661719    0.866721    0.000000
     6  Si    c     0.310635    0.698693    0.203063    0.000000
     7  Si    c     0.362913    0.698281    0.303367    0.000000
     8  Si    c     0.304134    0.611677    0.969854    0.000000
     9  Si    c     0.275691    0.664023    0.634368    0.000000
    10  Si    c     0.598096    0.282314    0.799415    0.000000
    11  Si    c     0.661443    0.373535    0.468548    0.000000
    12  Si    c     0.692003    0.322212    0.134686    0.000000
    13  Si    c     0.517328    0.397479    0.968831    0.000000
    14  Si    c     0.568199    0.112171    0.302210    0.000000
    15  Si    c     0.866403    0.456200    0.634290    0.000000
    16  Si    c     0.456307    0.579120    0.469610    0.000000
    17  Si    c     0.395343    0.873331    0.801019    0.000000
    18  Si    c     0.104109    0.534465    0.136691    0.000000
    19  Si    c     0.402922    0.527444    0.368334    0.000000
    20  Si    c     0.104702    0.586195    0.035313    0.000000
    21  Si    c     0.446263    0.872542    0.699491    0.000000
    22  Si    c     0.563549    0.454636    0.864899    0.000000
    23  Si    c     0.870258    0.407668    0.532811    0.000000
    24  Si    c     0.519943    0.111462    0.200654    0.000000
    25  Si    c     0.278405    0.380161    0.848680    0.000000
    26  Si    c     0.589496    0.900179    0.187661    0.000000
    27  Si    c     0.080262    0.690099    0.518956    0.000000
    28  Si    c     0.681788    0.596386    0.352933    0.000000
    29  Si    c     0.375145    0.081676    0.684974    0.000000
    30  Si    c     0.902301    0.300601    0.020026    0.000000
    31  Si    c     0.384447    0.298090    0.484477    0.000000
    32  Si    c     0.892178    0.600567    0.149585    0.000000
    33  Si    c     0.675941    0.082289    0.814198    0.000000
    34  Si    c     0.584879    0.681770    0.983123    0.000000
    35  Si    c     0.073748    0.384515    0.648611    0.000000
    36  Si    c     0.288201    0.900709    0.317237    0.000000
    37  Ge    c     0.254261    0.345640    0.948659    0.000000
    38  Si    c     0.643759    0.910146    0.288326    0.000000
    39  Si    c     0.068612    0.736332    0.619474    0.000000
    40  Si    c     0.733835    0.655635    0.452995    0.000000
    41  Si    c     0.316768    0.073271    0.785685    0.000000
    42  Si    c     0.903590    0.255120    0.121530    0.000000
    43  Si    c     0.327384    0.248958    0.384248    0.000000
    44  Si    c     0.901366    0.659247    0.049059    0.000000
    45  Si    c     0.725726    0.073992    0.713650    0.000000
    46  Si    c     0.643314    0.736323    0.880987    0.000000
    47  Si    c     0.070526    0.330576    0.548048    0.000000
    48  Si    c     0.241091    0.908471    0.216698    0.000000
    49  Si    c     0.966536    0.120551    0.965318    0.000000
    50  Ge    c     0.864180    0.848917    0.301145    0.000000
    51  Si    c     0.128928    0.015570    0.634222    0.000000
    52  Si    c     0.013858    0.871631    0.468533    0.000000
    53  Si    c     0.100381    0.136259    0.798654    0.000000
    54  Ge    c     0.838716    0.970583    0.133162    0.000000
    55  Si    c     0.110333    0.969231    0.367946    0.000000
    56  Si    c     0.835647    0.873332    0.029994    0.000000
    57  Si    c     0.004555    0.134254    0.698684    0.000000
    58  Si    c     0.859825    0.022324    0.865815    0.000000
    59  Si    c     0.134157    0.114093    0.533685    0.000000
    60  Si    c     0.964023    0.849328    0.198517    0.000000
    61  O2    c     0.908732    0.986539    0.993568    0.000000
    62  O3    c     0.996125    0.936385    0.334340    0.000000
    63  O2    c     0.046633    0.055616    0.665962    0.000000
    64  O2    c     0.056917    0.993902    0.500631    0.000000
    65  O2    c     0.979157    0.061087    0.832169    0.000000
    66  O3    c     0.934765    0.926773    0.161209    0.000000
    67  O2    c     0.324995    0.575263    0.336518    0.000000
    68  O2    c     0.397342    0.747217    0.667394    0.000000
    69  O2    c     0.230329    0.664012    0.002251    0.000000
    70  O2    c     0.638237    0.406209    0.831792    0.000000
    71  O2    c     0.567896    0.235763    0.167273    0.000000
    72  O2    c     0.745227    0.333456    0.500599    0.000000
    73  O2    c     0.580514    0.332128    0.999400    0.000000
    74  O2    c     0.739561    0.406710    0.666235    0.000000
    75  O2    c     0.644668    0.236169    0.334982    0.000000
    76  O2    c     0.406089    0.654410    0.501902    0.000000
    77  O2    c     0.226529    0.578167    0.169692    0.000000
    78  O2    c     0.320803    0.747912    0.834368    0.000000
    79  O3    c     0.115650    0.201083    0.970112    0.000000
    80  O3    c     0.766797    0.913707    0.310294    0.000000
    81  O2    c     0.066420    0.861033    0.639668    0.000000
    82  O2    c     0.859531    0.780825    0.473714    0.000000
    83  O2    c     0.189242    0.071174    0.805208    0.000000
    84  O3    c     0.903928    0.133002    0.143637    0.000000
    85  O2    c     0.202252    0.123961    0.364185    0.000000
    86  O2    c     0.901517    0.784497    0.028102    0.000000
    87  O2    c     0.850639    0.072234    0.693429    0.000000
    88  O2    c     0.768250    0.865784    0.862085    0.000000
    89  O2    c     0.070994    0.204695    0.528147    0.000000
    90  O2    c     0.117961    0.909455    0.195976    0.000000
    91  O3    c     0.917053    0.871566    0.246188    0.000000
    92  O2    c     0.117852    0.057173    0.583823    0.000000
    93  O2    c     0.912859    0.071434    0.914981    0.000000
    94  O2    c     0.043405    0.117003    0.748724    0.000000
    95  O3    c     0.846986    0.938920    0.077320    0.000000
    96  O2    c     0.052596    0.923549    0.417866    0.000000
    97  O2    c     0.902770    0.206203    0.981459    0.000000
    98  O3    c     0.778228    0.686250    0.313349    0.000000
    99  O2    c     0.279706    0.085050    0.646945    0.000000
   100  O2    c     0.082704    0.789481    0.480783    0.000000
   101  O2    c     0.189048    0.290167    0.807112    0.000000
   102  O3    c     0.678923    0.891515    0.148998    0.000000
   103  O2    c     0.190466    0.898168    0.355832    0.000000
   104  O2    c     0.682766    0.780731    0.020106    0.000000
   105  O2    c     0.074405    0.286766    0.686913    0.000000
   106  O2    c     0.774115    0.086027    0.852264    0.000000
   107  O2    c     0.286655    0.198671    0.522899    0.000000
   108  O2    c     0.890699    0.695369    0.188521    0.000000
   109  O2    c     0.305808    0.639700    0.253511    0.000000
   110  O2    c     0.335474    0.667973    0.584294    0.000000
   111  O2    c     0.305092    0.661125    0.917663    0.000000
   112  O2    c     0.655131    0.340306    0.749101    0.000000
   113  O2    c     0.637163    0.320850    0.084115    0.000000
   114  O2    c     0.660692    0.315368    0.418673    0.000000
   115  O3    c     0.365591    0.306901    0.973547    0.000000
   116  O2    c     0.653899    0.043136    0.305520    0.000000
   117  O2    c     0.935494    0.612736    0.637544    0.000000
   118  O2    c     0.612601    0.666077    0.472173    0.000000
   119  O2    c     0.308039    0.941487    0.804791    0.000000
   120  O2    c     0.034501    0.378440    0.139652    0.000000
   121  O2    c     0.316298    0.370811    0.365948    0.000000
   122  O2    c     0.035940    0.672886    0.031835    0.000000
   123  O2    c     0.602269    0.940981    0.696391    0.000000
   124  O2    c     0.648722    0.611986    0.862601    0.000000
   125  O2    c     0.938865    0.320506    0.529533    0.000000
   126  O2    c     0.364100    0.041500    0.198194    0.000000
   127  O2    c     0.768588    0.300708    0.013251    0.000000
   128  O2    c     0.681710    0.462384    0.346635    0.000000
   129  O2    c     0.510395    0.215491    0.677298    0.000000
   130  O2    c     0.213745    0.689685    0.511623    0.000000
   131  O2    c     0.283391    0.518647    0.844676    0.000000
   132  O2    c     0.454342    0.766114    0.181535    0.000000
   133  O2    c     0.288684    0.767039    0.325452    0.000000
   134  O2    c     0.451176    0.681442    0.988922    0.000000
   135  O2    c     0.206871    0.519441    0.656497    0.000000
   136  O2    c     0.672626    0.214437    0.821855    0.000000
   137  O2    c     0.518658    0.299623    0.491761    0.000000
   138  O2    c     0.758600    0.465045    0.157388    0.000000
   139  O2    c     0.777848    0.532527    0.028726    0.000000
   140  O2    c     0.450831    0.246036    0.364332    0.000000
   141  O2    c     0.726121    0.199964    0.693835    0.000000
   142  O2    c     0.197774    0.457321    0.528777    0.000000
   143  O2    c     0.512016    0.727037    0.864079    0.000000
   144  O2    c     0.238628    0.781497    0.197791    0.000000
   145  O2    c     0.518458    0.780950    0.307506    0.000000
   146  O3    c     0.224383    0.458603    0.976768    0.000000
   147  O2    c     0.194215    0.737979    0.639328    0.000000
   148  O2    c     0.441905    0.200933    0.804779    0.000000
   149  O2    c     0.736386    0.530227    0.472052    0.000000
   150  O2    c     0.773938    0.249365    0.139755    0.000000
   151  O3    c     0.201278    0.297725    0.891935    0.000000
   152  O2    c     0.665798    0.906822    0.233964    0.000000
   153  O2    c     0.073915    0.758406    0.565303    0.000000
   154  O2    c     0.753441    0.676021    0.398548    0.000000
   155  O2    c     0.300333    0.075262    0.731481    0.000000
   156  O2    c     0.904770    0.232549    0.067407    0.000000
   157  O2    c     0.309716    0.228255    0.438495    0.000000
   158  O2    c     0.894824    0.675912    0.103274    0.000000
   159  O2    c     0.745959    0.078379    0.767781    0.000000
   160  O2    c     0.653123    0.743574    0.935042    0.000000
   161  O2    c     0.070218    0.311171    0.602278    0.000000
   162  O2    c     0.218147    0.904356    0.270943    0.000000
   163  O2    c     0.565868    0.540192    0.990540    0.000000
   164  O2    c     0.426449    0.028178    0.325290    0.000000
   165  O2    c     0.948299    0.397539    0.657601    0.000000
   166  O2    c     0.398700    0.437549    0.493202    0.000000
   167  O2    c     0.537101    0.954612    0.823478    0.000000
   168  O2    c     0.019412    0.591308    0.158847    0.000000
   169  O2    c     0.543424    0.584172    0.344566    0.000000
   170  O2    c     0.023655    0.444532    0.012732    0.000000
   171  O2    c     0.389828    0.956845    0.676366    0.000000
   172  O2    c     0.422674    0.402124    0.843133    0.000000
   173  O2    c     0.955388    0.550201    0.510000    0.000000
   174  O2    c     0.577771    0.027123    0.178739    0.000000
   175  O2    c     0.571132    0.166388    0.251270    0.000000
   176  O2    c     0.815280    0.404642    0.583522    0.000000
   177  O2    c     0.564279    0.404233    0.915917    0.000000
   178  O2    c     0.392497    0.818771    0.750458    0.000000
   179  O2    c     0.159134    0.589117    0.085970    0.000000
   180  O2    c     0.403854    0.580401    0.419051    0.000000
   181  F     c     0.439706    0.901943    0.252750    0.000000
   182  F     c     0.076386    0.536902    0.584203    0.000000
   183  F     c     0.399481    0.494870    0.922082    0.000000
   184  F     c     0.524235    0.080379    0.750493    0.000000
   185  F     c     0.895950    0.455383    0.086001    0.000000
   186  F     c     0.534094    0.449895    0.418889    0.000000
   187  O2    s     0.906526    0.987866    0.994720    0.000000
   188  O3    s     0.996957    0.932288    0.335082    0.000000
   189  O2    s     0.051129    0.059933    0.666073    0.000000
   190  O2    s     0.060771    0.993715    0.500756    0.000000
   191  O2    s     0.979422    0.065148    0.832160    0.000000
   192  O3    s     0.929448    0.922448    0.162697    0.000000
   193  O2    s     0.336897    0.582964    0.336382    0.000000
   194  O2    s     0.389927    0.751678    0.667324    0.000000
   195  O2    s     0.225215    0.651049    0.002288    0.000000
   196  O2    s     0.626381    0.398663    0.831931    0.000000
   197  O2    s     0.575650    0.231788    0.167371    0.000000
   198  O2    s     0.749546    0.345253    0.500625    0.000000
   199  O2    s     0.586164    0.343594    0.999741    0.000000
   200  O2    s     0.743708    0.398963    0.666350    0.000000
   201  O2    s     0.632793    0.231917    0.335093    0.000000
   202  O2    s     0.398370    0.642548    0.501891    0.000000
   203  O2    s     0.222642    0.586152    0.169760    0.000000
   204  O2    s     0.332204    0.751646    0.834379    0.000000
   205  O3    s     0.107918    0.201484    0.968193    0.000000
   206  O3    s     0.762556    0.908040    0.307377    0.000000
   207  O2    s     0.073310    0.864607    0.637029    0.000000
   208  O2    s     0.862968    0.777562    0.471050    0.000000
   209  O2    s     0.193154    0.078154    0.802541    0.000000
   210  O3    s     0.898544    0.131791    0.140606    0.000000
   211  O2    s     0.205796    0.120724    0.366723    0.000000
   212  O2    s     0.894534    0.780704    0.030487    0.000000
   213  O2    s     0.853945    0.078944    0.696042    0.000000
   214  O2    s     0.764135    0.867761    0.864463    0.000000
   215  O2    s     0.077624    0.208127    0.530764    0.000000
   216  O2    s     0.114812    0.902933    0.198468    0.000000
   217  O3    s     0.917412    0.867245    0.245939    0.000000
   218  O2    s     0.120957    0.058890    0.583877    0.000000
   219  O2    s     0.912287    0.070816    0.914506    0.000000
   220  O2    s     0.045421    0.121123    0.748682    0.000000
   221  O3    s     0.845013    0.934550    0.077093    0.000000
   222  O2    s     0.054656    0.922735    0.418067    0.000000
   223  O2    s     0.909063    0.207713    0.983961    0.000000
   224  O3    s     0.776037    0.691046    0.316164    0.000000
   225  O2    s     0.273533    0.077344    0.649502    0.000000
   226  O2    s     0.075167    0.787976    0.483413    0.000000
   227  O2    s     0.188654    0.283049    0.810287    0.000000
   228  O3    s     0.683366    0.898869    0.151474    0.000000
   229  O2    s     0.192073    0.905904    0.353126    0.000000
   230  O2    s     0.687879    0.779569    0.017186    0.000000
   231  O2    s     0.066892    0.280506    0.684259    0.000000
   232  O2    s     0.772962    0.078804    0.849712    0.000000
   233  O2    s     0.280465    0.199849    0.520126    0.000000
   234  O2    s     0.898369    0.701608    0.185625    0.000000
   235  O2    s     0.312071    0.651606    0.253455    0.000000
   236  O2    s     0.323777    0.662036    0.584271    0.000000
   237  O2    s     0.310366    0.656338    0.917444    0.000000
   238  O2    s     0.649126    0.328502    0.749160    0.000000
   239  O2    s     0.649017    0.326537    0.084208    0.000000
   240  O2    s     0.655195    0.321586    0.418642    0.000000
   241  O3    s     0.373488    0.318955    0.971307    0.000000
   242  O2    s     0.643727    0.036434    0.303336    0.000000
   243  O2    s     0.942356    0.609560    0.635299    0.000000
   244  O2    s     0.609116    0.656056    0.469909    0.000000
   245  O2    s     0.317927    0.948131    0.802416    0.000000
   246  O2    s     0.027951    0.381864    0.137396    0.000000
   247  O2    s     0.326466    0.374299    0.368130    0.000000
   248  O2    s     0.028952    0.662476    0.034018    0.000000
   249  O2    s     0.599149    0.947885    0.698535    0.000000
   250  O2    s     0.639544    0.609060    0.864753    0.000000
   251  O2    s     0.945523    0.330476    0.531802    0.000000
   252  O2    s     0.367375    0.034786    0.200412    0.000000
   253  O2    s     0.775298    0.308590    0.016172    0.000000
   254  O2    s     0.673722    0.461406    0.349663    0.000000
   255  O2    s     0.510933    0.208346    0.680376    0.000000
   256  O2    s     0.206631    0.681940    0.514700    0.000000
   257  O2    s     0.290536    0.519551    0.847406    0.000000
   258  O2    s     0.453376    0.773102    0.184503    0.000000
   259  O2    s     0.296280    0.773992    0.322279    0.000000
   260  O2    s     0.450642    0.674435    0.986356    0.000000
   261  O2    s     0.199908    0.520101    0.653350    0.000000
   262  O2    s     0.665233    0.207532    0.818689    0.000000
   263  O2    s     0.519186    0.307052    0.488588    0.000000
   264  O2    s     0.765830    0.464688    0.154208    0.000000
   265  O2    s     0.783062    0.529873    0.031423    0.000000
   266  O2    s     0.453860    0.254120    0.366920    0.000000
   267  O2    s     0.718439    0.194823    0.696489    0.000000
   268  O2    s     0.192568    0.459910    0.531359    0.000000
   269  O2    s     0.510000    0.721098    0.866184    0.000000
   270  O2    s     0.246627    0.786750    0.200400    0.000000
   271  O2    s     0.515451    0.786143    0.305028    0.000000
   272  O3    s     0.234877    0.466074    0.974042    0.000000
   273  O2    s     0.189018    0.730009    0.636694    0.000000
   274  O2    s     0.444641    0.195588    0.802215    0.000000
   275  O2    s     0.728165    0.527309    0.469651    0.000000
   276  O2    s     0.779251    0.257793    0.137275    0.000000
   277  O3    s     0.212952    0.309608    0.891342    0.000000
   278  O2    s     0.655972    0.906492    0.234783    0.000000
   279  O2    s     0.074019    0.748902    0.566202    0.000000
   280  O2    s     0.744227    0.665990    0.399582    0.000000
   281  O2    s     0.309965    0.075717    0.732349    0.000000
   282  O2    s     0.904365    0.241852    0.068097    0.000000
   283  O2    s     0.319466    0.237819    0.437596    0.000000
   284  O2    s     0.895198    0.666435    0.102382    0.000000
   285  O2    s     0.736437    0.078331    0.766902    0.000000
   286  O2    s     0.644763    0.736163    0.934175    0.000000
   287  O2    s     0.070612    0.320924    0.601399    0.000000
   288  O2    s     0.227779    0.904383    0.270104    0.000000
   289  O2    s     0.562936    0.541513    0.987565    0.000000
   290  O2    s     0.426302    0.022988    0.321989    0.000000
   291  O2    s     0.953410    0.402415    0.654209    0.000000
   292  O2    s     0.403348    0.437293    0.489800    0.000000
   293  O2    s     0.537137    0.959874    0.820146    0.000000
   294  O2    s     0.014474    0.586158    0.155506    0.000000
   295  O2    s     0.543516    0.579408    0.347946    0.000000
   296  O2    s     0.018900    0.443981    0.015920    0.000000
   297  O2    s     0.394304    0.961687    0.679710    0.000000
   298  O2    s     0.422636    0.405553    0.846031    0.000000
   299  O2    s     0.960125    0.550367    0.513366    0.000000
   300  O2    s     0.572861    0.022244    0.181980    0.000000
   301  O2    s     0.565589    0.155180    0.251337    0.000000
   302  O2    s     0.826317    0.410321    0.583550    0.000000
   303  O2    s     0.559598    0.408868    0.915709    0.000000
   304  O2    s     0.398306    0.829956    0.750471    0.000000
   305  O2    s     0.147894    0.583211    0.085999    0.000000
   306  O2    s     0.409212    0.574798    0.419050    0.000000
   307  F     s     0.439566    0.901574    0.252793    0.000000
   308  F     s     0.076737    0.537079    0.584255    0.000000
   309  F     s     0.390539    0.485874    0.923621    0.000000
   310  F     s     0.524361    0.080692    0.750581    0.000000
   311  F     s     0.895493    0.455477    0.086104    0.000000
   312  F     s     0.534321    0.449863    0.418899    0.000000
--------------------------------------------------------------------------------

  Final Cartesian lattice vectors (Angstroms) :

       12.024458    0.001434   -0.003734
       -6.049635   10.331801    0.024004
        0.152284    0.215912   29.516942


  Final cell parameters and derivatives :

--------------------------------------------------------------------------------
       a           12.024459 Angstrom     dE/de1(xx)     0.000031 eV/strain
       b           11.972667 Angstrom     dE/de2(yy)    -0.000138 eV/strain
       c           29.518124 Angstrom     dE/de3(zz)    -0.000136 eV/strain
       alpha       89.672831 Degrees      dE/de4(yz)     0.000077 eV/strain
       beta        89.722153 Degrees      dE/de5(xz)     0.000008 eV/strain
       gamma      120.343620 Degrees      dE/de6(xy)     0.000024 eV/strain
--------------------------------------------------------------------------------

  Primitive cell volume =          3667.221355 Angs**3

  Density of cell =      1.744670 g/cm**3

  Non-primitive cell volume =          3667.221355 Angs**3


  Final internal derivatives :

--------------------------------------------------------------------------------
   No.  Atomic          a             b             c           Radius
        Label          (eV)          (eV)          (eV)        (eV/Angs)
--------------------------------------------------------------------------------
      1 Si    c       0.000000      0.000000      0.000000      0.000000
      2 Si    c       0.000007      0.000017      0.000006      0.000000
      3 Si    c       0.000015      0.000012     -0.000012      0.000000
      4 Si    c      -0.000000     -0.000005      0.000015      0.000000
      5 Si    c      -0.000017      0.000016     -0.000006      0.000000
      6 Si    c       0.000005     -0.000003      0.000047      0.000000
      7 Si    c       0.000006     -0.000024      0.000026      0.000000
      8 Si    c      -0.000000     -0.000007     -0.000062      0.000000
      9 Si    c       0.000002     -0.000021     -0.000027      0.000000
     10 Si    c       0.000012     -0.000003     -0.000039      0.000000
     11 Si    c       0.000002      0.000007     -0.000020      0.000000
     12 Si    c      -0.000014     -0.000002      0.000005      0.000000
     13 Si    c       0.000011      0.000004     -0.000028      0.000000
     14 Si    c      -0.000006      0.000005     -0.000036      0.000000
     15 Si    c      -0.000007      0.000006     -0.000000      0.000000
     16 Si    c      -0.000006     -0.000015     -0.000017      0.000000
     17 Si    c      -0.000001     -0.000023      0.000014      0.000000
     18 Si    c      -0.000000     -0.000008     -0.000061      0.000000
     19 Si    c      -0.000010      0.000001     -0.000001      0.000000
     20 Si    c       0.000007     -0.000008      0.000035      0.000000
     21 Si    c      -0.000015      0.000006      0.000039      0.000000
     22 Si    c       0.000007      0.000002      0.000051      0.000000
     23 Si    c       0.000002      0.000015      0.000026      0.000000
     24 Si    c       0.000007      0.000019     -0.000027      0.000000
     25 Si    c      -0.000016      0.000007      0.000060      0.000000
     26 Si    c      -0.000001      0.000005      0.000014      0.000000
     27 Si    c      -0.000022      0.000021     -0.000019      0.000000
     28 Si    c       0.000024     -0.000001     -0.000041      0.000000
     29 Si    c       0.000002     -0.000003      0.000030      0.000000
     30 Si    c       0.000018     -0.000009      0.000057      0.000000
     31 Si    c      -0.000023      0.000008      0.000017      0.000000
     32 Si    c      -0.000016      0.000012     -0.000040      0.000000
     33 Si    c       0.000001      0.000002     -0.000022      0.000000
     34 Si    c       0.000017     -0.000017     -0.000050      0.000000
     35 Si    c       0.000017     -0.000025      0.000023      0.000000
     36 Si    c       0.000006     -0.000010     -0.000014      0.000000
     37 Ge    c      -0.000010      0.000003     -0.000025      0.000000
     38 Si    c      -0.000010      0.000001     -0.000029      0.000000
     39 Si    c      -0.000012      0.000001     -0.000037      0.000000
     40 Si    c       0.000010     -0.000022     -0.000038      0.000000
     41 Si    c       0.000011     -0.000019     -0.000036      0.000000
     42 Si    c       0.000022     -0.000030     -0.000019      0.000000
     43 Si    c      -0.000015      0.000019      0.000031      0.000000
     44 Si    c      -0.000007      0.000003      0.000042      0.000000
     45 Si    c      -0.000012      0.000018      0.000031      0.000000
     46 Si    c       0.000014      0.000000      0.000030      0.000000
     47 Si    c       0.000014     -0.000001      0.000035      0.000000
     48 Si    c       0.000012     -0.000000      0.000025      0.000000
     49 Si    c      -0.000000     -0.000018      0.000009      0.000000
     50 Ge    c      -0.000020     -0.000046      0.000054      0.000000
     51 Si    c      -0.000009     -0.000002     -0.000056      0.000000
     52 Si    c       0.000017     -0.000011      0.000011      0.000000
     53 Si    c      -0.000014      0.000005     -0.000004      0.000000
     54 Ge    c      -0.000065      0.000074      0.000124      0.000000
     55 Si    c       0.000047     -0.000002      0.000139      0.000000
     56 Si    c       0.000021     -0.000012     -0.000186      0.000000
     57 Si    c       0.000010      0.000015      0.000011      0.000000
     58 Si    c       0.000003     -0.000006      0.000005      0.000000
     59 Si    c       0.000002     -0.000001      0.000054      0.000000
     60 Si    c       0.000040     -0.000059     -0.000009      0.000000
     61 O2    c       0.000002     -0.000011      0.000037      0.000000
     62 O3    c      -0.000049      0.000041     -0.000110      0.000000
     63 O2    c      -0.000000      0.000001      0.000002      0.000000
     64 O2    c      -0.000001     -0.000004     -0.000011      0.000000
     65 O2    c       0.000005      0.000002     -0.000010      0.000000
     66 O3    c       0.000058     -0.000018     -0.000090      0.000000
     67 O2    c       0.000001      0.000017     -0.000031      0.000000
     68 O2    c       0.000003      0.000003      0.000013      0.000000
     69 O2    c      -0.000015      0.000007      0.000022      0.000000
     70 O2    c      -0.000001     -0.000001     -0.000005      0.000000
     71 O2    c       0.000012     -0.000015      0.000018      0.000000
     72 O2    c      -0.000008      0.000001     -0.000014      0.000000
     73 O2    c      -0.000020      0.000001     -0.000005      0.000000
     74 O2    c       0.000000     -0.000016      0.000028      0.000000
     75 O2    c      -0.000001      0.000000      0.000001      0.000000
     76 O2    c      -0.000004      0.000002      0.000003      0.000000
     77 O2    c       0.000003     -0.000001      0.000008      0.000000
     78 O2    c       0.000014      0.000003     -0.000013      0.000000
     79 O3    c       0.000029      0.000012      0.000002      0.000000
     80 O3    c      -0.000016      0.000019      0.000022      0.000000
     81 O2    c       0.000000      0.000012     -0.000003      0.000000
     82 O2    c      -0.000003      0.000002      0.000008      0.000000
     83 O2    c      -0.000004      0.000001      0.000007      0.000000
     84 O3    c      -0.000010      0.000013     -0.000039      0.000000
     85 O2    c      -0.000004     -0.000009     -0.000012      0.000000
     86 O2    c       0.000020     -0.000028     -0.000023      0.000000
     87 O2    c      -0.000004     -0.000001     -0.000007      0.000000
     88 O2    c      -0.000006      0.000001      0.000012      0.000000
     89 O2    c       0.000002     -0.000000      0.000003      0.000000
     90 O2    c       0.000011      0.000005     -0.000013      0.000000
     91 O3    c      -0.000061      0.000068      0.000038      0.000000
     92 O2    c       0.000003      0.000003     -0.000012      0.000000
     93 O2    c       0.000001     -0.000001     -0.000003      0.000000
     94 O2    c      -0.000003      0.000004     -0.000019      0.000000
     95 O3    c       0.000006      0.000025      0.000020      0.000000
     96 O2    c      -0.000003      0.000003     -0.000032      0.000000
     97 O2    c      -0.000014      0.000009      0.000008      0.000000
     98 O3    c      -0.000015      0.000013      0.000040      0.000000
     99 O2    c       0.000010     -0.000001      0.000008      0.000000
    100 O2    c       0.000006     -0.000016      0.000038      0.000000
    101 O2    c      -0.000000     -0.000005     -0.000008      0.000000
    102 O3    c      -0.000011     -0.000003     -0.000006      0.000000
    103 O2    c       0.000014     -0.000016     -0.000004      0.000000
    104 O2    c      -0.000028      0.000009      0.000011      0.000000
    105 O2    c      -0.000010      0.000002     -0.000034      0.000000
    106 O2    c      -0.000001     -0.000001     -0.000004      0.000000
    107 O2    c       0.000012      0.000008     -0.000042      0.000000
    108 O2    c      -0.000003      0.000000      0.000014      0.000000
    109 O2    c      -0.000003      0.000010     -0.000044      0.000000
    110 O2    c      -0.000009      0.000002      0.000017      0.000000
    111 O2    c       0.000009     -0.000010      0.000026      0.000000
    112 O2    c      -0.000004     -0.000007      0.000039      0.000000
    113 O2    c       0.000010      0.000001     -0.000028      0.000000
    114 O2    c      -0.000007      0.000006     -0.000012      0.000000
    115 O3    c       0.000000     -0.000004      0.000007      0.000000
    116 O2    c       0.000001     -0.000003     -0.000001      0.000000
    117 O2    c       0.000008     -0.000006     -0.000010      0.000000
    118 O2    c       0.000001      0.000003      0.000003      0.000000
    119 O2    c      -0.000010      0.000020     -0.000015      0.000000
    120 O2    c       0.000001      0.000014      0.000005      0.000000
    121 O2    c       0.000011     -0.000008      0.000014      0.000000
    122 O2    c       0.000006     -0.000003     -0.000005      0.000000
    123 O2    c       0.000005     -0.000001     -0.000001      0.000000
    124 O2    c      -0.000003     -0.000007     -0.000001      0.000000
    125 O2    c      -0.000007      0.000004     -0.000005      0.000000
    126 O2    c      -0.000013     -0.000006      0.000009      0.000000
    127 O2    c      -0.000003      0.000001     -0.000004      0.000000
    128 O2    c      -0.000006     -0.000010      0.000023      0.000000
    129 O2    c      -0.000010     -0.000003     -0.000008      0.000000
    130 O2    c       0.000014     -0.000010      0.000003      0.000000
    131 O2    c       0.000007     -0.000013      0.000001      0.000000
    132 O2    c      -0.000001      0.000001      0.000002      0.000000
    133 O2    c      -0.000008      0.000015     -0.000001      0.000000
    134 O2    c       0.000002      0.000003      0.000012      0.000000
    135 O2    c      -0.000002      0.000019     -0.000022      0.000000
    136 O2    c      -0.000002     -0.000003     -0.000010      0.000000
    137 O2    c       0.000011     -0.000005      0.000001      0.000000
    138 O2    c       0.000004      0.000006      0.000005      0.000000
    139 O2    c      -0.000003     -0.000016     -0.000001      0.000000
    140 O2    c      -0.000003     -0.000001     -0.000006      0.000000
    141 O2    c       0.000009     -0.000018      0.000014      0.000000
    142 O2    c      -0.000006      0.000001      0.000012      0.000000
    143 O2    c      -0.000003      0.000003     -0.000011      0.000000
    144 O2    c       0.000001      0.000002      0.000005      0.000000
    145 O2    c       0.000013      0.000006     -0.000007      0.000000
    146 O3    c       0.000001      0.000014      0.000004      0.000000
    147 O2    c       0.000004     -0.000002      0.000005      0.000000
    148 O2    c      -0.000002      0.000001      0.000003      0.000000
    149 O2    c      -0.000009      0.000007     -0.000016      0.000000
    150 O2    c      -0.000008      0.000004      0.000012      0.000000
    151 O3    c       0.000013      0.000013     -0.000060      0.000000
    152 O2    c      -0.000009      0.000005      0.000023      0.000000
    153 O2    c       0.000003     -0.000006      0.000040      0.000000
    154 O2    c      -0.000003     -0.000002      0.000043      0.000000
    155 O2    c       0.000010     -0.000005      0.000018      0.000000
    156 O2    c      -0.000007      0.000011     -0.000029      0.000000
    157 O2    c       0.000001      0.000002     -0.000048      0.000000
    158 O2    c       0.000009     -0.000020      0.000021      0.000000
    159 O2    c      -0.000009      0.000003     -0.000016      0.000000
    160 O2    c      -0.000008     -0.000003      0.000019      0.000000
    161 O2    c      -0.000003      0.000005     -0.000039      0.000000
    162 O2    c       0.000012     -0.000005     -0.000029      0.000000
    163 O2    c      -0.000006      0.000016      0.000001      0.000000
    164 O2    c       0.000006      0.000001     -0.000005      0.000000
    165 O2    c      -0.000011      0.000007     -0.000001      0.000000
    166 O2    c       0.000001      0.000011     -0.000027      0.000000
    167 O2    c       0.000010      0.000002      0.000009      0.000000
    168 O2    c       0.000004     -0.000003      0.000006      0.000000
    169 O2    c      -0.000010      0.000005     -0.000005      0.000000
    170 O2    c      -0.000000     -0.000009     -0.000007      0.000000
    171 O2    c       0.000005     -0.000003      0.000014      0.000000
    172 O2    c       0.000001     -0.000001     -0.000011      0.000000
    173 O2    c      -0.000001     -0.000015      0.000023      0.000000
    174 O2    c       0.000008     -0.000012      0.000002      0.000000
    175 O2    c       0.000003     -0.000009      0.000041      0.000000
    176 O2    c       0.000008     -0.000002     -0.000016      0.000000
    177 O2    c      -0.000010      0.000010     -0.000017      0.000000
    178 O2    c       0.000004      0.000007     -0.000034      0.000000
    179 O2    c      -0.000011     -0.000003      0.000027      0.000000
    180 O2    c       0.000008     -0.000006      0.000008      0.000000
    181 F     c       0.000000     -0.000001      0.000002      0.000000
    182 F     c       0.000001     -0.000000     -0.000001      0.000000
    183 F     c      -0.000003     -0.000002      0.000002      0.000000
    184 F     c       0.000000      0.000000     -0.000001      0.000000
    185 F     c       0.000001      0.000000     -0.000001      0.000000
    186 F     c      -0.000000      0.000000     -0.000000      0.000000
    187 O2    s      -0.000001      0.000009     -0.000028      0.000000
    188 O3    s       0.000023     -0.000017      0.000063      0.000000
    189 O2    s       0.000001      0.000000     -0.000002      0.000000
    190 O2    s       0.000002      0.000003      0.000017      0.000000
    191 O2    s      -0.000002      0.000002     -0.000004      0.000000
    192 O3    s      -0.000016      0.000008     -0.000012      0.000000
    193 O2    s      -0.000001     -0.000005      0.000011      0.000000
    194 O2    s      -0.000003      0.000001     -0.000005      0.000000
    195 O2    s       0.000009     -0.000013     -0.000012      0.000000
    196 O2    s       0.000003     -0.000003      0.000007      0.000000
    197 O2    s      -0.000004      0.000004     -0.000006      0.000000
    198 O2    s       0.000003      0.000007      0.000002      0.000000
    199 O2    s       0.000010      0.000002     -0.000001      0.000000
    200 O2    s       0.000002      0.000003     -0.000009      0.000000
    201 O2    s       0.000000     -0.000000      0.000001      0.000000
    202 O2    s       0.000002     -0.000009      0.000003      0.000000
    203 O2    s      -0.000003      0.000006     -0.000007      0.000000
    204 O2    s      -0.000007     -0.000001      0.000004      0.000000
    205 O3    s      -0.000009     -0.000001     -0.000020      0.000000
    206 O3    s      -0.000012      0.000002     -0.000009      0.000000
    207 O2    s      -0.000000     -0.000003     -0.000013      0.000000
    208 O2    s      -0.000006     -0.000001     -0.000014      0.000000
    209 O2    s       0.000002      0.000003     -0.000019      0.000000
    210 O3    s      -0.000006      0.000012      0.000015      0.000000
    211 O2    s       0.000010      0.000010      0.000023      0.000000
    212 O2    s       0.000019     -0.000017      0.000009      0.000000
    213 O2    s       0.000000      0.000003      0.000014      0.000000
    214 O2    s       0.000002      0.000000      0.000006      0.000000
    215 O2    s      -0.000003      0.000001      0.000010      0.000000
    216 O2    s       0.000032     -0.000022      0.000012      0.000000
    217 O3    s       0.000006     -0.000017      0.000029      0.000000
    218 O2    s      -0.000002     -0.000002      0.000010      0.000000
    219 O2    s      -0.000005     -0.000003     -0.000013      0.000000
    220 O2    s       0.000000      0.000001      0.000006      0.000000
    221 O3    s       0.000003      0.000000     -0.000028      0.000000
    222 O2    s      -0.000006      0.000002      0.000051      0.000000
    223 O2    s      -0.000007      0.000002      0.000004      0.000000
    224 O3    s       0.000007     -0.000015      0.000012      0.000000
    225 O2    s      -0.000004     -0.000004      0.000014      0.000000
    226 O2    s       0.000002      0.000003      0.000009      0.000000
    227 O2    s       0.000000     -0.000003      0.000026      0.000000
    228 O3    s      -0.000019      0.000014      0.000036      0.000000
    229 O2    s       0.000014     -0.000002     -0.000035      0.000000
    230 O2    s      -0.000015      0.000006     -0.000056      0.000000
    231 O2    s       0.000006     -0.000004      0.000009      0.000000
    232 O2    s       0.000001     -0.000001     -0.000008      0.000000
    233 O2    s      -0.000005     -0.000000      0.000004      0.000000
    234 O2    s       0.000015     -0.000026     -0.000057      0.000000
    235 O2    s       0.000001      0.000003      0.000015      0.000000
    236 O2    s       0.000004     -0.000003     -0.000004      0.000000
    237 O2    s      -0.000003      0.000001     -0.000010      0.000000
    238 O2    s       0.000003     -0.000004     -0.000011      0.000000
    239 O2    s      -0.000004      0.000000      0.000006      0.000000
    240 O2    s       0.000001      0.000002      0.000003      0.000000
    241 O3    s      -0.000004      0.000015     -0.000030      0.000000
    242 O2    s      -0.000002      0.000001     -0.000006      0.000000
    243 O2    s      -0.000002      0.000002     -0.000003      0.000000
    244 O2    s       0.000001     -0.000006     -0.000004      0.000000
    245 O2    s       0.000006     -0.000006     -0.000009      0.000000
    246 O2    s      -0.000002     -0.000000     -0.000016      0.000000
    247 O2    s      -0.000005      0.000003      0.000002      0.000000
    248 O2    s      -0.000001     -0.000005      0.000017      0.000000
    249 O2    s      -0.000005      0.000004      0.000006      0.000000
    250 O2    s       0.000004     -0.000001      0.000016      0.000000
    251 O2    s       0.000003      0.000002      0.000006      0.000000
    252 O2    s       0.000009     -0.000006      0.000010      0.000000
    253 O2    s       0.000000      0.000000      0.000007      0.000000
    254 O2    s       0.000001      0.000003      0.000009      0.000000
    255 O2    s       0.000007     -0.000006      0.000025      0.000000
    256 O2    s      -0.000007     -0.000001      0.000022      0.000000
    257 O2    s      -0.000004      0.000002      0.000010      0.000000
    258 O2    s      -0.000003      0.000003      0.000012      0.000000
    259 O2    s       0.000005     -0.000001     -0.000025      0.000000
    260 O2    s      -0.000001     -0.000002     -0.000013      0.000000
    261 O2    s      -0.000000     -0.000006     -0.000005      0.000000
    262 O2    s       0.000001      0.000001     -0.000005      0.000000
    263 O2    s      -0.000008      0.000010     -0.000023      0.000000
    264 O2    s       0.000000     -0.000002     -0.000021      0.000000
    265 O2    s       0.000003     -0.000002      0.000007      0.000000
    266 O2    s       0.000002      0.000002      0.000012      0.000000
    267 O2    s      -0.000007      0.000005      0.000013      0.000000
    268 O2    s      -0.000001      0.000003      0.000006      0.000000
    269 O2    s       0.000001     -0.000002      0.000016      0.000000
    270 O2    s      -0.000001     -0.000000      0.000005      0.000000
    271 O2    s      -0.000009      0.000003     -0.000016      0.000000
    272 O3    s       0.000001     -0.000000     -0.000026      0.000000
    273 O2    s      -0.000001     -0.000001     -0.000007      0.000000
    274 O2    s       0.000002     -0.000002     -0.000009      0.000000
    275 O2    s       0.000002     -0.000003      0.000002      0.000000
    276 O2    s       0.000003      0.000004     -0.000029      0.000000
    277 O3    s      -0.000008     -0.000003      0.000020      0.000000
    278 O2    s       0.000008     -0.000005     -0.000011      0.000000
    279 O2    s       0.000001     -0.000005     -0.000010      0.000000
    280 O2    s       0.000001     -0.000003     -0.000003      0.000000
    281 O2    s      -0.000005      0.000001     -0.000008      0.000000
    282 O2    s      -0.000004      0.000005      0.000007      0.000000
    283 O2    s       0.000002      0.000002      0.000020      0.000000
    284 O2    s      -0.000003      0.000016     -0.000002      0.000000
    285 O2    s       0.000002      0.000001      0.000005      0.000000
    286 O2    s       0.000003     -0.000002     -0.000004      0.000000
    287 O2    s      -0.000001      0.000006      0.000007      0.000000
    288 O2    s      -0.000015      0.000005      0.000017      0.000000
    289 O2    s       0.000002     -0.000003     -0.000026      0.000000
    290 O2    s      -0.000002     -0.000002     -0.000008      0.000000
    291 O2    s       0.000006      0.000001     -0.000023      0.000000
    292 O2    s       0.000002     -0.000005     -0.000003      0.000000
    293 O2    s      -0.000007      0.000007     -0.000028      0.000000
    294 O2    s      -0.000000      0.000002     -0.000012      0.000000
    295 O2    s       0.000006     -0.000008      0.000029      0.000000
    296 O2    s      -0.000007      0.000008      0.000029      0.000000
    297 O2    s      -0.000003      0.000002      0.000004      0.000000
    298 O2    s      -0.000002      0.000000      0.000015      0.000000
    299 O2    s       0.000002      0.000004      0.000006      0.000000
    300 O2    s      -0.000005      0.000000      0.000019      0.000000
    301 O2    s      -0.000000     -0.000003     -0.000009      0.000000
    302 O2    s      -0.000003      0.000003      0.000003      0.000000
    303 O2    s       0.000006     -0.000002      0.000002      0.000000
    304 O2    s      -0.000003      0.000004      0.000009      0.000000
    305 O2    s       0.000005      0.000001     -0.000012      0.000000
    306 O2    s      -0.000001     -0.000002      0.000002      0.000000
    307 F     s       0.000000      0.000001     -0.000003      0.000000
    308 F     s      -0.000001      0.000000      0.000002      0.000000
    309 F     s       0.000003     -0.000003      0.000015      0.000000
    310 F     s       0.000000     -0.000000      0.000003      0.000000
    311 F     s      -0.000002      0.000000      0.000002      0.000000
    312 F     s      -0.000000     -0.000000     -0.000001      0.000000
--------------------------------------------------------------------------------
  Maximum abs         0.000065      0.000074      0.000186      0.000000
--------------------------------------------------------------------------------


  Time to end of optimisation =      58.8534 seconds


  Peak dynamic memory used =      19.13 MB 


  Timing analysis for GULP :

--------------------------------------------------------------------------------
  Task / Subroutine                                          Time (Seconds)
--------------------------------------------------------------------------------
  Calculation of reciprocal space energy and derivatives          1.7920
  Calculation of real space energy and derivatives               50.4032
  Calculation of three-body energy and derivatives                5.7012
  Calculation of matrix inversion                                 0.7794
--------------------------------------------------------------------------------
  Total CPU time                                                 58.8535
--------------------------------------------------------------------------------


  Dump file written as out.res                                                 
  CIF file written as out.cif                                                 


  Job Finished at 00:02.01 26th November   2016                               

